Title
81287
    1CHL1    C3    1   3.636   5.652  10.394  0.0296 -0.8975 -0.4540
    1CHL1    H3    2   3.538   5.678  10.438  1.5897  0.4758  2.5042
    1CHL1    O3    3   3.730   5.646  10.504  0.3489  0.1059  0.2855
    1CHL1   H3'    4   3.709   5.578  10.568 -1.0357  0.4160  0.1780
    1CHL1    C4    5   3.634   5.518  10.327 -0.1768 -0.4461 -0.4988
    1CHL1   H4A    6   3.739   5.494  10.299  0.2353 -0.7999  1.2255
    1CHL1   H4B    7   3.610   5.444  10.406  0.0888  0.7409  0.7099
    1CHL1    C5    8   3.537   5.515  10.213 -0.1088  0.0429  0.2787
    1CHL1    C6    9   3.428   5.439  10.213 -0.9209  0.2599  0.0841
    1CHL1    H6   10   3.400   5.371  10.295 -0.0732 -2.4251 -1.7094
    1CHL1    C7   11   3.338   5.428  10.087 -0.0329  0.0068  0.9257
    1CHL1   H7A   12   3.296   5.326  10.076 -0.7117  0.1533  2.0031
    1CHL1   H7B   13   3.249   5.493  10.103 -0.6063 -0.0090 -1.7937
    1CHL1    C8   14   3.394   5.493   9.961 -1.1161 -0.3976  0.1137
    1CHL1    H8   15   3.467   5.421   9.918 -0.0785 -0.1588  1.3901
    1CHL1   C14   16   3.289   5.521   9.856  0.5627 -0.2974 -0.7917
    1CHL1   H14   17   3.231   5.597   9.912  1.1939  0.6080 -1.3551
    1CHL1   C15   18   3.183   5.415   9.830 -0.1393 -0.2236  0.0130
    1CHL1  H15A   19   3.221   5.311   9.843 -0.7136 -0.2367  1.8541
    1CHL1  H15B   20   3.104   5.418   9.908  1.4998  1.3993  1.6788
    1CHL1   C16   21   3.137   5.457   9.688 -0.4676 -0.3445 -0.4346
    1CHL1  H16A   22   3.176   5.382   9.616  1.8137 -1.3608  1.7122
    1CHL1  H16B   23   3.026   5.463   9.689 -0.4181  1.0059 -0.7422
    1CHL1   C17   24   3.199   5.595   9.655 -0.1698  0.2404  0.3910
    1CHL1   H17   25   3.135   5.660   9.718  3.2705  1.8748  2.4720
    1CHL1   C13   26   3.336   5.589   9.725  0.3333 -0.1435  0.5574
    1CHL1   C18   27   3.426   5.480   9.660 -0.0624 -0.1663 -0.0797
    1CHL1  H18A   28   3.369   5.385   9.662  1.3620 -1.0375  0.7492
    1CHL1  H18B   29   3.440   5.498   9.552  0.6577 -2.8759 -0.5121
    1CHL1  H18C   30   3.526   5.467   9.708 -0.3127 -0.1435  0.4539
    1CHL1   C12   31   3.407   5.721   9.751 -0.0910  0.5679 -0.2647
    1CHL1  H12A   32   3.440   5.763   9.654 -0.9295  1.8566 -0.0220
    1CHL1  H12B   33   3.333   5.792   9.794 -0.7248 -0.1371 -0.1656
    1CHL1   C11   34   3.512   5.696   9.856  0.1973 -0.0014 -0.0143
    1CHL1  H11A   35   3.596   5.641   9.809  0.6832  1.4402 -0.8938
    1CHL1  H11B   36   3.564   5.787   9.895  0.7398 -1.0795  1.9174
    1CHL1    C9   37   3.464   5.629   9.991  0.3359 -0.3029  0.2477
    1CHL1    H9   38   3.387   5.699  10.032  0.3140 -0.4196  0.4089
    1CHL1   C10   39   3.571   5.617  10.104 -0.1586 -0.4573  0.1982
    1CHL1   C19   40   3.702   5.565  10.040  0.5927  0.1380  0.4210
    1CHL1  H19A   41   3.693   5.460  10.006 -1.2025 -0.2740  1.9927
    1CHL1  H19B   42   3.739   5.628   9.956  2.8457 -0.6730  0.7442
    1CHL1  H19C   43   3.785   5.570  10.114  0.8400  0.1679  0.1451
    1CHL1    C1   44   3.592   5.752  10.175  0.2693 -0.6425  0.1961
    1CHL1   H1A   45   3.623   5.826  10.099 -1.3970 -0.4985 -0.3752
    1CHL1   H1B   46   3.489   5.783  10.203  1.0316  0.3833  2.0524
    1CHL1    C2   47   3.687   5.752  10.291 -0.1123  0.9871 -0.5342
    1CHL1   H2A   48   3.695   5.847  10.347  0.7969  1.8286 -2.0105
    1CHL1   H2B   49   3.791   5.721  10.266  0.3162  1.0683  1.0193
    1CHL1   C20   50   3.178   5.639   9.510 -0.1383  0.1674 -0.0653
    1CHL1   H20   51   3.232   5.736   9.501 -0.0120  0.0475 -0.6332
    1CHL1   C21   52   3.024   5.653   9.490 -0.6297 -0.2409 -0.3680
    1CHL1  H21A   53   2.974   5.717   9.565  2.1036  1.7515 -0.0766
    1CHL1  H21B   54   2.980   5.554   9.464 -1.5809  0.5581 -1.9228
    1CHL1  H21C   55   3.013   5.715   9.398  3.2569 -0.5434 -1.2217
    1CHL1   C22   56   3.239   5.559   9.393  0.4006  0.8789  0.1836
    1CHL1  H22A   57   3.349   5.567   9.398  0.6980 -1.7131 -0.7134
    1CHL1  H22B   58   3.220   5.450   9.398 -0.4471  0.8309 -2.4803
    1CHL1   C23   59   3.206   5.626   9.252 -0.2848  0.8335 -0.1446
    1CHL1  H23A   60   3.096   5.618   9.234 -0.3544  0.0386  0.5079
    1CHL1  H23B   61   3.236   5.732   9.258  0.3327  0.6248  0.6911
    1CHL1   C24   62   3.283   5.561   9.134 -0.8500  0.8400  0.5385
    1CHL1  H24A   63   3.391   5.586   9.148 -0.7705 -0.0793  1.7598
    1CHL1  H24B   64   3.266   5.451   9.135  1.2969  0.4686  1.0141
    1CHL1   C25   65   3.232   5.607   8.996  0.1958 -0.6135 -0.4637
    1CHL1   H25   66   3.123   5.588   9.003  0.0677 -0.3558 -1.6207
    1CHL1   C26   67   3.261   5.757   8.965 -0.3790 -0.0007  0.3950
    1CHL1  H26A   68   3.202   5.783   8.875  2.7299  1.1242 -1.4896
    1CHL1  H26B   69   3.229   5.820   9.052  2.0755  1.0692  0.6019
    1CHL1  H26C   70   3.371   5.771   8.954 -0.3627 -0.8099 -0.5952
    1CHL1   C27   71   3.285   5.517   8.887  0.2959  0.0085  0.9542
    1CHL1  H27A   72   3.240   5.542   8.788  1.0584 -0.5344  0.4555
    1CHL1  H27B   73   3.392   5.536   8.866  0.0369  1.4633  0.8171
    1CHL1  H27C   74   3.274   5.408   8.908 -2.2149  0.5567  3.0244
    2CHL1    C3   75   1.105   2.969  10.071 -0.2838  0.0393 -0.6923
    2CHL1    H3   76   1.053   3.065  10.047  0.1640  0.7416  0.9978
    2CHL1    O3   77   1.133   2.966  10.212 -0.6034  0.3044  0.7600
    2CHL1   H3'   78   1.056   2.947  10.267  1.0510 -1.6913  2.5591
    2CHL1    C4   79   1.011   2.862  10.029 -1.0415 -0.3202  0.4787
    2CHL1   H4A   80   1.055   2.764  10.058 -0.0106 -0.6880 -2.0814
    2CHL1   H4B   81   0.907   2.862  10.070 -2.4506 -5.4207 -2.2803
    2CHL1    C5   82   0.989   2.868   9.875 -0.2554 -0.4698 -0.0013
    2CHL1    C6   83   0.866   2.883   9.824  0.3165  0.4493  0.8037
    2CHL1    H6   84   0.779   2.876   9.891 -1.1494  2.4296 -0.7885
    2CHL1    C7   85   0.845   2.891   9.670  0.4390 -0.6269 -0.5736
    2CHL1   H7A   86   0.754   2.835   9.640 -0.5200  0.3637  0.3850
    2CHL1   H7B   87   0.819   2.997   9.648  2.3475 -0.0709 -0.3285
    2CHL1    C8   88   0.964   2.844   9.583  0.0856 -0.5066  1.0762
    2CHL1    H8   89   0.959   2.734   9.574  2.5796 -0.7181  1.4625
    2CHL1   C14   90   0.953   2.900   9.437  0.0465  0.5204 -0.0567
    2CHL1   H14   91   0.964   3.010   9.442 -1.5599  0.7554 -0.8604
    2CHL1   C15   92   0.823   2.879   9.354 -0.6880  0.1743  0.1929
    2CHL1  H15A   93   0.791   2.774   9.373 -0.3042  0.3726  2.1911
    2CHL1  H15B   94   0.743   2.954   9.372 -1.2680  0.0311 -1.6138
    2CHL1   C16   95   0.867   2.905   9.210 -1.1824  0.3741  0.2769
    2CHL1  H16A   96   0.817   2.842   9.134  1.0503  1.2933 -2.1363
    2CHL1  H16B   97   0.836   3.012   9.201 -1.6959  0.2809  0.8774
    2CHL1   C17   98   1.024   2.912   9.204  0.0076  0.7866  0.0112
    2CHL1   H17   99   1.051   3.020   9.199  1.2404  0.6120  1.7659
    2CHL1   C13  100   1.061   2.851   9.344 -0.3816  0.7205 -0.0006
    2CHL1   C18  101   1.050   2.694   9.325  0.5222 -0.6791 -0.1816
    2CHL1  H18A  102   0.960   2.667   9.265  0.5352  0.2720 -0.6425
    2CHL1  H18B  103   1.142   2.654   9.278  1.3668  0.1993  0.6812
    2CHL1  H18C  104   1.050   2.643   9.424 -0.1913  0.0171  0.1905
    2CHL1   C12  105   1.198   2.899   9.396  0.4621  0.7437  0.5760
    2CHL1  H12A  106   1.277   2.856   9.330  0.7043  2.2013 -0.1384
    2CHL1  H12B  107   1.203   3.009   9.381  0.4194  0.7662  0.7302
    2CHL1   C11  108   1.220   2.851   9.540  0.1657 -0.0551  0.4228
    2CHL1  H11A  109   1.223   2.739   9.542  2.2630 -0.0568 -0.4071
    2CHL1  H11B  110   1.321   2.870   9.581  0.0860 -0.2835  0.7304
    2CHL1    C9  111   1.099   2.889   9.639  0.2002 -0.8985  0.1532
    2CHL1    H9  112   1.082   2.999   9.626 -2.0416 -1.2117 -0.0425
    2CHL1   C10  113   1.121   2.870   9.789  0.4538  0.0188  0.2238
    2CHL1   C19  114   1.178   2.727   9.810 -0.3064  0.2515 -0.2819
    2CHL1  H19A  115   1.175   2.691   9.916  2.0266  0.8548  0.0409
    2CHL1  H19B  116   1.117   2.657   9.750 -0.8453  1.9381 -1.7812
    2CHL1  H19C  117   1.285   2.724   9.780 -0.5300 -3.5868 -1.2645
    2CHL1    C1  118   1.217   2.972   9.841 -0.6208  0.0905  0.0592
    2CHL1   H1A  119   1.313   2.956   9.788 -0.8166 -0.1314 -0.2282
    2CHL1   H1B  120   1.191   3.077   9.817  1.1696  0.3351 -0.9930
    2CHL1    C2  121   1.237   2.968   9.996  0.2709 -0.2956 -0.5214
    2CHL1   H2A  122   1.301   3.050  10.035  2.0395 -1.4443 -0.8960
    2CHL1   H2B  123   1.295   2.874  10.009 -1.6042 -1.4855 -0.3441
    2CHL1   C20  124   1.071   2.844   9.066 -0.1550 -0.3022 -0.1664
    2CHL1   H20  125   1.024   2.744   9.055 -2.0773  0.5858 -0.4607
    2CHL1   C21  126   1.223   2.818   9.065  0.6516 -0.1845  0.2870
    2CHL1  H21A  127   1.246   2.775   8.965  1.1856  0.7931 -0.0260
    2CHL1  H21B  128   1.252   2.753   9.150  0.8695  0.2400  0.5386
    2CHL1  H21C  129   1.284   2.911   9.065  1.3349 -0.5867 -1.2605
    2CHL1   C22  130   1.033   2.936   8.948 -0.2049  0.0645  0.3748
    2CHL1  H22A  131   0.932   2.980   8.963 -0.1757 -0.1796  1.3236
    2CHL1  H22B  132   1.109   3.015   8.960  1.3313 -1.3535  0.3619
    2CHL1   C23  133   1.032   2.883   8.808 -0.4255 -0.6129 -0.2479
    2CHL1  H23A  134   1.133   2.842   8.787 -0.1120  0.1548 -0.2939
    2CHL1  H23B  135   0.958   2.801   8.795 -2.5805  1.1800  0.1058
    2CHL1   C24  136   1.010   2.992   8.701  0.2610 -0.7243 -0.5060
    2CHL1  H24A  137   1.093   3.065   8.710 -0.0545 -0.6088  2.4640
    2CHL1  H24B  138   1.022   2.937   8.605  2.6861  0.6697 -1.0834
    2CHL1   C25  139   0.863   3.055   8.715 -0.1642 -0.1444  0.8553
    2CHL1   H25  140   0.859   3.116   8.808 -1.2124 -2.4288  2.4032
    2CHL1   C26  141   0.841   3.143   8.587 -0.4241  0.4193 -0.5561
    2CHL1  H26A  142   0.837   3.088   8.491  1.3632  0.8641 -0.9304
    2CHL1  H26B  143   0.742   3.186   8.615 -0.9507 -1.0242 -0.0679
    2CHL1  H26C  144   0.926   3.215   8.580  0.7229 -1.0145 -1.8871
    2CHL1   C27  145   0.755   2.950   8.732  0.3166 -0.4226 -0.2769
    2CHL1  H27A  146   0.652   2.992   8.724 -0.5967 -1.6222  3.3415
    2CHL1  H27B  147   0.767   2.867   8.659 -1.5913  0.0713 -1.2136
    2CHL1  H27C  148   0.748   2.897   8.830  1.1627 -2.1693 -1.1197
    3CHL1    C3  149   0.289   3.869  10.266 -0.6614  0.2675 -0.4930
    3CHL1    H3  150   0.209   3.947  10.264 -0.1286  0.8383  0.0092
    3CHL1    O3  151   0.321   3.844  10.404  0.5029 -0.3449  0.5951
    3CHL1   H3'  152   0.362   3.758  10.410  2.2634  0.5036  2.1582
    3CHL1    C4  153   0.234   3.755  10.183  0.2035 -0.1653 -0.2617
    3CHL1   H4A  154   0.304   3.669  10.183  2.6509  1.6829 -1.7285
    3CHL1   H4B  155   0.142   3.719  10.233 -0.1583 -0.1829 -0.9292
    3CHL1    C5  156   0.208   3.789  10.040 -0.0513  0.6197 -0.1101
    3CHL1    C6  157   0.083   3.786   9.982  0.0463 -0.6178  0.4076
    3CHL1    H6  158  -0.010   3.754  10.030  0.3376 -0.4374  1.1103
    3CHL1    C7  159   0.057   3.823   9.836 -0.6613 -0.0174 -0.3570
    3CHL1   H7A  160  -0.015   3.752   9.791  0.6886 -0.5660 -1.7323
    3CHL1   H7B  161   0.027   3.930   9.833  0.8094  0.4907  1.0872
    3CHL1    C8  162   0.188   3.829   9.753  0.0307 -0.8452 -0.0944
    3CHL1    H8  163   0.221   3.728   9.721 -0.8084 -0.8558 -0.9792
    3CHL1   C14  164   0.161   3.912   9.626 -0.3865 -0.0148 -0.5970
    3CHL1   H14  165   0.126   4.015   9.649  0.9679  0.8139 -2.0896
    3CHL1   C15  166   0.050   3.862   9.530 -0.1424  0.1981 -0.1113
    3CHL1  H15A  167   0.077   3.757   9.509 -1.8654 -0.1806 -0.6144
    3CHL1  H15B  168  -0.056   3.873   9.563 -0.2378  0.8530 -0.6017
    3CHL1   C16  169   0.074   3.934   9.400  0.2910  0.5488  0.3297
    3CHL1  H16A  170   0.087   3.864   9.314 -0.7802  2.3371 -1.3706
    3CHL1  H16B  171  -0.011   4.000   9.373 -0.2539 -0.1436  0.3269
    3CHL1   C17  172   0.209   4.007   9.417  0.0493 -0.5780 -0.5473
    3CHL1   H17  173   0.175   4.104   9.458  1.1308  0.3286 -1.7057
    3CHL1   C13  174   0.280   3.940   9.537  0.6465 -0.7925  0.2257
    3CHL1   C18  175   0.353   3.816   9.494 -0.9033 -0.6975  0.1791
    3CHL1  H18A  176   0.385   3.756   9.581  3.0185  0.9257  0.0738
    3CHL1  H18B  177   0.283   3.762   9.427  0.6089 -0.8793 -1.3501
    3CHL1  H18C  178   0.441   3.852   9.435 -1.1857 -2.1918 -1.2550
    3CHL1   C12  179   0.379   4.031   9.611  0.1543  0.0044 -0.4475
    3CHL1  H12A  180   0.469   4.042   9.547 -0.7171  1.9887 -1.4073
    3CHL1  H12B  181   0.336   4.133   9.625  1.9555  0.5616  1.4872
    3CHL1   C11  182   0.416   3.968   9.744 -0.0031  0.0730  0.2236
    3CHL1  H11A  183   0.479   3.878   9.731  2.0675  1.5414 -0.3884
    3CHL1  H11B  184   0.469   4.042   9.807  0.3348 -1.1879  1.4759
    3CHL1    C9  185   0.299   3.908   9.833  1.0993  0.1904  0.3288
    3CHL1    H9  186   0.244   3.998   9.869  0.1599 -0.3019  0.1515
    3CHL1   C10  187   0.339   3.838   9.969 -0.0666 -0.7488 -0.2959
    3CHL1   C19  188   0.446   3.722   9.938  0.2202 -0.7268 -0.9444
    3CHL1  H19A  189   0.536   3.759   9.884 -0.8977 -1.2655 -3.3586
    3CHL1  H19B  190   0.477   3.671  10.031 -1.6019 -0.8242 -0.3604
    3CHL1  H19C  191   0.400   3.651   9.866  0.3287 -0.1571 -1.5996
    3CHL1    C1  192   0.400   3.949  10.058 -0.1954 -0.6138 -0.3389
    3CHL1   H1A  193   0.501   3.968  10.016 -0.2149  0.5475  0.1111
    3CHL1   H1B  194   0.345   4.044  10.043  1.0433  0.1019 -0.4595
    3CHL1    C2  195   0.423   3.918  10.208  0.4151 -0.0788 -0.2699
    3CHL1   H2A  196   0.462   4.010  10.257 -0.1764 -0.1858  0.4163
    3CHL1   H2B  197   0.495   3.835  10.217 -2.6412 -3.3017 -2.5588
    3CHL1   C20  198   0.280   4.033   9.279 -0.2709  0.7121 -1.0004
    3CHL1   H20  199   0.307   3.934   9.237 -0.0323  0.0661  0.5889
    3CHL1   C21  200   0.411   4.113   9.298  0.7787 -0.2660  0.0144
    3CHL1  H21A  201   0.493   4.056   9.347  3.1761  1.5917 -1.5844
    3CHL1  H21B  202   0.375   4.203   9.353 -0.7168 -0.8121 -0.0069
    3CHL1  H21C  203   0.453   4.132   9.197 -0.5040 -1.5540 -0.8118
    3CHL1   C22  204   0.176   4.093   9.179 -0.4602 -0.0192  0.8534
    3CHL1  H22A  205   0.090   4.025   9.160  2.3671 -3.2790 -1.6217
    3CHL1  H22B  206   0.135   4.191   9.213 -1.6172 -0.7409  1.6164
    3CHL1   C23  207   0.237   4.095   9.043 -0.4698  0.0326  0.1049
    3CHL1  H23A  208   0.320   4.169   9.042 -2.5413  2.4729 -1.6478
    3CHL1  H23B  209   0.268   3.990   9.024 -0.0136  0.0082  0.9246
    3CHL1   C24  210   0.139   4.143   8.928 -0.3379  0.3942 -0.1703
    3CHL1  H24A  211   0.053   4.072   8.928 -2.3081  2.6063  0.7005
    3CHL1  H24B  212   0.106   4.245   8.958  0.5437  0.9958 -1.1946
    3CHL1   C25  213   0.202   4.144   8.788  0.4097  1.1875  0.6821
    3CHL1   H25  214   0.310   4.171   8.787  0.3474  1.4801 -0.6857
    3CHL1   C26  215   0.216   3.999   8.721  0.4038  0.2631 -0.2026
    3CHL1  H26A  216   0.263   3.938   8.801  0.0816 -0.7176 -0.7515
    3CHL1  H26B  217   0.118   3.954   8.695 -0.0829  2.8300 -3.5823
    3CHL1  H26C  218   0.280   4.005   8.630  0.7012 -1.3939 -0.1240
    3CHL1   C27  219   0.135   4.247   8.690  0.0077  0.6362  0.4659
    3CHL1  H27A  220   0.118   4.350   8.728 -1.2498  1.0327 -1.0545
    3CHL1  H27B  221   0.190   4.238   8.594  1.9779 -1.8267  1.6936
    3CHL1  H27C  222   0.031   4.208   8.693 -0.2915  1.4646  2.4050
    4CHL1    C3  223   4.397   3.717  10.439  0.6486  0.0779 -0.1306
    4CHL1    H3  224   4.384   3.607  10.444 -2.0177  0.3686  2.3362
    4CHL1    O3  225   4.406   3.770  10.571  0.6787 -0.1580 -0.0060
    4CHL1   H3'  226   4.411   3.866  10.569  1.7160 -0.2045 -0.4771
    4CHL1    C4  227   4.530   3.755  10.373 -0.4936 -0.1939  0.7109
    4CHL1   H4A  228   4.554   3.863  10.379  3.6764 -0.9250 -0.1651
    4CHL1   H4B  229   4.617   3.712  10.426 -0.3934 -1.6580 -0.5519
    4CHL1    C5  230   4.526   3.704  10.230 -0.2451 -0.2925  0.1177
    4CHL1    C6  231   4.620   3.623  10.183 -0.0973 -0.0440 -0.2771
    4CHL1    H6  232   4.698   3.580  10.248 -1.4852 -1.2530  0.6581
    4CHL1    C7  233   4.633   3.578  10.036  1.2132 -0.5728 -0.0716
    4CHL1   H7A  234   4.740   3.574  10.006  1.0363  0.2953 -0.8666
    4CHL1   H7B  235   4.599   3.474  10.021  0.0270  0.1246 -2.6916
    4CHL1    C8  236   4.544   3.683   9.956  0.0429  0.1538 -0.2110
    4CHL1    H8  237   4.599   3.779   9.951  1.4047 -0.6069 -0.4094
    4CHL1   C14  238   4.537   3.634   9.807  0.7608  0.7767  0.8137
    4CHL1   H14  239   4.483   3.537   9.816 -0.1819  1.0533 -1.3779
    4CHL1   C15  240   4.665   3.600   9.734  0.1528  0.2547 -0.2831
    4CHL1  H15A  241   4.738   3.675   9.770  0.0497  0.0236  0.4166
    4CHL1  H15B  242   4.684   3.493   9.760 -0.5788  0.3102  0.5270
    4CHL1   C16  243   4.627   3.613   9.582 -0.9724 -0.6900 -1.1670
    4CHL1  H16A  244   4.703   3.678   9.535 -2.0581  0.7523 -0.9755
    4CHL1  H16B  245   4.635   3.509   9.542 -1.6239 -1.0974 -0.2705
    4CHL1   C17  246   4.487   3.677   9.581 -0.5779  0.3286 -0.0443
    4CHL1   H17  247   4.407   3.600   9.568 -1.5108  0.9903  1.4206
    4CHL1   C13  248   4.466   3.739   9.721  0.8331  0.0078  0.8521
    4CHL1   C18  249   4.522   3.882   9.726  0.3266  0.4275 -0.0470
    4CHL1  H18A  250   4.629   3.867   9.702 -0.1459 -3.2741 -0.5123
    4CHL1  H18B  251   4.477   3.951   9.652 -0.9398 -0.6764 -0.3525
    4CHL1  H18C  252   4.515   3.932   9.825  1.5882  1.1950 -0.3261
    4CHL1   C12  253   4.318   3.735   9.767 -0.7053  0.9795 -0.8159
    4CHL1  H12A  254   4.245   3.798   9.712 -1.4132  0.7946 -0.0989
    4CHL1  H12B  255   4.276   3.632   9.760 -0.1130  0.7805 -1.5777
    4CHL1   C11  256   4.310   3.784   9.911  0.2409  0.6227 -0.3850
    4CHL1  H11A  257   4.336   3.892   9.912  1.2908  0.4563  2.7311
    4CHL1  H11B  258   4.206   3.780   9.950  0.0554 -0.9220 -0.9880
    4CHL1    C9  259   4.407   3.706  10.013  0.3419  0.3990 -0.4123
    4CHL1    H9  260   4.362   3.605  10.023  3.1705 -1.0076 -0.8672
    4CHL1   C10  261   4.411   3.760  10.155  0.2236  0.7739 -0.2505
    4CHL1   C19  262   4.424   3.916  10.141  0.1520 -0.0647  0.3566
    4CHL1  H19A  263   4.445   3.979  10.229 -0.5993  1.8498 -0.7659
    4CHL1  H19B  264   4.496   3.935  10.058  1.3039  0.3393  1.4256
    4CHL1  H19C  265   4.326   3.961  10.114  0.1813 -1.2432 -1.9378
    4CHL1    C1  266   4.279   3.730  10.229 -0.9316  0.7423  0.4684
    4CHL1   H1A  267   4.196   3.774  10.169  0.3679  1.0311 -1.1902
    4CHL1   H1B  268   4.257   3.621  10.230  1.3789  0.1972 -0.4865
    4CHL1    C2  269   4.275   3.779  10.370 -0.7972  0.3536 -0.7503
    4CHL1   H2A  270   4.192   3.727  10.422  1.0750  0.6512  2.8621
    4CHL1   H2B  271   4.279   3.889  10.388  0.0991  0.3721 -0.9923
    4CHL1   C20  272   4.476   3.766   9.454  0.2912 -0.3799 -0.0524
    4CHL1   H20  273   4.549   3.850   9.467 -0.3440  0.1439  0.1906
    4CHL1   C21  274   4.333   3.812   9.445 -0.0807  0.1749 -0.1026
    4CHL1  H21A  275   4.264   3.727   9.463  1.6619 -1.5187 -1.0343
    4CHL1  H21B  276   4.307   3.857   9.346 -1.3795  2.7373  1.3004
    4CHL1  H21C  277   4.316   3.883   9.529 -0.4183 -0.5778  0.4704
    4CHL1   C22  278   4.507   3.691   9.322  0.0773 -0.2240 -0.2765
    4CHL1  H22A  279   4.598   3.628   9.333 -0.1028 -0.6595 -1.1874
    4CHL1  H22B  280   4.427   3.614   9.311  0.5337 -0.6656 -0.5714
    4CHL1   C23  281   4.519   3.785   9.202  0.2470  0.0185 -0.5232
    4CHL1  H23A  282   4.439   3.861   9.189  0.9840  1.4743  2.5499
    4CHL1  H23B  283   4.596   3.862   9.221  0.3903 -0.3823  0.5930
    4CHL1   C24  284   4.539   3.710   9.069  0.0825  0.4147 -0.3349
    4CHL1  H24A  285   4.635   3.655   9.070  1.6084  2.9133  0.5453
    4CHL1  H24B  286   4.449   3.646   9.055 -0.7396  1.5184 -0.3119
    4CHL1   C25  287   4.554   3.802   8.947 -0.2224  0.1715 -0.0210
    4CHL1   H25  288   4.629   3.881   8.971  0.6447 -1.3860  2.9552
    4CHL1   C26  289   4.617   3.728   8.828  0.0915  0.0096  0.5581
    4CHL1  H26A  290   4.687   3.644   8.850  0.7270  0.5465  0.6182
    4CHL1  H26B  291   4.534   3.687   8.767 -0.2296 -1.1903  1.7522
    4CHL1  H26C  292   4.678   3.803   8.773  0.0528 -0.1287  0.3283
    4CHL1   C27  293   4.425   3.870   8.909  0.3047 -0.1554  0.7165
    4CHL1  H27A  294   4.367   3.929   8.983 -1.4437 -0.1763 -0.5714
    4CHL1  H27B  295   4.453   3.940   8.828  3.0784  0.7269  2.3105
    4CHL1  H27C  296   4.363   3.787   8.869  2.3854 -1.4618  0.0263
    5CHL1    C3  297   4.627   5.330  10.371 -1.0150 -1.5356  0.3287
    5CHL1    H3  298   4.696   5.243  10.375  0.3433 -0.5060  0.0434
    5CHL1    O3  299   4.613   5.382  10.503 -0.7167  0.2905  0.0785
    5CHL1   H3'  300   4.532   5.433  10.495 -1.9611 -1.2473  1.9849
    5CHL1    C4  301   4.673   5.434  10.276  0.0337 -0.4888  0.8485
    5CHL1   H4A  302   4.598   5.515  10.263 -0.6813 -1.1480  0.8267
    5CHL1   H4B  303   4.770   5.474  10.312 -0.4803  1.1449  0.5316
    5CHL1    C5  304   4.698   5.364  10.139 -0.0884  0.4812  0.2635
    5CHL1    C6  305   4.818   5.363  10.078  0.6654  0.2075 -0.1249
    5CHL1    H6  306   4.894   5.423  10.130 -2.8724  3.7090  1.5140
    5CHL1    C7  307   4.841   5.300   9.946 -0.2480 -0.6618  0.3328
    5CHL1   H7A  308   4.889   5.371   9.877 -0.4831 -1.3687 -0.5811
    5CHL1   H7B  309   4.912   5.215   9.952 -1.6092 -2.0806 -2.2580
    5CHL1    C8  310   4.708   5.259   9.878 -0.3018  0.3112 -0.2200
    5CHL1    H8  311   4.648   5.340   9.830  1.0318  0.9723 -0.8033
    5CHL1   C14  312   4.743   5.166   9.756 -0.5850  0.6785 -0.1656
    5CHL1   H14  313   4.794   5.076   9.795 -0.2318  1.4931  1.3338
    5CHL1   C15  314   4.833   5.224   9.643  0.1470 -1.3174  0.2085
    5CHL1  H15A  315   4.795   5.328   9.629  0.2036 -0.7357  3.4877
    5CHL1  H15B  316   4.934   5.224   9.689  0.0894  0.6420  0.3984
    5CHL1   C16  317   4.802   5.132   9.521  0.3812 -0.2288 -0.0434
    5CHL1  H16A  318   4.765   5.200   9.441  2.0090 -1.6959 -2.1454
    5CHL1  H16B  319   4.892   5.083   9.480  1.4825  1.4498  0.2737
    5CHL1   C17  320   4.684   5.039   9.565 -0.8771  0.0777  0.7655
    5CHL1   H17  321   4.725   4.943   9.603  0.1384 -0.6443 -1.9260
    5CHL1   C13  322   4.619   5.102   9.687  0.6647  0.3506  0.1543
    5CHL1   C18  323   4.522   5.216   9.638  0.0086 -0.2622  0.7218
    5CHL1  H18A  324   4.492   5.292   9.713  0.9615  0.9195 -0.0580
    5CHL1  H18B  325   4.555   5.273   9.548 -1.2507  2.5855  1.9407
    5CHL1  H18C  326   4.431   5.163   9.602 -1.0948  2.0959 -0.1958
    5CHL1   C12  327   4.548   5.009   9.796 -0.2221 -0.4991  0.4212
    5CHL1  H12A  328   4.462   4.962   9.742 -0.6410  1.2715 -0.5441
    5CHL1  H12B  329   4.621   4.929   9.822  0.3596  0.3570  1.4990
    5CHL1   C11  330   4.501   5.092   9.915  0.0147 -0.1628 -0.3922
    5CHL1  H11A  331   4.426   5.155   9.862  0.1992 -0.8664 -1.5127
    5CHL1  H11B  332   4.452   5.022   9.986  0.8719  0.4653  0.8432
    5CHL1    C9  333   4.615   5.175   9.981 -0.9365 -0.0236  0.2043
    5CHL1    H9  334   4.686   5.100  10.022  0.0670  1.0747  0.5378
    5CHL1   C10  335   4.576   5.281  10.086  1.0138  0.0805 -0.3396
    5CHL1   C19  336   4.471   5.381  10.038 -0.3996 -0.0618  0.0173
    5CHL1  H19A  337   4.444   5.446  10.124 -1.2371  0.4939 -0.6539
    5CHL1  H19B  338   4.514   5.437   9.953 -1.6361 -0.9348 -1.2246
    5CHL1  H19C  339   4.384   5.332   9.990 -0.7042 -0.2210  0.7103
    5CHL1    C1  340   4.518   5.189  10.196 -0.3517  0.1748 -0.5234
    5CHL1   H1A  341   4.419   5.149  10.164  0.9104 -2.0297 -1.8765
    5CHL1   H1B  342   4.579   5.099  10.217  0.1661  0.8060  0.8093
    5CHL1    C2  343   4.495   5.264  10.325 -0.9034 -0.1630 -0.4644
    5CHL1   H2A  344   4.464   5.189  10.401  1.8476  1.9121  3.0479
    5CHL1   H2B  345   4.415   5.340  10.317 -1.9697 -1.1995  0.0800
    5CHL1   C20  346   4.600   4.989   9.439 -0.1487  0.5183 -0.0508
    5CHL1   H20  347   4.544   5.081   9.411 -0.1154  0.9421  1.2153
    5CHL1   C21  348   4.498   4.871   9.467 -0.1868 -0.2038 -0.5962
    5CHL1  H21A  349   4.421   4.900   9.542  0.1403  1.2244 -0.7827
    5CHL1  H21B  350   4.550   4.780   9.505 -0.3649 -0.6558 -1.4165
    5CHL1  H21C  351   4.444   4.834   9.378  0.9632  0.0444 -1.4092
    5CHL1   C22  352   4.696   4.960   9.321 -0.5562 -0.3147  0.6643
    5CHL1  H22A  353   4.712   5.052   9.261 -1.2813 -0.5906  0.0404
    5CHL1  H22B  354   4.793   4.929   9.365 -1.2824 -2.9540  0.5604
    5CHL1   C23  355   4.654   4.860   9.211  0.7273 -0.0615 -0.4398
    5CHL1  H23A  356   4.636   4.769   9.272  0.3520  0.7502  0.7007
    5CHL1  H23B  357   4.554   4.888   9.171 -0.2937  0.0685  2.0609
    5CHL1   C24  358   4.750   4.845   9.096 -0.6939  0.1253  0.3963
    5CHL1  H24A  359   4.737   4.939   9.038 -0.6206  0.2476  0.5773
    5CHL1  H24B  360   4.853   4.830   9.135 -0.6409 -0.3969  0.0640
    5CHL1   C25  361   4.721   4.720   9.010  0.6818 -0.7319  0.3298
    5CHL1   H25  362   4.613   4.728   8.985 -0.0900 -0.1913  3.4747
    5CHL1   C26  363   4.794   4.722   8.880 -0.8673  0.4910  0.8213
    5CHL1  H26A  364   4.782   4.817   8.824  3.3442  1.4883  1.2727
    5CHL1  H26B  365   4.902   4.717   8.905 -0.0250  0.6736 -2.3911
    5CHL1  H26C  366   4.765   4.630   8.824 -0.9722 -0.2625  2.0677
    5CHL1   C27  367   4.742   4.582   9.078 -0.5363 -0.1442 -0.3399
    5CHL1  H27A  368   4.765   4.510   8.996  0.8840 -0.3999  0.2469
    5CHL1  H27B  369   4.820   4.605   9.154  0.6682 -0.6474 -1.3887
    5CHL1  H27C  370   4.653   4.537   9.125 -0.6831  0.4915 -0.0017
    6CHL1    C3  371   3.327   6.247  10.425 -0.4650  0.8923 -0.6479
    6CHL1    H3  372   3.257   6.173  10.382  0.3845 -0.2666 -0.1216
    6CHL1    O3  373   3.335   6.220  10.568  0.6305 -0.0753  0.3803
    6CHL1   H3'  374   3.391   6.293  10.596  1.1841 -0.9779  1.7415
    6CHL1    C4  375   3.469   6.228  10.362  0.1705 -0.4097  0.3244
    6CHL1   H4A  376   3.545   6.282  10.421 -1.0949  1.1626  0.5863
    6CHL1   H4B  377   3.499   6.122  10.374  2.0906 -0.0405 -0.8322
    6CHL1    C5  378   3.463   6.256  10.213  0.4510 -0.2293 -0.0149
    6CHL1    C6  379   3.497   6.164  10.122 -0.0532  0.0988  0.1531
    6CHL1    H6  380   3.537   6.070  10.163 -1.8568 -0.9666 -0.4101
    6CHL1    C7  381   3.496   6.194   9.972  0.4063 -0.3537 -0.3003
    6CHL1   H7A  382   3.590   6.160   9.923  0.3184  1.2403 -1.6476
    6CHL1   H7B  383   3.414   6.145   9.916 -0.0509  0.3657 -0.2710
    6CHL1    C8  384   3.482   6.348   9.945  0.6889  0.5680  0.1830
    6CHL1    H8  385   3.575   6.398   9.978  0.1949  1.4772  0.2133
    6CHL1   C14  386   3.457   6.369   9.796 -0.7073 -0.7018 -0.2728
    6CHL1   H14  387   3.361   6.321   9.768  0.1432 -3.8568  1.7198
    6CHL1   C15  388   3.567   6.310   9.705 -0.3054  0.4446 -0.1947
    6CHL1  H15A  389   3.660   6.315   9.766 -1.2941  2.0297  1.2691
    6CHL1  H15B  390   3.547   6.202   9.692 -1.5374  0.7427 -0.9796
    6CHL1   C16  391   3.558   6.388   9.576  0.0145  0.2049  0.0861
    6CHL1  H16A  392   3.658   6.433   9.561 -0.1381  1.6800  2.8799
    6CHL1  H16B  393   3.514   6.333   9.490  1.6798  0.7543 -1.1822
    6CHL1   C17  394   3.443   6.493   9.598 -0.1113 -0.0108 -0.1534
    6CHL1   H17  395   3.352   6.434   9.573  1.1545 -3.1594  2.0646
    6CHL1   C13  396   3.436   6.514   9.753 -0.5956  0.3993 -0.2998
    6CHL1   C18  397   3.561   6.605   9.790  0.4149  0.0006 -0.6168
    6CHL1  H18A  398   3.543   6.707   9.751 -2.2882 -0.4914 -0.8035
    6CHL1  H18B  399   3.576   6.613   9.900 -0.0439 -1.4607 -0.4179
    6CHL1  H18C  400   3.653   6.558   9.748  0.5364  0.9650 -1.4718
    6CHL1   C12  401   3.309   6.563   9.823 -0.0060  0.4345  0.7352
    6CHL1  H12A  402   3.277   6.664   9.788 -0.2912 -0.0268 -0.3762
    6CHL1  H12B  403   3.235   6.493   9.779 -0.6420  1.9598 -0.7773
    6CHL1   C11  404   3.314   6.552   9.975 -0.1224 -0.0832  0.4484
    6CHL1  H11A  405   3.379   6.633  10.016 -2.1063  2.0747 -0.4415
    6CHL1  H11B  406   3.213   6.565  10.020 -1.1157 -2.9334 -0.7466
    6CHL1    C9  407   3.368   6.410  10.023  0.5090 -0.8649  0.5595
    6CHL1    H9  408   3.281   6.343  10.006 -0.5746  0.5237  0.3788
    6CHL1   C10  409   3.398   6.394  10.170 -0.3521 -0.6427 -0.6607
    6CHL1   C19  410   3.493   6.515  10.209 -0.2482  0.0358  0.3114
    6CHL1  H19A  411   3.430   6.606  10.217 -0.1565  0.1048  0.2482
    6CHL1  H19B  412   3.540   6.512  10.309 -0.2012 -2.1348  0.2679
    6CHL1  H19C  413   3.571   6.520  10.130 -0.1549 -1.2110  0.3008
    6CHL1    C1  414   3.260   6.405  10.244  0.1081 -0.3667  0.5675
    6CHL1   H1A  415   3.207   6.502  10.236 -0.3336 -0.3291  2.9881
    6CHL1   H1B  416   3.189   6.330  10.202 -1.2364  1.4278 -0.4741
    6CHL1    C2  417   3.270   6.385  10.396  0.3178  0.4602  0.0370
    6CHL1   H2A  418   3.165   6.389  10.431  0.6323 -0.6352  1.1887
    6CHL1   H2B  419   3.329   6.455  10.458  0.7147 -0.3492  0.5976
    6CHL1   C20  420   3.456   6.607   9.512  0.4766 -0.2897  1.2655
    6CHL1   H20  421   3.555   6.654   9.530  0.8110 -1.3307  2.2603
    6CHL1   C21  422   3.358   6.721   9.535  0.5074 -0.4145 -0.1487
    6CHL1  H21A  423   3.374   6.766   9.636  1.2761  0.9649 -0.8580
    6CHL1  H21B  424   3.256   6.676   9.533  0.0853  0.4344 -3.1649
    6CHL1  H21C  425   3.354   6.803   9.460  2.6621  0.4980  0.6620
    6CHL1   C22  426   3.450   6.556   9.363 -0.3585 -0.4694 -0.5042
    6CHL1  H22A  427   3.543   6.498   9.344  1.1815  0.6118  2.9692
    6CHL1  H22B  428   3.362   6.489   9.351 -0.3390 -0.3916 -1.0895
    6CHL1   C23  429   3.438   6.667   9.256 -0.3329  0.2038 -0.4330
    6CHL1  H23A  430   3.339   6.717   9.249  0.2726  1.4993 -0.0399
    6CHL1  H23B  431   3.519   6.743   9.262  0.6860 -0.9059  0.2357
    6CHL1   C24  432   3.457   6.601   9.119  0.2770  0.4719 -0.3940
    6CHL1  H24A  433   3.547   6.535   9.126  2.0837  2.9394  1.1872
    6CHL1  H24B  434   3.366   6.537   9.113  0.5864  0.0049 -0.1598
    6CHL1   C25  435   3.449   6.703   9.008  0.3992 -0.2424 -0.4046
    6CHL1   H25  436   3.525   6.781   9.029 -0.0804  0.3794 -0.9151
    6CHL1   C26  437   3.477   6.638   8.877 -0.2797  0.0995  0.7493
    6CHL1  H26A  438   3.580   6.596   8.884 -0.5746 -0.6354  0.8013
    6CHL1  H26B  439   3.398   6.562   8.858 -0.6484 -0.1412  3.0018
    6CHL1  H26C  440   3.466   6.710   8.793  0.0187  0.8852  1.3716
    6CHL1   C27  441   3.313   6.779   9.001  0.4744  0.0207 -0.1046
    6CHL1  H27A  442   3.238   6.719   8.945 -0.2938  3.0465 -2.5268
    6CHL1  H27B  443   3.272   6.818   9.097  1.2353 -1.5121  0.9008
    6CHL1  H27C  444   3.326   6.865   8.932  3.1989 -0.2338  0.0010
    7CHL1    C3  445   2.706   2.781  10.386  0.7038  0.2877 -0.0974
    7CHL1    H3  446   2.680   2.674  10.370 -1.2076  0.7835 -0.5481
    7CHL1    O3  447   2.716   2.794  10.531 -0.4842  0.1522  0.0569
    7CHL1   H3'  448   2.733   2.888  10.537 -3.0467  0.6620  0.6920
    7CHL1    C4  449   2.845   2.807  10.308 -0.1939  0.1831  0.2968
    7CHL1   H4A  450   2.900   2.896  10.347  0.4941 -0.8057  1.6903
    7CHL1   H4B  451   2.912   2.729  10.349 -0.2899  0.9380  1.9793
    7CHL1    C5  452   2.840   2.814  10.161  0.2399  0.0977  0.1033
    7CHL1    C6  453   2.916   2.734  10.089  0.1636 -0.2779  0.3571
    7CHL1    H6  454   2.989   2.665  10.134 -0.0647 -1.4371 -0.9592
    7CHL1    C7  455   2.911   2.733   9.936 -0.0005 -0.1672  0.6813
    7CHL1   H7A  456   3.014   2.750   9.899 -0.1587  2.9353  1.3624
    7CHL1   H7B  457   2.871   2.637   9.900  1.1468  0.0850 -1.4513
    7CHL1    C8  458   2.832   2.854   9.868 -0.2715 -0.5440 -0.0761
    7CHL1    H8  459   2.889   2.950   9.868 -1.9153  0.4998  1.9180
    7CHL1   C14  460   2.786   2.820   9.738  0.8015  0.6534  0.4655
    7CHL1   H14  461   2.722   2.730   9.745 -0.1789  0.9287 -2.8864
    7CHL1   C15  462   2.896   2.776   9.644  0.7254  0.1619 -0.0108
    7CHL1  H15A  463   2.981   2.846   9.658 -1.1818  2.7116 -0.5072
    7CHL1  H15B  464   2.928   2.674   9.675  3.1851  1.3512  1.6544
    7CHL1   C16  465   2.835   2.791   9.503  0.0989 -0.2424 -0.6752
    7CHL1  H16A  466   2.910   2.856   9.455 -1.0604  2.3776  0.8414
    7CHL1  H16B  467   2.840   2.707   9.430 -0.3278  0.3979 -1.4464
    7CHL1   C17  468   2.700   2.857   9.516  0.3639 -0.0639  0.3457
    7CHL1   H17  469   2.624   2.779   9.537  1.2285 -0.7138  1.1360
    7CHL1   C13  470   2.709   2.924   9.656  0.6308 -0.0073  0.0115
    7CHL1   C18  471   2.778   3.054   9.640  0.0903  0.0909  0.3720
    7CHL1  H18A  472   2.873   3.042   9.584 -0.7915 -0.6947 -1.0087
    7CHL1  H18B  473   2.713   3.124   9.583 -2.0931 -2.6992 -0.7667
    7CHL1  H18C  474   2.802   3.101   9.738 -0.2986 -1.3598  1.2002
    7CHL1   C12  475   2.575   2.950   9.732 -0.5599 -0.2567  0.2764
    7CHL1  H12A  476   2.508   3.029   9.693 -0.1089  1.1484  2.2144
    7CHL1  H12B  477   2.515   2.856   9.730 -0.4944 -0.2892 -1.8211
    7CHL1   C11  478   2.614   2.988   9.878 -0.3061  1.4667 -0.3088
    7CHL1  H11A  479   2.669   3.084   9.888 -0.3760  1.5810 -0.9472
    7CHL1  H11B  480   2.517   2.988   9.932  0.2722  0.8538  0.7686
    7CHL1    C9  481   2.705   2.881   9.949  0.5961 -0.3712 -0.2378
    7CHL1    H9  482   2.642   2.791   9.942  0.0337 -0.1480  1.4333
    7CHL1   C10  483   2.728   2.903  10.099 -0.1583 -0.4787 -0.3391
    7CHL1   C19  484   2.767   3.057  10.116  0.1679 -0.3269  0.0030
    7CHL1  H19A  485   2.849   3.090  10.049 -0.8258  1.0702 -0.5622
    7CHL1  H19B  486   2.673   3.110  10.090 -0.5162 -1.1533  0.7340
    7CHL1  H19C  487   2.795   3.072  10.222  0.7606 -0.3274 -0.1506
    7CHL1    C1  488   2.596   2.866  10.168  0.7243  0.5109  0.4050
    7CHL1   H1A  489   2.512   2.935  10.141 -0.3346 -0.6919  0.5299
    7CHL1   H1B  490   2.561   2.767  10.132 -0.9344  1.3820 -0.5422
    7CHL1    C2  491   2.605   2.884  10.319 -0.5052  0.5190  0.2013
    7CHL1   H2A  492   2.504   2.873  10.363 -0.6439 -0.0062 -0.2374
    7CHL1   H2B  493   2.645   2.985  10.343 -0.4909  1.0193 -1.7895
    7CHL1   C20  494   2.629   2.934   9.399  0.3538  0.2123 -0.0338
    7CHL1   H20  495   2.580   3.018   9.452 -0.0457 -1.3819  2.2808
    7CHL1   C21  496   2.517   2.844   9.330 -0.0391  0.7979 -0.8334
    7CHL1  H21A  497   2.563   2.751   9.291  0.5630  0.1714  1.2399
    7CHL1  H21B  498   2.465   2.897   9.247 -3.2082  1.1985  1.2173
    7CHL1  H21C  499   2.442   2.816   9.407  0.5883  0.8339 -0.2007
    7CHL1   C22  500   2.731   2.996   9.303 -0.1694  0.2636  0.0774
    7CHL1  H22A  501   2.793   3.074   9.351 -0.5306  1.3943 -1.2200
    7CHL1  H22B  502   2.792   2.912   9.263  0.5046  1.4013 -1.3954
    7CHL1   C23  503   2.668   3.075   9.186  1.2515 -1.0848 -0.4462
    7CHL1  H23A  504   2.615   3.003   9.120  1.3728 -0.9083 -0.7384
    7CHL1  H23B  505   2.609   3.157   9.233  2.1580 -1.2114  0.9575
    7CHL1   C24  506   2.774   3.146   9.090  0.1613 -0.2735  0.6297
    7CHL1  H24A  507   2.837   3.212   9.153  0.8153 -0.6871  0.4089
    7CHL1  H24B  508   2.840   3.069   9.045 -2.9377 -2.2845 -0.8481
    7CHL1   C25  509   2.710   3.220   8.969  0.2580 -0.1243  1.1005
    7CHL1   H25  510   2.645   3.147   8.915 -1.4687  1.9814  0.1826
    7CHL1   C26  511   2.609   3.328   9.017  0.0341  0.7755  0.3681
    7CHL1  H26A  512   2.549   3.361   8.930  0.5081 -1.1679 -0.7819
    7CHL1  H26B  513   2.536   3.296   9.095  0.0639 -2.8305 -0.8670
    7CHL1  H26C  514   2.663   3.414   9.062  1.2951 -1.2532  3.0329
    7CHL1   C27  515   2.811   3.267   8.870 -0.0247  0.6150  0.1274
    7CHL1  H27A  516   2.886   3.191   8.839  0.1780  1.8396 -2.6553
    7CHL1  H27B  517   2.773   3.323   8.782  0.0984  1.5520  0.6541
    7CHL1  H27C  518   2.874   3.338   8.929  3.4137 -1.3845 -0.8800
    8CHL1    C3  519   6.278   5.708  10.440  0.3769  0.1955 -0.5310
    8CHL1    H3  520   6.339   5.800  10.430 -0.7209  0.8798 -1.2233
    8CHL1    O3  521   6.302   5.669  10.574  0.2470 -0.1364 -0.6721
    8CHL1   H3'  522   6.326   5.575  10.573  1.0098  0.0409 -0.4047
    8CHL1    C4  523   6.125   5.732  10.405 -0.6105  0.2254 -0.0174
    8CHL1   H4A  524   6.073   5.637  10.430 -2.6656  1.6992  1.5905
    8CHL1   H4B  525   6.082   5.810  10.471  1.2389  1.7431 -0.5150
    8CHL1    C5  526   6.118   5.767  10.256  0.1989 -0.1342  0.2502
    8CHL1    C6  527   6.050   5.869  10.205 -0.6452 -0.1063 -0.9134
    8CHL1    H6  528   5.990   5.935  10.270 -1.5972 -0.5715 -1.2898
    8CHL1    C7  529   6.029   5.900  10.056 -0.6908  0.1649  0.2097
    8CHL1   H7A  530   5.927   5.930  10.025 -0.4386  1.3437  0.4509
    8CHL1   H7B  531   6.096   5.986  10.031 -1.0892  0.3771 -0.1428
    8CHL1    C8  532   6.065   5.777   9.963  0.2359  0.3893  0.6858
    8CHL1    H8  533   5.989   5.697   9.965  0.6480 -0.0230  0.2128
    8CHL1   C14  534   6.089   5.840   9.820 -0.5784  0.7201 -0.3289
    8CHL1   H14  535   6.174   5.909   9.832  1.0421 -1.5251  2.7041
    8CHL1   C15  536   5.981   5.928   9.755 -0.2083  0.1713 -0.2382
    8CHL1  H15A  537   5.876   5.898   9.772  0.2654 -2.4844 -1.5761
    8CHL1  H15B  538   5.997   6.036   9.776  1.0251 -0.1621  0.6763
    8CHL1   C16  539   6.012   5.920   9.602  0.8825 -0.4954  0.3108
    8CHL1  H16A  540   5.924   5.870   9.556  0.8058 -2.0080  1.9576
    8CHL1  H16B  541   6.027   6.020   9.557 -0.4536 -1.5073 -2.6284
    8CHL1   C17  542   6.138   5.831   9.596 -0.1780  0.1192 -0.3981
    8CHL1   H17  543   6.225   5.898   9.609 -1.3662  1.8034 -0.8368
    8CHL1   C13  544   6.134   5.733   9.718  0.0486  0.1623 -0.3553
    8CHL1   C18  545   6.023   5.623   9.709 -0.3682 -0.0011  0.1731
    8CHL1  H18A  546   5.926   5.667   9.679 -0.1272  0.0946 -0.4849
    8CHL1  H18B  547   6.059   5.550   9.632  0.2991  1.9572 -1.4598
    8CHL1  H18C  548   6.009   5.559   9.798  1.5973 -0.5234  0.1601
    8CHL1   C12  549   6.264   5.662   9.772  0.0135  0.1404  0.0770
    8CHL1  H12A  550   6.295   5.582   9.702 -0.3019  1.2902 -1.4108
    8CHL1  H12B  551   6.350   5.731   9.788 -0.0693 -0.2046  2.4842
    8CHL1   C11  552   6.248   5.613   9.916  0.7832  0.6631 -0.5857
    8CHL1  H11A  553   6.165   5.539   9.912  0.5050  0.7905  1.8448
    8CHL1  H11B  554   6.339   5.569   9.962  0.4002  0.6776  0.1908
    8CHL1    C9  555   6.192   5.717  10.014 -0.7929  0.1209 -0.0010
    8CHL1    H9  556   6.263   5.802  10.018 -1.6607  0.8037  1.8683
    8CHL1   C10  557   6.192   5.665  10.160 -0.0052 -0.1667  0.1224
    8CHL1   C19  558   6.112   5.529  10.167  0.4564  0.2845  0.1514
    8CHL1  H19A  559   6.008   5.543  10.130 -0.5239  0.8260  2.8839
    8CHL1  H19B  560   6.164   5.448  10.111  0.3058 -1.1212  1.9629
    8CHL1  H19C  561   6.100   5.502  10.274  1.0051  3.1127  1.0170
    8CHL1    C1  562   6.333   5.641  10.208 -0.3524 -0.2758  0.6198
    8CHL1   H1A  563   6.393   5.571  10.146 -0.2060 -0.7051  1.2376
    8CHL1   H1B  564   6.398   5.731  10.198 -1.2413  0.4466  1.1686
    8CHL1    C2  565   6.348   5.605  10.351 -0.0677  0.2297 -0.1207
    8CHL1   H2A  566   6.451   5.588  10.387  0.2207  0.9634 -0.5810
    8CHL1   H2B  567   6.286   5.514  10.366 -0.2943  0.7289  2.4727
    8CHL1   C20  568   6.170   5.776   9.455  0.0451  0.1547  0.1076
    8CHL1   H20  569   6.112   5.682   9.448  2.0256 -1.3167  1.9728
    8CHL1   C21  570   6.321   5.746   9.452 -0.2503 -0.2076 -0.2611
    8CHL1  H21A  571   6.377   5.842   9.449  0.6533 -0.6504  1.3673
    8CHL1  H21B  572   6.342   5.674   9.370 -4.1173 -1.7624 -0.1070
    8CHL1  H21C  573   6.342   5.693   9.547 -1.4054 -2.3252 -1.1120
    8CHL1   C22  574   6.129   5.873   9.338 -0.1696 -0.3841 -0.5222
    8CHL1  H22A  575   6.022   5.902   9.346  0.4059  2.0844 -0.9241
    8CHL1  H22B  576   6.184   5.970   9.338  0.2310 -0.6109 -0.0977
    8CHL1   C23  577   6.148   5.809   9.209 -0.2174  0.6819 -0.1109
    8CHL1  H23A  578   6.255   5.784   9.192 -0.4299 -1.3276  1.1542
    8CHL1  H23B  579   6.091   5.714   9.203 -0.6924  0.9959 -0.7671
    8CHL1   C24  580   6.103   5.893   9.088 -0.5357  0.1075 -1.2355
    8CHL1  H24A  581   5.998   5.916   9.116 -0.7796 -3.0897  1.0564
    8CHL1  H24B  582   6.166   5.982   9.108 -0.3807 -0.0673 -0.9339
    8CHL1   C25  583   6.128   5.837   8.949 -0.9944 -0.0628  0.4000
    8CHL1   H25  584   6.058   5.750   8.943 -3.2315  1.6121  0.9814
    8CHL1   C26  585   6.081   5.936   8.836 -0.6566 -0.1079  0.3752
    8CHL1  H26A  586   6.097   5.877   8.743  0.6496 -1.4939  1.4245
    8CHL1  H26B  587   5.975   5.963   8.851 -0.4696  0.1083  1.4664
    8CHL1  H26C  588   6.142   6.029   8.828  0.0239 -0.6876 -1.8621
    8CHL1   C27  589   6.279   5.789   8.936  0.0587  0.1814 -0.6941
    8CHL1  H27A  590   6.321   5.741   9.027 -0.0081  4.1356  1.6945
    8CHL1  H27B  591   6.303   5.728   8.847  2.0682 -1.0782  0.6192
    8CHL1  H27C  592   6.339   5.883   8.936 -0.0558  0.2590 -0.2474
    9CHL1    C3  593   2.115   1.684  10.267  0.3290 -0.5511  0.0037
    9CHL1    H3  594   2.128   1.574  10.260 -1.9477 -0.9083  0.5546
    9CHL1    O3  595   2.101   1.726  10.405  0.2369  0.1110  0.1619
    9CHL1   H3'  596   2.070   1.816  10.393 -0.4152 -0.4094 -2.7825
    9CHL1    C4  597   2.242   1.748  10.209 -0.5022 -0.1221  0.2175
    9CHL1   H4A  598   2.235   1.857  10.230  0.4992  0.1447 -0.7161
    9CHL1   H4B  599   2.326   1.701  10.266  0.7689  2.3491  0.5381
    9CHL1    C5  600   2.257   1.732  10.055 -0.0490 -0.1989 -1.1732
    9CHL1    C6  601   2.365   1.674  10.000  1.3609  0.5278 -0.2135
    9CHL1    H6  602   2.440   1.637  10.071 -0.0869  1.2413  1.7754
    9CHL1    C7  603   2.390   1.676   9.849 -0.6372 -0.7201  0.1926
    9CHL1   H7A  604   2.487   1.719   9.815 -1.4154 -0.6657 -2.1228
    9CHL1   H7B  605   2.392   1.573   9.808  0.7758 -0.7124  0.1825
    9CHL1    C8  606   2.286   1.753   9.767  0.3985 -0.6853  0.3028
    9CHL1    H8  607   2.308   1.862   9.764 -0.7185 -0.4438  0.5731
    9CHL1   C14  608   2.286   1.704   9.622  0.6189 -0.3713 -0.6563
    9CHL1   H14  609   2.249   1.600   9.633  1.7844 -0.7843 -0.4958
    9CHL1   C15  610   2.422   1.711   9.545 -1.2349  0.1722 -0.2454
    9CHL1  H15A  611   2.466   1.810   9.569  1.3446 -0.8521 -0.4508
    9CHL1  H15B  612   2.501   1.646   9.589 -0.7680 -0.3765 -1.8328
    9CHL1   C16  613   2.381   1.699   9.393  0.0605 -0.1152 -0.8986
    9CHL1  H16A  614   2.429   1.775   9.327 -1.2374 -0.7034 -2.6008
    9CHL1  H16B  615   2.411   1.598   9.358 -1.1266 -0.4786 -0.9272
    9CHL1   C17  616   2.225   1.705   9.388 -0.5462 -0.4566  0.0423
    9CHL1   H17  617   2.192   1.600   9.401  1.1875 -0.9242  0.9721
    9CHL1   C13  618   2.182   1.771   9.525  0.7773  0.0143 -0.2061
    9CHL1   C18  619   2.205   1.923   9.523  0.2759  0.0453  0.1926
    9CHL1  H18A  620   2.132   1.962   9.449 -0.7819 -1.0221  0.6541
    9CHL1  H18B  621   2.203   1.969   9.624 -0.9702 -1.2598  0.7960
    9CHL1  H18C  622   2.305   1.949   9.481 -0.2787  2.0027 -0.0138
    9CHL1   C12  623   2.041   1.739   9.583 -0.5968  0.2263  0.6638
    9CHL1  H12A  624   1.959   1.789   9.526 -0.6636  0.0273  0.5826
    9CHL1  H12B  625   2.028   1.629   9.575 -0.7468  0.1172  2.1640
    9CHL1   C11  626   2.037   1.775   9.732  0.3431  0.1980  0.3283
    9CHL1  H11A  627   2.023   1.884   9.744 -0.8327  0.0589  0.3539
    9CHL1  H11B  628   1.937   1.732   9.756  0.0114 -0.0473 -1.3466
    9CHL1    C9  629   2.146   1.734   9.826 -0.4845 -0.6615  0.4629
    9CHL1    H9  630   2.132   1.624   9.836  1.5121 -1.0859 -0.7872
    9CHL1   C10  631   2.140   1.784   9.974 -0.1793 -0.5571 -0.5150
    9CHL1   C19  632   2.133   1.938   9.988 -0.8216  0.0378  0.2561
    9CHL1  H19A  633   2.228   1.985   9.954 -0.2215 -2.3136 -1.5830
    9CHL1  H19B  634   2.047   1.975   9.930 -2.5319  0.1317  2.7141
    9CHL1  H19C  635   2.120   1.973  10.093 -0.1172  0.9438  0.0484
    9CHL1    C1  636   2.007   1.726  10.037  0.0666  0.4582 -0.5349
    9CHL1   H1A  637   1.922   1.782   9.991  0.6414  0.3442 -1.7583
    9CHL1   H1B  638   1.999   1.618  10.012  3.4178 -0.0114  0.0622
    9CHL1    C2  639   1.995   1.730  10.191  0.3253  0.2220 -0.1690
    9CHL1   H2A  640   1.923   1.650  10.216  1.2336 -0.4520  0.3209
    9CHL1   H2B  641   1.964   1.834  10.215  1.8729  0.8840 -0.9086
    9CHL1   C20  642   2.163   1.757   9.256  0.1023  0.3636 -0.4457
    9CHL1   H20  643   2.134   1.864   9.260  0.0856  0.4155 -1.7732
    9CHL1   C21  644   2.032   1.674   9.246 -0.6062 -0.1438 -0.2027
    9CHL1  H21A  645   2.051   1.571   9.209 -1.4417 -0.2782 -0.2974
    9CHL1  H21B  646   1.975   1.720   9.161 -0.9585 -0.0561  0.0775
    9CHL1  H21C  647   1.958   1.659   9.327 -1.3420  0.8551 -0.6564
    9CHL1   C22  648   2.257   1.748   9.137  0.1459 -0.1583 -0.0614
    9CHL1  H22A  649   2.348   1.808   9.162 -1.9678  2.6668  1.4927
    9CHL1  H22B  650   2.280   1.642   9.116 -1.2461 -0.1473 -1.8492
    9CHL1   C23  651   2.187   1.812   9.016  0.0469 -0.5981 -0.0100
    9CHL1  H23A  652   2.094   1.753   8.999  0.7847 -2.2475  1.3137
    9CHL1  H23B  653   2.173   1.918   9.045  0.9139 -0.0924 -1.3709
    9CHL1   C24  654   2.288   1.834   8.895 -0.1089  0.6831  0.2036
    9CHL1  H24A  655   2.380   1.874   8.942  0.2046  1.2121 -0.8510
    9CHL1  H24B  656   2.315   1.734   8.857  1.4880  1.1366  0.0962
    9CHL1   C25  657   2.224   1.925   8.792 -0.0062 -0.7214  0.3111
    9CHL1   H25  658   2.114   1.929   8.807 -0.1974 -0.0693 -1.0730
    9CHL1   C26  659   2.287   2.070   8.790  0.0873  0.6326  0.0618
    9CHL1  H26A  660   2.239   2.138   8.716  2.1149 -0.3076 -2.2342
    9CHL1  H26B  661   2.269   2.120   8.888 -1.6378 -0.3572  0.2946
    9CHL1  H26C  662   2.392   2.072   8.755  0.8760  0.0723  2.2286
    9CHL1   C27  663   2.245   1.857   8.654 -0.3435 -0.0002 -0.1043
    9CHL1  H27A  664   2.186   1.764   8.637 -1.4992  0.4014  1.5381
    9CHL1  H27B  665   2.214   1.934   8.580  0.8899  0.3819 -0.2379
    9CHL1  H27C  666   2.354   1.840   8.640 -0.1328  1.8631 -1.1175
   10CHL1    C3  667   1.986   5.840  10.346 -0.6052  0.0120 -0.0620
   10CHL1    H3  668   1.921   5.929  10.364 -0.2328 -0.2069  3.0712
   10CHL1    O3  669   2.019   5.779  10.467 -0.2904  0.0788 -0.2952
   10CHL1   H3'  670   1.933   5.770  10.509  0.3553  3.4779  2.1318
   10CHL1    C4  671   1.898   5.739  10.267 -0.0462  0.3905  0.1251
   10CHL1   H4A  672   1.938   5.636  10.269 -3.7974 -1.4093 -3.0993
   10CHL1   H4B  673   1.799   5.748  10.317  0.3645  1.0046  0.8586
   10CHL1    C5  674   1.871   5.771  10.124 -0.6046 -0.6143  0.5182
   10CHL1    C6  675   1.748   5.808  10.080 -0.1038  0.6538  0.5857
   10CHL1    H6  676   1.667   5.783  10.150 -0.8555  0.7084 -0.2492
   10CHL1    C7  677   1.720   5.829   9.934 -0.2465 -1.0922 -0.1425
   10CHL1   H7A  678   1.629   5.773   9.902  0.0645 -2.2163  0.8611
   10CHL1   H7B  679   1.707   5.938   9.917 -1.7505 -1.1159  0.6792
   10CHL1    C8  680   1.836   5.808   9.840  0.5389 -0.2396  0.5475
   10CHL1    H8  681   1.853   5.700   9.822 -1.0815 -0.3556 -0.4293
   10CHL1   C14  682   1.805   5.878   9.704  0.3611 -0.6337 -0.0382
   10CHL1   H14  683   1.766   5.979   9.728 -1.4317 -0.6933 -2.3699
   10CHL1   C15  684   1.686   5.831   9.615  0.3152  1.2500  0.3490
   10CHL1  H15A  685   1.683   5.722   9.598 -5.8850  1.0237  0.4877
   10CHL1  H15B  686   1.592   5.855   9.669 -0.7733  0.1452 -0.9840
   10CHL1   C16  687   1.710   5.898   9.483  0.2304 -0.6242  0.1049
   10CHL1  H16A  688   1.726   5.830   9.397  0.2906  1.4328 -1.5759
   10CHL1  H16B  689   1.630   5.972   9.465  0.9740  0.3926  0.8823
   10CHL1   C17  690   1.840   5.980   9.496  0.4077 -0.0117 -0.0073
   10CHL1   H17  691   1.803   6.071   9.548 -1.2009 -0.6927  0.0974
   10CHL1   C13  692   1.916   5.903   9.597 -0.4790  0.0411 -0.3074
   10CHL1   C18  693   1.969   5.769   9.549 -0.1925  0.4984 -0.5004
   10CHL1  H18A  694   1.906   5.706   9.483  1.0328 -0.0099 -1.2368
   10CHL1  H18B  695   2.072   5.782   9.509 -0.6410  1.3344 -1.4103
   10CHL1  H18C  696   1.989   5.710   9.641 -0.8481  0.7257 -0.2085
   10CHL1   C12  697   2.030   5.978   9.677 -0.4409  1.0669 -0.3531
   10CHL1  H12A  698   2.110   5.998   9.602  0.8255 -0.3172  0.5875
   10CHL1  H12B  699   2.000   6.077   9.718 -3.4188 -0.0567  0.4783
   10CHL1   C11  700   2.076   5.898   9.804  0.5114  0.5538  0.0224
   10CHL1  H11A  701   2.128   5.804   9.775  2.0773  2.3959 -3.8987
   10CHL1  H11B  702   2.150   5.957   9.862 -0.3060  1.2325  0.4078
   10CHL1    C9  703   1.962   5.866   9.905 -0.3292  0.8897 -0.4329
   10CHL1    H9  704   1.938   5.971   9.933 -1.0931  0.2047  1.6443
   10CHL1   C10  705   2.002   5.792  10.041  0.0961 -0.7839  0.8719
   10CHL1   C19  706   2.065   5.656  10.006 -0.0895  0.6429 -0.5656
   10CHL1  H19A  707   2.093   5.589  10.091  2.3858  3.9406  1.4838
   10CHL1  H19B  708   1.989   5.595   9.953 -1.5534 -0.0827  2.1584
   10CHL1  H19C  709   2.161   5.672   9.953 -0.5867  0.7612 -1.4590
   10CHL1    C1  710   2.100   5.888  10.129  0.0342 -0.1307 -0.0837
   10CHL1   H1A  711   2.203   5.884  10.088  0.3952 -2.7825  0.8985
   10CHL1   H1B  712   2.068   5.993  10.146  2.9854  0.7564  0.5353
   10CHL1    C2  713   2.115   5.846  10.275 -0.4563  0.1286  0.0103
   10CHL1   H2A  714   2.194   5.909  10.321  0.4887 -0.4514 -0.7658
   10CHL1   H2B  715   2.151   5.740  10.273  0.5951  0.3083  3.4079
   10CHL1   C20  716   1.912   6.008   9.361  0.0128  0.9389  0.9824
   10CHL1   H20  717   1.922   5.907   9.317 -2.0700 -0.1965  2.9505
   10CHL1   C21  718   2.057   6.068   9.373 -0.5094 -0.0046 -0.3416
   10CHL1  H21A  719   2.054   6.156   9.440 -1.8502  1.3819 -2.0894
   10CHL1  H21B  720   2.089   6.106   9.273 -1.5783 -0.1782 -0.7759
   10CHL1  H21C  721   2.128   5.988   9.402 -1.9734 -1.1110  0.3217
   10CHL1   C22  722   1.817   6.090   9.264 -0.7948  0.1414 -0.1224
   10CHL1  H22A  723   1.712   6.056   9.273 -0.2747 -1.6784 -0.4420
   10CHL1  H22B  724   1.828   6.195   9.298  3.8372  0.8364 -2.8204
   10CHL1   C23  725   1.846   6.062   9.110 -0.0252  0.5198  0.6081
   10CHL1  H23A  726   1.947   6.103   9.085 -0.2972  1.3830  0.8789
   10CHL1  H23B  727   1.850   5.951   9.109 -1.8220  0.4279 -0.8848
   10CHL1   C24  728   1.741   6.117   9.013 -0.3493  0.1721  0.1473
   10CHL1  H24A  729   1.644   6.074   9.045 -0.6940  1.9794  1.7440
   10CHL1  H24B  730   1.746   6.228   9.022  2.3067  0.0795  0.5076
   10CHL1   C25  731   1.756   6.076   8.862  0.5569 -0.5677 -0.4529
   10CHL1   H25  732   1.854   6.107   8.820  0.2686  0.8963 -0.0792
   10CHL1   C26  733   1.743   5.918   8.853 -0.5158  0.2856 -0.4875
   10CHL1  H26A  734   1.662   5.877   8.917 -0.2273  0.4453 -0.0137
   10CHL1  H26B  735   1.718   5.893   8.748  0.3413  1.2385 -0.9379
   10CHL1  H26C  736   1.835   5.857   8.866 -1.4747 -2.6543 -5.1409
   10CHL1   C27  737   1.653   6.150   8.777 -0.2771  0.6909 -0.2773
   10CHL1  H27A  738   1.660   6.121   8.670 -1.8638  0.9369 -0.4722
   10CHL1  H27B  739   1.555   6.123   8.822  0.1995 -0.1864  0.2646
   10CHL1  H27C  740   1.659   6.260   8.790  4.1717  0.7486 -1.1316
   11CHL1    C3  741   0.394   2.440  10.275  0.0668  0.6205 -0.2451
   11CHL1    H3  742   0.408   2.549  10.255 -0.7335  0.5473 -1.2620
   11CHL1    O3  743   0.442   2.412  10.409  0.2584 -0.1710  0.4611
   11CHL1   H3'  744   0.458   2.318  10.401  1.0113 -0.0225  0.0878
   11CHL1    C4  745   0.250   2.397  10.266 -0.6056 -0.3176 -0.0248
   11CHL1   H4A  746   0.233   2.290  10.290 -1.9072 -0.0261  0.4487
   11CHL1   H4B  747   0.193   2.452  10.345 -1.7716 -0.7977 -0.5004
   11CHL1    C5  748   0.198   2.414  10.125 -0.4667 -0.0401 -0.1365
   11CHL1    C6  749   0.079   2.474  10.116 -0.3973 -0.1800  0.1462
   11CHL1    H6  750   0.027   2.499  10.210 -1.0591  0.3194 -0.3397
   11CHL1    C7  751   0.004   2.499   9.986  0.1103  0.2549  0.4585
   11CHL1   H7A  752  -0.103   2.469   9.976 -0.0869  1.5139 -2.5725
   11CHL1   H7B  753   0.009   2.609   9.968  1.9384  0.1104 -0.0988
   11CHL1    C8  754   0.085   2.432   9.867 -0.2314  0.1309  0.7134
   11CHL1    H8  755   0.049   2.328   9.850  0.4796  0.1481 -1.0711
   11CHL1   C14  756   0.038   2.511   9.739 -0.0797  0.3340 -0.8854
   11CHL1   H14  757   0.083   2.612   9.744 -0.2831  0.3736  0.8752
   11CHL1   C15  758  -0.113   2.532   9.714 -0.7754  0.2295 -0.3081
   11CHL1  H15A  759  -0.169   2.445   9.754  0.3363  0.1250  1.0786
   11CHL1  H15B  760  -0.143   2.629   9.759  0.9213  1.1628 -1.0944
   11CHL1   C16  761  -0.122   2.554   9.562 -0.1502  0.4325 -0.0570
   11CHL1  H16A  762  -0.195   2.481   9.521 -2.2104  3.0921 -1.4197
   11CHL1  H16B  763  -0.163   2.655   9.541 -1.0492  0.3652  1.2500
   11CHL1   C17  764   0.023   2.530   9.506  0.7047  0.3412 -0.1771
   11CHL1   H17  765   0.079   2.626   9.511  1.8070 -0.1314 -2.2253
   11CHL1   C13  766   0.088   2.441   9.610 -0.2771  0.2079 -0.3083
   11CHL1   C18  767   0.038   2.301   9.599  0.0008  0.8396 -0.3831
   11CHL1  H18A  768  -0.073   2.304   9.611  0.1691  0.4608  1.6878
   11CHL1  H18B  769   0.052   2.263   9.496 -2.1961  1.6910 -1.0567
   11CHL1  H18C  770   0.070   2.228   9.676 -0.8506  1.3725  0.5037
   11CHL1   C12  771   0.243   2.448   9.613  0.0956  0.5136  0.2477
   11CHL1  H12A  772   0.284   2.399   9.523 -0.0825  0.5285  0.1572
   11CHL1  H12B  773   0.272   2.555   9.613  1.1338  0.2438 -0.1729
   11CHL1   C11  774   0.300   2.383   9.740  0.0513  0.6003 -0.4844
   11CHL1  H11A  775   0.286   2.274   9.728  0.3344  0.5721 -0.5556
   11CHL1  H11B  776   0.409   2.405   9.745  0.3051 -0.7962  2.1985
   11CHL1    C9  777   0.236   2.433   9.879 -0.3339  0.1741  0.4130
   11CHL1    H9  778   0.269   2.539   9.882 -0.2604  0.1297  2.0626
   11CHL1   C10  779   0.289   2.370  10.010  0.5065 -0.1279 -0.1682
   11CHL1   C19  780   0.276   2.219   9.994  0.1132  0.1423  0.4388
   11CHL1  H19A  781   0.181   2.180   9.953  1.6047 -0.8649 -2.2691
   11CHL1  H19B  782   0.350   2.181   9.920 -1.2158 -2.8075  0.4616
   11CHL1  H19C  783   0.306   2.168  10.089  0.6736  1.4063  0.9679
   11CHL1    C1  784   0.441   2.409  10.025  0.0041  0.7577 -0.5702
   11CHL1   H1A  785   0.501   2.370   9.940 -0.4719  2.3389 -1.6995
   11CHL1   H1B  786   0.441   2.520  10.023 -2.4805  0.8276  0.4862
   11CHL1    C2  787   0.479   2.366  10.166  0.0672 -0.9312  0.1533
   11CHL1   H2A  788   0.578   2.411  10.188 -0.2225 -0.2397  0.0672
   11CHL1   H2B  789   0.483   2.256  10.181  1.6175 -0.7828  1.1281
   11CHL1   C20  790   0.041   2.505   9.352  0.8095  0.7072  0.0862
   11CHL1   H20  791   0.147   2.473   9.341  0.5798  0.6292 -2.5747
   11CHL1   C21  792   0.024   2.640   9.281 -0.0638  0.0301  0.2315
   11CHL1  H21A  793  -0.080   2.678   9.271  0.1940  0.3436 -1.6588
   11CHL1  H21B  794   0.058   2.617   9.178  1.9013 -0.2529  0.9129
   11CHL1  H21C  795   0.087   2.719   9.327 -0.5409 -0.0216  1.0037
   11CHL1   C22  796  -0.056   2.402   9.292  0.6827  0.0206  0.6388
   11CHL1  H22A  797  -0.048   2.299   9.332 -3.2513 -0.9400 -0.5857
   11CHL1  H22B  798  -0.161   2.432   9.311  0.8261  0.4364  0.7900
   11CHL1   C23  799  -0.045   2.389   9.135  0.1202 -0.3682 -1.3787
   11CHL1  H23A  800  -0.073   2.486   9.089  0.3008  0.0976 -0.5300
   11CHL1  H23B  801   0.063   2.374   9.113  1.1824 -0.1893  2.8126
   11CHL1   C24  802  -0.128   2.276   9.085 -0.4942 -0.0648  0.2817
   11CHL1  H24A  803  -0.083   2.179   9.114  2.3929  1.4724  1.2937
   11CHL1  H24B  804  -0.227   2.285   9.133 -0.5695  0.1132  0.0975
   11CHL1   C25  805  -0.146   2.270   8.934  0.1160  0.3788  0.1641
   11CHL1   H25  806  -0.212   2.186   8.905  2.1230  0.0633 -4.2212
   11CHL1   C26  807  -0.207   2.394   8.876  0.2375 -0.2990 -0.0571
   11CHL1  H26A  808  -0.128   2.472   8.867  0.6050 -0.4487  1.5600
   11CHL1  H26B  809  -0.247   2.375   8.774  0.3549 -0.3434 -0.0945
   11CHL1  H26C  810  -0.294   2.430   8.935 -0.4524 -1.1003 -0.5541
   11CHL1   C27  811  -0.015   2.242   8.847  0.1264 -0.2006  0.0917
   11CHL1  H27A  812  -0.058   2.204   8.751 -1.4788  1.8927 -0.1074
   11CHL1  H27B  813   0.053   2.328   8.826  1.6592 -1.4967 -0.3955
   11CHL1  H27C  814   0.049   2.161   8.888 -1.4958 -2.6161 -1.8723
   12CHL1    C3  815   5.890   6.244  10.580  0.3730 -0.3210 -0.0625
   12CHL1    H3  816   5.951   6.154  10.560  2.1792 -0.1248  3.6519
   12CHL1    O3  817   5.872   6.262  10.720  0.4105  0.0286  0.0760
   12CHL1   H3'  818   5.843   6.177  10.754 -0.3796 -0.2361 -1.1932
   12CHL1    C4  819   5.959   6.362  10.523 -0.4560  0.4253  0.5103
   12CHL1   H4A  820   5.909   6.458  10.544  0.9837  0.7692  2.7479
   12CHL1   H4B  821   6.058   6.377  10.571 -1.3648  0.1386  2.6067
   12CHL1    C5  822   5.975   6.342  10.370 -0.1161 -0.0211 -0.5392
   12CHL1    C6  823   6.093   6.337  10.312 -0.7792  0.1383 -0.5201
   12CHL1    H6  824   6.186   6.344  10.370  0.5186 -1.0896 -2.3402
   12CHL1    C7  825   6.113   6.332  10.163 -0.3185  0.6563  0.3606
   12CHL1   H7A  826   6.185   6.413  10.139  1.0129  0.8959  4.4332
   12CHL1   H7B  827   6.166   6.238  10.135  0.1067  0.7293  0.9156
   12CHL1    C8  828   5.976   6.356  10.084 -0.0381  0.0824 -1.0346
   12CHL1    H8  829   5.956   6.465  10.095  1.5173  0.3340 -0.4548
   12CHL1   C14  830   5.992   6.329   9.935 -0.2489 -0.0772 -0.1219
   12CHL1   H14  831   6.016   6.220   9.931  0.3541  0.0907 -3.1284
   12CHL1   C15  832   6.102   6.400   9.864 -0.0953  0.4813 -0.4944
   12CHL1  H15A  833   6.090   6.507   9.892 -0.4036  1.0110 -2.5099
   12CHL1  H15B  834   6.202   6.369   9.901  0.2856  1.2883 -0.8247
   12CHL1   C16  835   6.060   6.384   9.714  0.2354 -0.4754 -0.0183
   12CHL1  H16A  836   6.056   6.486   9.669 -0.8965 -0.8905 -0.9004
   12CHL1  H16B  837   6.132   6.319   9.660 -0.0845 -0.5009 -0.4248
   12CHL1   C17  838   5.913   6.328   9.708 -0.0222 -0.5094  0.6558
   12CHL1   H17  839   5.927   6.219   9.691  1.0565 -0.2083 -0.6768
   12CHL1   C13  840   5.866   6.348   9.857  0.4203 -0.5313 -0.2856
   12CHL1   C18  841   5.804   6.492   9.865 -0.3844  0.0271 -0.9310
   12CHL1  H18A  842   5.797   6.534   9.967 -0.1704 -0.7642 -0.5837
   12CHL1  H18B  843   5.872   6.557   9.806 -2.1611  3.0976  0.1492
   12CHL1  H18C  844   5.705   6.499   9.814 -0.8073  2.4747  0.0781
   12CHL1   C12  845   5.759   6.248   9.908 -0.0331 -0.6637 -0.6514
   12CHL1  H12A  846   5.662   6.275   9.860 -0.8496  0.4039  1.4635
   12CHL1  H12B  847   5.784   6.140   9.909 -0.4795 -0.8309 -3.0639
   12CHL1   C11  848   5.730   6.282  10.056 -0.2766  0.2960 -0.2486
   12CHL1  H11A  849   5.681   6.381  10.064 -2.8836 -1.0102  1.3578
   12CHL1  H11B  850   5.657   6.208  10.094 -3.0003  1.8445 -2.0836
   12CHL1    C9  851   5.863   6.275  10.143 -0.7057  1.0382 -0.5848
   12CHL1    H9  852   5.898   6.169  10.136  0.5920  1.2588  1.5136
   12CHL1   C10  853   5.847   6.317  10.293  0.4437 -0.3038  0.9425
   12CHL1   C19  854   5.765   6.452  10.307  0.4894 -0.1065  0.6136
   12CHL1  H19A  855   5.670   6.448  10.250  1.3669 -1.2101 -0.8325
   12CHL1  H19B  856   5.739   6.478  10.412 -3.0480 -1.2338  0.1365
   12CHL1  H19C  857   5.830   6.538  10.281  0.5898  0.4324  2.4875
   12CHL1    C1  858   5.772   6.202  10.364  0.1478 -0.7055  0.2488
   12CHL1   H1A  859   5.674   6.183  10.317  0.8723 -2.1349 -0.7575
   12CHL1   H1B  860   5.832   6.110  10.346  2.1128  0.9141 -2.2655
   12CHL1    C2  861   5.756   6.223  10.516  0.2818  0.4205  0.7724
   12CHL1   H2A  862   5.714   6.125  10.550  1.0851  0.1265  0.9254
   12CHL1   H2B  863   5.683   6.303  10.542 -1.4260 -1.4189  1.9975
   12CHL1   C20  864   5.838   6.383   9.589 -0.2608 -0.4045 -0.2532
   12CHL1   H20  865   5.803   6.486   9.615 -0.6629 -0.6172  0.0598
   12CHL1   C21  866   5.712   6.293   9.563 -0.0651 -0.4296 -0.0810
   12CHL1  H21A  867   5.656   6.340   9.479 -2.3524 -0.1701  1.5011
   12CHL1  H21B  868   5.640   6.305   9.647  1.9088  0.5910  1.5559
   12CHL1  H21C  869   5.738   6.186   9.551  1.1214 -0.2318  0.5602
   12CHL1   C22  870   5.910   6.408   9.458 -0.0868  0.0721 -0.5621
   12CHL1  H22A  871   5.850   6.456   9.378  0.4815 -0.6354 -1.4300
   12CHL1  H22B  872   5.987   6.486   9.477 -1.0086  1.1114 -0.9798
   12CHL1   C23  873   5.977   6.275   9.404 -0.4816  0.4910 -0.5221
   12CHL1  H23A  874   6.055   6.242   9.475 -0.4066 -1.6161 -1.4954
   12CHL1  H23B  875   5.903   6.193   9.396  1.4789 -1.5829  1.2417
   12CHL1   C24  876   6.046   6.295   9.271  0.3793 -0.2707  0.5035
   12CHL1  H24A  877   6.129   6.369   9.271  0.9613 -0.8673 -1.3420
   12CHL1  H24B  878   6.099   6.200   9.245  2.6874  1.0562  0.0789
   12CHL1   C25  879   5.949   6.316   9.147 -1.0234 -0.3707 -0.3919
   12CHL1   H25  880   5.880   6.401   9.167 -0.4737 -0.0334  0.0942
   12CHL1   C26  881   6.025   6.347   9.019  0.3247  0.1207 -0.4741
   12CHL1  H26A  882   5.956   6.341   8.932  2.0608 -2.4725 -1.8238
   12CHL1  H26B  883   6.079   6.443   9.014  2.4246 -1.0499 -1.6693
   12CHL1  H26C  884   6.110   6.277   9.005  2.1800  1.7175  1.9887
   12CHL1   C27  885   5.848   6.194   9.121 -1.1617  0.6195 -0.0029
   12CHL1  H27A  886   5.799   6.173   9.219  0.1537  0.4351  0.6513
   12CHL1  H27B  887   5.775   6.223   9.043 -0.2163  1.0018 -0.7767
   12CHL1  H27C  888   5.903   6.105   9.083 -0.9186  0.4921  0.6274
   13CHL1    C3  889   6.180   0.300  10.037  0.2153 -0.4332  0.3639
   13CHL1    H3  890   6.190   0.400   9.989 -2.4130 -0.8947 -1.3521
   13CHL1    O3  891   6.132   0.300  10.166  0.1938  0.0744 -0.7354
   13CHL1   H3'  892   6.130   0.209  10.196  0.2590  0.4368  0.3901
   13CHL1    C4  893   6.083   0.210   9.953 -0.1530  0.8085  0.2547
   13CHL1   H4A  894   6.077   0.116  10.011 -0.4092 -0.4765 -1.7477
   13CHL1   H4B  895   5.986   0.262   9.939 -0.4480  0.6094  1.4657
   13CHL1    C5  896   6.136   0.178   9.811  0.0737  0.0244 -0.6445
   13CHL1    C6  897   6.066   0.220   9.705 -0.0339 -0.1088 -0.4932
   13CHL1    H6  898   5.968   0.267   9.723 -0.3959 -1.0101 -0.0744
   13CHL1    C7  899   6.097   0.189   9.566 -0.0851  0.2945  0.0528
   13CHL1   H7A  900   6.002   0.147   9.527 -0.3652  0.2129  0.7973
   13CHL1   H7B  901   6.148   0.271   9.512  0.9239  0.3706  1.0830
   13CHL1    C8  902   6.199   0.072   9.571 -0.5336 -0.2196 -0.3247
   13CHL1    H8  903   6.144  -0.018   9.606  0.4732 -0.0025  1.9851
   13CHL1   C14  904   6.252   0.058   9.432 -0.9551  0.4805 -0.0860
   13CHL1   H14  905   6.299   0.157   9.412  0.0747  0.3343  1.4997
   13CHL1   C15  906   6.143   0.050   9.327  0.0609  0.1982 -0.3409
   13CHL1  H15A  907   6.054  -0.015   9.342 -0.7754  1.3124 -0.3273
   13CHL1  H15B  908   6.092   0.145   9.302 -3.4251 -1.6883 -1.2136
   13CHL1   C16  909   6.222   0.000   9.204  0.1037  0.0647 -0.0375
   13CHL1  H16A  910   6.170  -0.093   9.172 -2.1525  0.7847  1.2926
   13CHL1  H16B  911   6.221   0.085   9.132 -0.8315  0.0617 -0.0462
   13CHL1   C17  912   6.365  -0.036   9.260 -0.3242 -0.0939  1.0129
   13CHL1   H17  913   6.427   0.055   9.249 -0.2929 -0.3381 -1.3496
   13CHL1   C13  914   6.349  -0.051   9.410  0.2857  0.5471 -0.0534
   13CHL1   C18  915   6.293  -0.192   9.446  0.4500 -0.1086  0.2655
   13CHL1  H18A  916   6.383  -0.256   9.456  1.6020  1.3762 -0.3798
   13CHL1  H18B  917   6.235  -0.192   9.541  1.4015 -1.2939  0.8728
   13CHL1  H18C  918   6.218  -0.213   9.366  0.9882 -1.4644  0.0943
   13CHL1   C12  919   6.472  -0.017   9.495 -0.1665 -0.4307 -0.1288
   13CHL1  H12A  920   6.548  -0.098   9.505  1.5187  1.2528  1.5067
   13CHL1  H12B  921   6.520   0.073   9.450  1.3642 -1.5119 -0.7369
   13CHL1   C11  922   6.435   0.011   9.646  0.7641 -0.0561  0.0512
   13CHL1  H11A  923   6.396  -0.086   9.681  1.1878 -0.1670  0.2198
   13CHL1  H11B  924   6.526   0.052   9.694  0.5762  1.0412 -0.4807
   13CHL1    C9  925   6.310   0.099   9.668  0.4277  0.9376  0.0215
   13CHL1    H9  926   6.342   0.202   9.641  1.8402  0.2463 -1.1000
   13CHL1   C10  927   6.269   0.111   9.815 -0.1103 -0.0042  0.1812
   13CHL1   C19  928   6.259  -0.032   9.875 -0.8090 -0.3302  0.1867
   13CHL1  H19A  929   6.199  -0.093   9.804  0.9544 -0.8361 -0.9072
   13CHL1  H19B  930   6.363  -0.070   9.874 -0.4524  0.4410 -3.1395
   13CHL1  H19C  931   6.211  -0.038   9.975 -4.3180 -0.6421 -1.3703
   13CHL1    C1  932   6.369   0.197   9.896  0.0297 -0.3552  0.0219
   13CHL1   H1A  933   6.467   0.146   9.883  0.6756  0.9853 -0.6071
   13CHL1   H1B  934   6.374   0.293   9.839 -1.3863 -0.1384  0.2248
   13CHL1    C2  935   6.325   0.239  10.034  0.2276  0.5324 -0.1483
   13CHL1   H2A  936   6.400   0.304  10.084 -0.5144  0.1417  1.5759
   13CHL1   H2B  937   6.320   0.152  10.102 -2.5130 -0.2881 -1.2639
   13CHL1   C20  938   6.439  -0.151   9.189  0.5555  0.3577 -0.4035
   13CHL1   H20  939   6.389  -0.245   9.219  1.8782 -0.2340  0.0151
   13CHL1   C21  940   6.592  -0.142   9.221  0.1359  0.4233  0.4657
   13CHL1  H21A  941   6.621  -0.190   9.317  1.6637 -0.2963 -0.3058
   13CHL1  H21B  942   6.628  -0.037   9.217  0.3219  0.3337 -0.8848
   13CHL1  H21C  943   6.657  -0.205   9.155  2.4471  0.5538  2.4772
   13CHL1   C22  944   6.421  -0.148   9.033  0.1258  0.0437  0.1346
   13CHL1  H22A  945   6.315  -0.120   9.014  0.5905  1.6532 -0.2338
   13CHL1  H22B  946   6.492  -0.076   8.987  2.5161 -2.4938 -0.3884
   13CHL1   C23  947   6.438  -0.286   8.961 -0.2882  0.2469 -0.0186
   13CHL1  H23A  948   6.546  -0.306   8.979 -0.4402  0.1462  0.8505
   13CHL1  H23B  949   6.386  -0.366   9.018 -1.0392  1.4117  0.9631
   13CHL1   C24  950   6.416  -0.292   8.810 -0.2107 -0.4056  0.0372
   13CHL1  H24A  951   6.308  -0.282   8.787 -0.5177  3.3081  2.2665
   13CHL1  H24B  952   6.473  -0.208   8.765 -1.0324 -0.5709 -1.3638
   13CHL1   C25  953   6.461  -0.422   8.740  0.2255  0.7323 -0.0360
   13CHL1   H25  954   6.571  -0.421   8.732  0.6273 -1.2193  3.2572
   13CHL1   C26  955   6.427  -0.553   8.811 -0.2045 -0.9046  0.4675
   13CHL1  H26A  956   6.463  -0.645   8.761 -1.2489 -0.3068 -1.4779
   13CHL1  H26B  957   6.464  -0.549   8.916  1.1689  0.8709 -0.0401
   13CHL1  H26C  958   6.316  -0.554   8.804 -0.7410  4.4318  2.9290
   13CHL1   C27  959   6.407  -0.431   8.595  0.0409  0.1095 -0.7867
   13CHL1  H27A  960   6.460  -0.499   8.525 -0.4025  0.2348 -1.2554
   13CHL1  H27B  961   6.298  -0.452   8.585  0.1780 -0.6082 -0.8494
   13CHL1  H27C  962   6.435  -0.340   8.538  1.6871 -0.3843 -0.8052
   14CHL1    C3  963   1.155   4.686  10.307  0.3697 -0.3154 -0.9548
   14CHL1    H3  964   1.240   4.756  10.321 -0.1183  0.0815  0.0926
   14CHL1    O3  965   1.107   4.661  10.444  0.2129 -0.9441 -0.5201
   14CHL1   H3'  966   1.014   4.642  10.437  0.2927 -0.6578 -4.1688
   14CHL1    C4  967   1.042   4.748  10.222 -0.2149 -0.2006  0.3391
   14CHL1   H4A  968   0.950   4.685  10.228  0.8368 -1.7201  1.0542
   14CHL1   H4B  969   1.012   4.846  10.265 -1.7404  0.2173 -1.4865
   14CHL1    C5  970   1.090   4.755  10.080  0.7502  0.1069  0.1214
   14CHL1    C6  971   1.089   4.865  10.010  0.4472 -0.8258  0.4934
   14CHL1    H6  972   1.059   4.959  10.059  2.7851  0.1590  0.2123
   14CHL1    C7  973   1.128   4.880   9.864 -0.2246  0.0643  0.3294
   14CHL1   H7A  974   1.048   4.940   9.815 -0.8716 -0.5136  0.6567
   14CHL1   H7B  975   1.225   4.932   9.853  0.3257 -1.1742 -1.0751
   14CHL1    C8  976   1.132   4.741   9.798  0.1635  0.0663  0.4022
   14CHL1    H8  977   1.028   4.707   9.782 -0.0958  1.4260 -0.9495
   14CHL1   C14  978   1.203   4.754   9.666  0.2918  0.5675 -0.1787
   14CHL1   H14  979   1.304   4.795   9.688  1.1786 -0.5082 -1.9959
   14CHL1   C15  980   1.140   4.851   9.566 -0.8580  0.4610  0.9326
   14CHL1  H15A  981   1.030   4.843   9.557 -0.5763 -1.7911 -1.6508
   14CHL1  H15B  982   1.166   4.954   9.598 -1.5403  1.0173 -0.2614
   14CHL1   C16  983   1.203   4.811   9.430  0.0952  0.7004 -0.3400
   14CHL1  H16A  984   1.122   4.775   9.363 -0.0339  1.2745 -0.5010
   14CHL1  H16B  985   1.265   4.887   9.377  1.2259 -0.0643 -0.1488
   14CHL1   C17  986   1.286   4.675   9.459  0.2253  0.3636 -0.0685
   14CHL1   H17  987   1.386   4.710   9.492  0.5589 -1.9336  1.6439
   14CHL1   C13  988   1.227   4.619   9.593  0.4409 -0.0789 -0.1216
   14CHL1   C18  989   1.090   4.556   9.550  0.4803  0.1768  0.1300
   14CHL1  H18A  990   1.110   4.456   9.506 -0.2168 -0.0499  0.3088
   14CHL1  H18B  991   1.015   4.543   9.631  1.6452 -2.4337  0.8865
   14CHL1  H18C  992   1.050   4.614   9.464  3.0257 -0.0943 -1.3284
   14CHL1   C12  993   1.323   4.528   9.678  0.7148 -0.4294 -0.0574
   14CHL1  H12A  994   1.322   4.421   9.650 -0.4159 -1.1683  2.4684
   14CHL1  H12B  995   1.428   4.564   9.684  2.1479 -4.2942  0.9133
   14CHL1   C11  996   1.262   4.515   9.824 -1.0155  0.0505  0.4659
   14CHL1  H11A  997   1.175   4.451   9.798 -1.2673  0.4262  0.3716
   14CHL1  H11B  998   1.340   4.466   9.886 -0.8344  0.4079  0.5180
   14CHL1    C9  999   1.215   4.646   9.890  0.8169  0.2391  0.1941
   14CHL1    H9 1000   1.309   4.703   9.908  0.3681  0.6474  1.2862
   14CHL1   C10 1001   1.147   4.623  10.026 -0.5249 -0.7063 -0.3959
   14CHL1   C19 1002   1.039   4.520  10.002  0.0469 -0.0412 -0.1534
   14CHL1  H19A 1003   1.081   4.421   9.975 -1.6967 -0.5845 -1.0183
   14CHL1  H19B 1004   0.996   4.490  10.100  1.6669 -2.7476 -0.1696
   14CHL1  H19C 1005   0.962   4.557   9.931 -0.4966  1.5542  1.2043
   14CHL1    C1 1006   1.251   4.562  10.122  0.7339 -0.1084 -0.4979
   14CHL1   H1A 1007   1.281   4.460  10.090 -1.1095 -0.6164 -0.6989
   14CHL1   H1B 1008   1.344   4.622  10.119  0.6894 -0.0527 -0.7466
   14CHL1    C2 1009   1.201   4.546  10.269 -0.2360 -0.7681  0.1192
   14CHL1   H2A 1010   1.291   4.531  10.332  0.9291  2.4720 -0.5609
   14CHL1   H2B 1011   1.121   4.470  10.279  1.3303 -2.4399  0.4980
   14CHL1   C20 1012   1.288   4.581   9.336  0.0822 -0.2439 -0.3617
   14CHL1   H20 1013   1.185   4.548   9.309  0.1779  1.5049 -3.2304
   14CHL1   C21 1014   1.377   4.449   9.352  0.7626 -0.1382 -0.7028
   14CHL1  H21A 1015   1.314   4.358   9.361  1.1356 -0.3259  0.0522
   14CHL1  H21B 1016   1.444   4.464   9.439  0.6365  1.4820 -0.8466
   14CHL1  H21C 1017   1.440   4.442   9.261  2.7798  3.5921  0.2099
   14CHL1   C22 1018   1.342   4.653   9.213  0.1911 -0.0720 -0.5587
   14CHL1  H22A 1019   1.307   4.758   9.202 -0.7691 -0.4276 -1.0367
   14CHL1  H22B 1020   1.453   4.663   9.215  0.1250  1.1571 -1.5309
   14CHL1   C23 1021   1.314   4.585   9.076 -0.0406  1.3678 -0.5074
   14CHL1  H23A 1022   1.367   4.487   9.067  0.1176  1.4612 -0.5986
   14CHL1  H23B 1023   1.204   4.574   9.062  0.1779 -0.8371 -0.9595
   14CHL1   C24 1024   1.358   4.679   8.969 -0.2730  0.8033 -0.0867
   14CHL1  H24A 1025   1.314   4.779   8.992  0.2744  1.2238 -0.8180
   14CHL1  H24B 1026   1.469   4.680   8.973 -0.2835  0.1798  0.5505
   14CHL1   C25 1027   1.329   4.655   8.819 -0.2077  0.1994  0.8156
   14CHL1   H25 1028   1.378   4.558   8.796 -0.0307  0.0787  1.6889
   14CHL1   C26 1029   1.184   4.652   8.772 -0.2663 -0.1666 -0.1404
   14CHL1  H26A 1030   1.120   4.582   8.830  1.5382 -2.4326 -0.7209
   14CHL1  H26B 1031   1.151   4.758   8.768  0.3503 -0.0036 -1.7473
   14CHL1  H26C 1032   1.177   4.620   8.666 -4.0145 -1.4242  0.3410
   14CHL1   C27 1033   1.412   4.753   8.732  0.1627 -0.6141 -0.2107
   14CHL1  H27A 1034   1.375   4.742   8.628 -0.3772  0.0506 -0.0914
   14CHL1  H27B 1035   1.388   4.857   8.762 -2.0403 -0.7627 -1.2988
   14CHL1  H27C 1036   1.522   4.741   8.742 -0.1564 -1.9380  2.6903
   15CHL1    C3 1037   1.097   1.147  10.207  0.0549 -0.1760  0.2081
   15CHL1    H3 1038   1.072   1.039  10.214  3.0549 -0.9537  0.4088
   15CHL1    O3 1039   1.078   1.184  10.343 -0.0840 -0.1253  0.1979
   15CHL1   H3' 1040   1.100   1.277  10.345  0.7523 -0.2988  2.5905
   15CHL1    C4 1041   1.246   1.156  10.169 -0.4134 -0.0175  0.3588
   15CHL1   H4A 1042   1.279   1.260  10.188 -0.7630  0.4326 -1.2954
   15CHL1   H4B 1043   1.297   1.079  10.230 -2.6014 -0.6775  1.4504
   15CHL1    C5 1044   1.261   1.144  10.019 -0.1000 -0.5143  0.2227
   15CHL1    C6 1045   1.345   1.055   9.975 -0.3045  0.6862  0.2544
   15CHL1    H6 1046   1.414   1.006  10.045  1.1006  0.8245 -0.9907
   15CHL1    C7 1047   1.368   1.016   9.836 -0.5673  0.0144  0.7145
   15CHL1   H7A 1048   1.474   1.025   9.807 -1.4183  3.4264 -1.9613
   15CHL1   H7B 1049   1.328   0.916   9.806  0.2590  0.2244 -1.2394
   15CHL1    C8 1050   1.300   1.114   9.735 -0.3330  0.4823  0.0530
   15CHL1    H8 1051   1.371   1.200   9.725  0.3110 -0.1054 -0.5506
   15CHL1   C14 1052   1.283   1.039   9.607 -0.3293 -1.0143  0.2077
   15CHL1   H14 1053   1.219   0.951   9.631 -0.2640 -0.9210  0.7380
   15CHL1   C15 1054   1.410   0.982   9.540 -0.5722  0.1442 -0.3589
   15CHL1  H15A 1055   1.478   1.070   9.541 -0.7716  0.4222 -3.2270
   15CHL1  H15B 1056   1.458   0.896   9.591 -0.3761 -2.0605 -3.8896
   15CHL1   C16 1057   1.368   0.954   9.396 -0.8937 -0.3429 -0.4512
   15CHL1  H16A 1058   1.448   1.013   9.345 -0.1795  1.1309  2.2077
   15CHL1  H16B 1059   1.370   0.847   9.367 -0.4886 -0.5847  0.4570
   15CHL1   C17 1060   1.228   1.021   9.375 -0.8829 -0.5147 -0.4118
   15CHL1   H17 1061   1.160   0.939   9.405 -1.6545  0.0611 -0.5697
   15CHL1   C13 1062   1.215   1.122   9.491 -0.0079  0.2757 -0.0639
   15CHL1   C18 1063   1.303   1.244   9.456  0.4521  0.1649  0.1466
   15CHL1  H18A 1064   1.399   1.207   9.412  2.1494  1.6906  2.3817
   15CHL1  H18B 1065   1.248   1.306   9.382 -0.4762 -1.5141 -0.6471
   15CHL1  H18C 1066   1.329   1.309   9.542  3.9061  0.8591 -1.2534
   15CHL1   C12 1067   1.072   1.164   9.527  0.7951  0.3208 -0.6591
   15CHL1  H12A 1068   1.023   1.232   9.454 -1.8795 -2.2413 -1.4425
   15CHL1  H12B 1069   1.014   1.069   9.526 -0.0832  0.7385  2.1682
   15CHL1   C11 1070   1.081   1.236   9.667 -0.6981  0.2393  0.0084
   15CHL1  H11A 1071   1.128   1.333   9.644  0.5546 -0.7275 -1.7200
   15CHL1  H11B 1072   0.980   1.268   9.701  0.8508  3.1151  2.4563
   15CHL1    C9 1073   1.160   1.157   9.779  0.5265 -0.1104  0.3162
   15CHL1    H9 1074   1.113   1.057   9.785  3.0463 -1.3612  0.5573
   15CHL1   C10 1075   1.163   1.221   9.925  0.6147  0.0257  0.4448
   15CHL1   C19 1076   1.181   1.375   9.930  0.1044  0.2006 -0.0649
   15CHL1  H19A 1077   1.282   1.411   9.900 -0.3314  0.3828 -1.3845
   15CHL1  H19B 1078   1.117   1.436   9.862  1.6285  0.7975 -1.0104
   15CHL1  H19C 1079   1.158   1.411  10.032 -1.9339 -3.9259  1.1640
   15CHL1    C1 1080   1.021   1.182   9.981  0.0433 -0.0312  0.1713
   15CHL1   H1A 1081   0.950   1.238   9.917 -1.0418 -0.9745  0.5026
   15CHL1   H1B 1082   1.007   1.072   9.967  0.2556  0.1344 -1.6042
   15CHL1    C2 1083   0.998   1.225  10.124 -0.6105  0.0096  1.2215
   15CHL1   H2A 1084   0.894   1.205  10.158 -1.2816  1.3860  0.0824
   15CHL1   H2B 1085   1.018   1.334  10.129  1.3281 -0.2506  0.0917
   15CHL1   C20 1086   1.179   1.062   9.237 -0.2618  0.5799 -0.6047
   15CHL1   H20 1087   1.168   1.172   9.226 -3.7200  0.3344 -0.7492
   15CHL1   C21 1088   1.034   1.004   9.221  0.1009  0.0132 -1.0035
   15CHL1  H21A 1089   0.956   1.030   9.296 -0.4113  1.2647 -1.9247
   15CHL1  H21B 1090   1.025   0.894   9.212  1.1769 -0.0403 -1.5621
   15CHL1  H21C 1091   1.003   1.047   9.123  2.5946  0.9444 -1.4674
   15CHL1   C22 1092   1.268   1.004   9.127  0.1194 -0.2096 -0.3202
   15CHL1  H22A 1093   1.377   1.021   9.133  0.1155 -0.6116  1.1190
   15CHL1  H22B 1094   1.253   0.894   9.127 -1.5894 -0.0173  0.8216
   15CHL1   C23 1095   1.226   1.052   8.982 -0.5678  0.0522  0.1366
   15CHL1  H23A 1096   1.139   0.991   8.950 -0.2917 -1.1331  1.5109
   15CHL1  H23B 1097   1.202   1.160   8.981 -0.2959  0.1335 -1.6901
   15CHL1   C24 1098   1.349   1.034   8.884  1.0650 -0.3228 -0.5693
   15CHL1  H24A 1099   1.418   1.117   8.908 -1.2459  1.9201 -1.2653
   15CHL1  H24B 1100   1.413   0.950   8.920  1.8770  0.1832 -0.8095
   15CHL1   C25 1101   1.324   1.027   8.734 -0.5647 -0.7675  0.5320
   15CHL1   H25 1102   1.289   1.125   8.695 -1.4734 -1.6612 -1.0076
   15CHL1   C26 1103   1.454   0.981   8.664 -0.0751  0.6278  0.0145
   15CHL1  H26A 1104   1.477   0.875   8.689 -0.8761 -0.2917 -2.7764
   15CHL1  H26B 1105   1.442   0.977   8.554 -1.7575  1.0822  0.1416
   15CHL1  H26C 1106   1.540   1.045   8.692  0.0986  1.0755 -1.5000
   15CHL1   C27 1107   1.207   0.932   8.691  0.0803 -0.4315 -0.4162
   15CHL1  H27A 1108   1.213   0.927   8.580 -3.0492 -1.5851 -0.6165
   15CHL1  H27B 1109   1.224   0.829   8.729  1.1493 -0.7321 -1.6308
   15CHL1  H27C 1110   1.106   0.962   8.727  0.6910 -1.5253  2.4938
   16CHL1    C3 1111   1.249   3.390  10.320  0.5566 -0.3727 -0.4992
   16CHL1    H3 1112   1.238   3.279  10.322 -2.4247 -0.2019 -2.2566
   16CHL1    O3 1113   1.242   3.440  10.456 -0.6617  0.6441 -0.5466
   16CHL1   H3' 1114   1.282   3.527  10.458 -0.1314  0.4989  3.5004
   16CHL1    C4 1115   1.377   3.434  10.253 -0.0062 -0.3712 -0.7514
   16CHL1   H4A 1116   1.383   3.543  10.271 -0.1793 -0.7823  2.3097
   16CHL1   H4B 1117   1.458   3.381  10.307  0.4922 -1.2810 -2.3337
   16CHL1    C5 1118   1.370   3.398  10.102  0.1041  0.2910 -0.3441
   16CHL1    C6 1119   1.472   3.328  10.049  0.2405  0.1153 -0.2542
   16CHL1    H6 1120   1.557   3.298  10.112  0.0553  0.2292  0.0515
   16CHL1    C7 1121   1.485   3.306   9.901 -0.1246 -0.2526 -0.7893
   16CHL1   H7A 1122   1.589   3.329   9.868  0.1595  0.4294  0.5113
   16CHL1   H7B 1123   1.471   3.196   9.890  0.2997 -0.2004 -2.0875
   16CHL1    C8 1124   1.379   3.373   9.816 -0.4538 -0.3321  0.2735
   16CHL1    H8 1125   1.415   3.476   9.796  1.1023 -1.0333 -0.7560
   16CHL1   C14 1126   1.370   3.307   9.680 -0.5574  0.1589 -0.5119
   16CHL1   H14 1127   1.341   3.200   9.690  0.6834 -0.1315  0.2238
   16CHL1   C15 1128   1.503   3.296   9.598 -0.0025 -0.2529  0.5481
   16CHL1  H15A 1129   1.555   3.394   9.593  0.9493 -0.8117 -1.4279
   16CHL1  H15B 1130   1.569   3.215   9.635  2.3416  0.2468 -2.1868
   16CHL1   C16 1131   1.454   3.273   9.456 -0.1022 -0.2703 -0.0372
   16CHL1  H16A 1132   1.497   3.344   9.382  0.5407  0.5899  1.1346
   16CHL1  H16B 1133   1.477   3.168   9.428 -0.6800 -0.6444  0.8337
   16CHL1   C17 1134   1.307   3.295   9.458 -0.1643  0.2750 -0.1286
   16CHL1   H17 1135   1.266   3.193   9.470  0.4868 -0.5125 -3.5720
   16CHL1   C13 1136   1.267   3.376   9.591 -0.3243 -0.4223  0.1847
   16CHL1   C18 1137   1.302   3.521   9.570  0.9229 -0.1867  0.7067
   16CHL1  H18A 1138   1.399   3.544   9.521  0.7750  1.5330  1.1320
   16CHL1  H18B 1139   1.236   3.574   9.498  1.2768 -1.9200 -0.9449
   16CHL1  H18C 1140   1.297   3.578   9.666  2.5888  0.7158  0.3010
   16CHL1   C12 1141   1.135   3.354   9.653 -0.0980  0.5147 -0.0198
   16CHL1  H12A 1142   1.062   3.410   9.592 -1.6030 -0.6446  0.6358
   16CHL1  H12B 1143   1.124   3.243   9.658  0.0937  0.5220  0.7856
   16CHL1   C11 1144   1.126   3.416   9.794  0.5588 -0.1890 -0.2662
   16CHL1  H11A 1145   1.124   3.525   9.771  1.2933 -0.5561 -2.3005
   16CHL1  H11B 1146   1.031   3.375   9.833  1.3631 -4.1168 -1.9799
   16CHL1    C9 1147   1.243   3.377   9.884 -1.4281 -0.3417 -0.6994
   16CHL1    H9 1148   1.225   3.273   9.916  0.9834 -0.1782  1.5203
   16CHL1   C10 1149   1.251   3.448  10.018  0.1765  0.1881 -0.6662
   16CHL1   C19 1150   1.277   3.593   9.989 -0.7793  0.5298 -0.3693
   16CHL1  H19A 1151   1.366   3.619   9.927 -0.1032  2.0719  1.1513
   16CHL1  H19B 1152   1.181   3.631   9.949 -0.3480  1.4029 -0.6038
   16CHL1  H19C 1153   1.299   3.641  10.087 -0.7200 -0.2732  0.0281
   16CHL1    C1 1154   1.121   3.430  10.102  0.8845  0.0673 -0.0930
   16CHL1   H1A 1155   1.037   3.488  10.058 -0.6613 -1.7973  0.3228
   16CHL1   H1B 1156   1.096   3.325  10.078  0.4388  0.2555 -0.4661
   16CHL1    C2 1157   1.125   3.450  10.254  0.2283  0.3532  0.2339
   16CHL1   H2A 1158   1.032   3.399  10.288  0.9483 -1.0236  0.2353
   16CHL1   H2B 1159   1.109   3.559  10.269 -0.6788  0.0841  1.4127
   16CHL1   C20 1160   1.248   3.351   9.325 -0.3336  0.0954 -0.0842
   16CHL1   H20 1161   1.271   3.458   9.310  0.0394 -0.1758 -1.7561
   16CHL1   C21 1162   1.107   3.319   9.319  0.2284  0.5988 -0.4934
   16CHL1  H21A 1163   1.056   3.360   9.409  2.3963  1.8348  0.2328
   16CHL1  H21B 1164   1.082   3.211   9.314 -1.2710  0.8651  0.3915
   16CHL1  H21C 1165   1.063   3.363   9.227 -0.0616 -0.5207 -0.9044
   16CHL1   C22 1166   1.310   3.277   9.207  0.1530 -0.4799  0.5444
   16CHL1  H22A 1167   1.421   3.282   9.203  0.1271  1.6579  1.4771
   16CHL1  H22B 1168   1.290   3.168   9.204 -0.5547 -0.3357 -0.3347
   16CHL1   C23 1169   1.271   3.326   9.064 -0.8075  0.1573  0.0769
   16CHL1  H23A 1170   1.161   3.320   9.050 -0.5702 -1.0653 -1.4392
   16CHL1  H23B 1171   1.299   3.433   9.062  2.5692 -0.6341 -1.5139
   16CHL1   C24 1172   1.348   3.254   8.948  0.3665 -0.0907  0.2208
   16CHL1  H24A 1173   1.453   3.280   8.972 -0.6179  4.1672  0.7431
   16CHL1  H24B 1174   1.330   3.145   8.944  1.9876 -0.3808  0.3205
   16CHL1   C25 1175   1.317   3.312   8.805  0.1968  0.8344 -0.8228
   16CHL1   H25 1176   1.207   3.319   8.792  0.2174  1.5191 -0.6550
   16CHL1   C26 1177   1.365   3.457   8.777  0.1520  0.3287 -0.0166
   16CHL1  H26A 1178   1.327   3.488   8.678 -0.5803 -1.8895 -0.4861
   16CHL1  H26B 1179   1.333   3.532   8.852 -0.4888  0.9570 -0.9063
   16CHL1  H26C 1180   1.475   3.464   8.768  0.1779 -0.8450 -0.9290
   16CHL1   C27 1181   1.369   3.213   8.699 -0.0388 -0.0264  0.3579
   16CHL1  H27A 1182   1.312   3.121   8.723 -1.2108  0.8969  1.2359
   16CHL1  H27B 1183   1.358   3.266   8.602  0.4285 -1.6790 -0.6425
   16CHL1  H27C 1184   1.479   3.201   8.713 -0.4697 -2.6153  2.4798
   17CHL1    C3 1185   2.939   5.672  10.502  0.3123  0.8810  0.3355
   17CHL1    H3 1186   2.924   5.782  10.496  2.1510  1.1661  0.3511
   17CHL1    O3 1187   3.007   5.651  10.623  0.7969  0.1651  0.3565
   17CHL1   H3' 1188   3.088   5.702  10.622  0.9977 -0.1312  0.7915
   17CHL1    C4 1189   2.804   5.592  10.498 -0.6684 -0.7168  0.1188
   17CHL1   H4A 1190   2.829   5.484  10.508  0.5502 -0.4132  0.6266
   17CHL1   H4B 1191   2.746   5.623  10.588 -1.0041 -1.6471  0.2356
   17CHL1    C5 1192   2.742   5.620  10.361 -0.0306  0.3024 -0.4383
   17CHL1    C6 1193   2.625   5.675  10.346 -0.1810  0.1879  0.0441
   17CHL1    H6 1194   2.568   5.699  10.437  0.3889  0.1102  0.4330
   17CHL1    C7 1195   2.566   5.687  10.212  0.1671  0.2637  0.2896
   17CHL1   H7A 1196   2.460   5.654  10.212 -0.0196  0.5247 -2.9012
   17CHL1   H7B 1197   2.569   5.791  10.172 -3.0096  0.2237 -0.3554
   17CHL1    C8 1198   2.629   5.602  10.099  0.6256  0.1077  0.5065
   17CHL1    H8 1199   2.614   5.493  10.113  0.6479  0.0354 -0.0042
   17CHL1   C14 1200   2.576   5.658   9.964 -0.2123 -0.3293  0.3484
   17CHL1   H14 1201   2.601   5.766   9.961 -0.9942 -0.1530 -2.4746
   17CHL1   C15 1202   2.421   5.664   9.948  0.1397 -0.2663  0.4880
   17CHL1  H15A 1203   2.383   5.561   9.963 -0.6002 -0.1600 -0.5798
   17CHL1  H15B 1204   2.367   5.742  10.007 -0.6437  0.0410 -0.6075
   17CHL1   C16 1205   2.404   5.683   9.796 -0.4941  0.4338  0.2880
   17CHL1  H16A 1206   2.331   5.614   9.749 -1.5483  0.9741  1.0784
   17CHL1  H16B 1207   2.359   5.783   9.779  1.7568  1.8951  2.2599
   17CHL1   C17 1208   2.545   5.669   9.730 -0.0947 -1.0824 -0.0214
   17CHL1   H17 1209   2.587   5.772   9.719  0.6431 -1.5964 -2.8222
   17CHL1   C13 1210   2.640   5.605   9.842 -0.0855 -0.3272  0.0681
   17CHL1   C18 1211   2.618   5.448   9.842 -0.6449  0.4508 -0.6143
   17CHL1  H18A 1212   2.667   5.404   9.931 -1.5535 -0.2649 -0.4497
   17CHL1  H18B 1213   2.511   5.419   9.849 -1.1044  1.8470 -1.4791
   17CHL1  H18C 1214   2.665   5.401   9.753 -0.9311 -1.5985  0.2786
   17CHL1   C12 1215   2.797   5.637   9.843  0.2474  0.0059 -0.5709
   17CHL1  H12A 1216   2.844   5.604   9.748  0.7602  1.3792 -0.8168
   17CHL1  H12B 1217   2.799   5.748   9.845 -0.6560  0.0470  1.5136
   17CHL1   C11 1218   2.860   5.574   9.975 -0.1731 -0.3500  0.6967
   17CHL1  H11A 1219   2.873   5.464   9.968 -1.6955 -0.6138  1.5017
   17CHL1  H11B 1220   2.966   5.607   9.988  0.1894 -0.2811 -1.8874
   17CHL1    C9 1221   2.778   5.626  10.102  0.0571 -0.0731  0.0381
   17CHL1    H9 1222   2.788   5.736  10.101  1.6892 -0.1942 -0.7144
   17CHL1   C10 1223   2.833   5.581  10.241  0.4343 -0.1173  0.6073
   17CHL1   C19 1224   2.858   5.428  10.247  0.5302  0.2379 -0.4149
   17CHL1  H19A 1225   2.946   5.399  10.185 -0.8592 -0.4313 -2.1618
   17CHL1  H19B 1226   2.875   5.393  10.351 -3.3543  0.7220  0.5293
   17CHL1  H19C 1227   2.771   5.374  10.206  1.4997 -0.8758 -1.0590
   17CHL1    C1 1228   2.969   5.657  10.258  0.7204  0.1571 -0.0072
   17CHL1   H1A 1229   3.031   5.612  10.177  0.9934 -1.1303  0.8925
   17CHL1   H1B 1230   2.942   5.764  10.244 -1.2726 -0.3826 -0.5179
   17CHL1    C2 1231   3.037   5.638  10.395 -0.4749 -0.5767  0.3410
   17CHL1   H2A 1232   3.131   5.697  10.401 -1.7988  1.7632 -0.5371
   17CHL1   H2B 1233   3.061   5.529  10.399 -2.4737 -1.0812  0.0455
   17CHL1   C20 1234   2.536   5.608   9.590  0.1002 -0.2296 -0.6371
   17CHL1   H20 1235   2.502   5.503   9.604  0.0990 -0.2118 -0.5056
   17CHL1   C21 1236   2.672   5.616   9.538  0.1217 -0.3039 -0.2695
   17CHL1  H21A 1237   2.744   5.542   9.578  0.4115 -0.4883 -1.1220
   17CHL1  H21B 1238   2.701   5.723   9.552 -1.1719  0.1675 -1.0074
   17CHL1  H21C 1239   2.672   5.580   9.433  0.4623 -3.0832  0.6170
   17CHL1   C22 1240   2.433   5.688   9.503 -0.3658 -0.3710 -0.6844
   17CHL1  H22A 1241   2.330   5.696   9.543 -0.8808  2.2968 -2.2468
   17CHL1  H22B 1242   2.467   5.793   9.488 -1.0556 -0.1609 -0.8369
   17CHL1   C23 1243   2.429   5.636   9.356  0.1856  0.2209  0.7155
   17CHL1  H23A 1244   2.523   5.666   9.306 -0.6828 -1.2191 -2.0161
   17CHL1  H23B 1245   2.424   5.525   9.352  1.8115  0.1521 -0.0385
   17CHL1   C24 1246   2.312   5.691   9.254 -0.7858  0.3290 -0.1781
   17CHL1  H24A 1247   2.212   5.666   9.295 -1.8555 -2.7347 -4.0089
   17CHL1  H24B 1248   2.318   5.801   9.247 -1.2347  0.2816 -1.9570
   17CHL1   C25 1249   2.309   5.622   9.116  0.5158  0.3703  0.2067
   17CHL1   H25 1250   2.310   5.511   9.120  1.5800  0.3509 -0.1801
   17CHL1   C26 1251   2.185   5.671   9.041 -0.0827 -0.0237  0.3233
   17CHL1  H26A 1252   2.182   5.782   9.043 -0.0500 -0.0269  2.6778
   17CHL1  H26B 1253   2.180   5.621   8.941  1.1951 -2.0384  1.2070
   17CHL1  H26C 1254   2.089   5.646   9.091 -1.8239  1.7692 -1.8991
   17CHL1   C27 1255   2.430   5.673   9.034 -0.0571 -0.3097 -0.3907
   17CHL1  H27A 1256   2.516   5.682   9.104 -0.3000 -1.0993  0.0340
   17CHL1  H27B 1257   2.455   5.590   8.965  1.6636  0.7549 -1.1122
   17CHL1  H27C 1258   2.403   5.767   8.982  0.9464 -0.1750 -0.6894
   18CHL1    C3 1259   1.763   5.161  10.334 -0.4752  0.6262 -0.5499
   18CHL1    H3 1260   1.871   5.174  10.312 -0.5095  2.1701  0.0713
   18CHL1    O3 1261   1.748   5.174  10.473 -0.5650  0.2193 -0.4382
   18CHL1   H3' 1262   1.653   5.164  10.484 -0.5133 -1.1505 -0.9642
   18CHL1    C4 1263   1.676   5.275  10.266  0.0503  0.0018  0.3986
   18CHL1   H4A 1264   1.568   5.260  10.289 -0.4499 -1.6301 -2.5775
   18CHL1   H4B 1265   1.723   5.371  10.298  1.5934  0.3130 -2.4552
   18CHL1    C5 1266   1.693   5.258  10.117 -0.3524  0.3370 -0.0009
   18CHL1    C6 1267   1.739   5.368  10.043 -0.1574  0.4157  0.9810
   18CHL1    H6 1268   1.769   5.466  10.083  0.2203 -0.5784  3.2341
   18CHL1    C7 1269   1.736   5.363   9.894  0.1953 -0.5136 -0.9281
   18CHL1   H7A 1270   1.716   5.458   9.840  0.6659  0.4323  0.4861
   18CHL1   H7B 1271   1.838   5.333   9.860  1.1467  2.4173 -0.9046
   18CHL1    C8 1272   1.654   5.249   9.837 -0.2257 -0.4646 -0.3982
   18CHL1    H8 1273   1.548   5.283   9.838 -0.5675 -1.4854 -0.5679
   18CHL1   C14 1274   1.689   5.241   9.687 -0.1820  0.3452  0.2297
   18CHL1   H14 1275   1.794   5.204   9.686  0.2581  1.5095 -0.9862
   18CHL1   C15 1276   1.678   5.366   9.603  0.3880 -0.4100 -0.4159
   18CHL1  H15A 1277   1.584   5.421   9.625  1.5831  1.6730 -0.2336
   18CHL1  H15B 1278   1.759   5.440   9.621  0.5570 -0.3531 -1.3672
   18CHL1   C16 1279   1.657   5.320   9.463  0.4575  0.3527 -0.5321
   18CHL1  H16A 1280   1.566   5.370   9.424  0.0081 -0.1546 -0.1402
   18CHL1  H16B 1281   1.743   5.350   9.398 -0.5445  1.2607 -1.4866
   18CHL1   C17 1282   1.645   5.162   9.467  0.2646 -0.4448  0.6573
   18CHL1   H17 1283   1.748   5.121   9.458  1.1995  2.0485 -1.0559
   18CHL1   C13 1284   1.604   5.138   9.613  0.5043  0.6487 -0.3940
   18CHL1   C18 1285   1.454   5.172   9.626  0.0016  0.3071 -0.6747
   18CHL1  H18A 1286   1.379   5.102   9.583 -1.2600  1.6125 -0.6849
   18CHL1  H18B 1287   1.421   5.189   9.730 -0.1746 -0.4953 -0.5981
   18CHL1  H18C 1288   1.431   5.273   9.585 -1.5182  0.2391 -0.0519
   18CHL1   C12 1289   1.633   4.995   9.681  0.3834 -0.0958 -0.1476
   18CHL1  H12A 1290   1.563   4.922   9.634  0.9057 -1.3521  0.9506
   18CHL1  H12B 1291   1.740   4.969   9.669  0.8935  2.4771 -1.8081
   18CHL1   C11 1292   1.612   4.996   9.834  0.8324 -0.3029 -0.5602
   18CHL1  H11A 1293   1.502   5.012   9.839  0.8154 -0.7068  0.7426
   18CHL1  H11B 1294   1.645   4.901   9.882 -0.4849 -0.7605 -0.4919
   18CHL1    C9 1295   1.677   5.119   9.906  0.2630 -0.0804  0.2359
   18CHL1    H9 1296   1.786   5.110   9.888  0.0795  1.0039 -1.5723
   18CHL1   C10 1297   1.649   5.127  10.058  0.1703  0.3318  0.9513
   18CHL1   C19 1298   1.496   5.110  10.076  0.1915  0.0632  0.2633
   18CHL1  H19A 1299   1.461   5.107  10.181 -1.3996 -1.0196 -0.2573
   18CHL1  H19B 1300   1.433   5.193  10.036 -1.2084  0.3388  2.8336
   18CHL1  H19C 1301   1.466   5.010  10.038 -1.3097  0.5441  0.1158
   18CHL1    C1 1302   1.727   5.008  10.131  0.3811 -0.0981 -0.2154
   18CHL1   H1A 1303   1.694   4.906  10.103  1.9954 -1.0893  1.2877
   18CHL1   H1B 1304   1.835   5.018  10.108  0.1618  1.1207 -0.8079
   18CHL1    C2 1305   1.722   5.021  10.285 -0.5287  0.6265 -0.2551
   18CHL1   H2A 1306   1.781   4.940  10.330 -2.8438 -1.3681 -0.5829
   18CHL1   H2B 1307   1.614   5.002  10.305 -0.5267 -0.6622 -1.3654
   18CHL1   C20 1308   1.564   5.112   9.346 -0.4921  0.5980 -0.4949
   18CHL1   H20 1309   1.459   5.145   9.361  0.1565  2.9855 -0.6856
   18CHL1   C21 1310   1.552   4.961   9.350  0.4335  0.1187  0.4113
   18CHL1  H21A 1311   1.529   4.935   9.244  0.2416  1.0462  0.2138
   18CHL1  H21B 1312   1.478   4.925   9.424 -1.0946  0.2487 -0.9815
   18CHL1  H21C 1313   1.650   4.912   9.366  1.0624  0.9563 -0.7304
   18CHL1   C22 1314   1.604   5.162   9.205  0.1762  0.0192  0.5367
   18CHL1  H22A 1315   1.525   5.117   9.141 -0.7400 -0.0880  1.6999
   18CHL1  H22B 1316   1.590   5.272   9.201 -1.6764 -0.2175 -0.2628
   18CHL1   C23 1317   1.741   5.127   9.151 -0.4042  0.1937  0.0476
   18CHL1  H23A 1318   1.825   5.170   9.210 -0.2387  2.7604 -1.8954
   18CHL1  H23B 1319   1.741   5.017   9.159  0.7997  0.2366  1.0823
   18CHL1   C24 1320   1.757   5.166   9.003 -0.2730  0.6951  0.4292
   18CHL1  H24A 1321   1.849   5.135   8.948 -1.5646  1.0652 -2.0939
   18CHL1  H24B 1322   1.683   5.106   8.946  1.1433 -0.3584 -0.3661
   18CHL1   C25 1323   1.755   5.321   8.974  0.3421  0.5950 -0.0802
   18CHL1   H25 1324   1.652   5.348   9.004  1.2104  1.9839  1.8559
   18CHL1   C26 1325   1.849   5.400   9.066 -0.0756 -0.2671 -0.8763
   18CHL1  H26A 1326   1.954   5.368   9.077  0.7209  2.7993  2.2322
   18CHL1  H26B 1327   1.856   5.510   9.054 -1.3409  0.0308  0.6830
   18CHL1  H26C 1328   1.809   5.391   9.170 -1.9942  2.6877 -1.2142
   18CHL1   C27 1329   1.771   5.365   8.828 -0.1114 -0.2317  0.3322
   18CHL1  H27A 1330   1.754   5.473   8.811  1.6360 -0.0736 -0.5633
   18CHL1  H27B 1331   1.873   5.338   8.795 -0.8266 -1.6071 -0.9134
   18CHL1  H27C 1332   1.703   5.315   8.755  1.9417  0.5413 -2.2731
   19CHL1    C3 1333   6.151   1.759  10.084 -0.0509  0.1972  0.2491
   19CHL1    H3 1334   6.041   1.752  10.073 -0.2518 -1.9925  2.7597
   19CHL1    O3 1335   6.188   1.785  10.214 -0.4570 -0.3096  0.1791
   19CHL1   H3' 1336   6.266   1.840  10.201 -0.1142  0.1366  3.2785
   19CHL1    C4 1337   6.214   1.621  10.040  0.2614  0.0371  0.3719
   19CHL1   H4A 1338   6.324   1.618  10.058  0.1407 -1.8147  1.0271
   19CHL1   H4B 1339   6.183   1.539  10.108 -0.0714  0.5205  0.8089
   19CHL1    C5 1340   6.187   1.592   9.894  0.0467  0.3220  0.1732
   19CHL1    C6 1341   6.121   1.482   9.859 -0.4732 -1.1159  0.4327
   19CHL1    H6 1342   6.089   1.410   9.935 -0.0322 -2.7513 -0.8650
   19CHL1    C7 1343   6.082   1.447   9.718  0.5898  0.2086 -0.1064
   19CHL1   H7A 1344   6.096   1.337   9.706 -0.3717 -0.0408  0.9058
   19CHL1   H7B 1345   5.981   1.492   9.706  1.1590  2.3876  2.4361
   19CHL1    C8 1346   6.177   1.521   9.618 -0.3509  0.0520  0.1585
   19CHL1    H8 1347   6.278   1.476   9.625  0.1197  1.0206 -0.2525
   19CHL1   C14 1348   6.123   1.500   9.484  1.0445 -0.2959  0.2339
   19CHL1   H14 1349   6.029   1.560   9.494  0.3093 -1.5622  1.2235
   19CHL1   C15 1350   6.070   1.358   9.432  0.6068 -0.2416  0.1414
   19CHL1  H15A 1351   6.136   1.271   9.450 -2.0191 -2.2758  0.6845
   19CHL1  H15B 1352   5.984   1.332   9.498  0.2547 -1.1622 -0.6307
   19CHL1   C16 1353   6.056   1.374   9.283 -0.0807 -0.4442 -0.6673
   19CHL1  H16A 1354   6.127   1.301   9.239 -1.2733 -1.0668 -1.6223
   19CHL1  H16B 1355   5.953   1.360   9.243 -0.3287 -2.2288  0.5152
   19CHL1   C17 1356   6.116   1.517   9.246 -0.3035  0.9476  0.1411
   19CHL1   H17 1357   6.026   1.580   9.262 -1.5924 -0.4498 -1.2333
   19CHL1   C13 1358   6.204   1.551   9.366  0.2053  0.4748 -0.3523
   19CHL1   C18 1359   6.332   1.460   9.350  0.3026 -0.1139 -0.0515
   19CHL1  H18A 1360   6.409   1.522   9.298 -0.5410 -0.3449 -1.6441
   19CHL1  H18B 1361   6.382   1.450   9.449  1.2172  1.4642 -0.3103
   19CHL1  H18C 1362   6.321   1.357   9.311  0.3510 -0.0423 -0.2538
   19CHL1   C12 1363   6.222   1.704   9.393 -0.1890 -0.2621  0.6273
   19CHL1  H12A 1364   6.297   1.738   9.319 -3.6400  0.4407 -2.9269
   19CHL1  H12B 1365   6.121   1.746   9.375  0.0266  0.2135  0.5251
   19CHL1   C11 1366   6.267   1.730   9.541  0.4219 -0.1268  0.9053
   19CHL1  H11A 1367   6.366   1.679   9.543  0.4113 -0.5721 -2.7732
   19CHL1  H11B 1368   6.302   1.827   9.582  2.6115 -0.3241 -0.3183
   19CHL1    C9 1369   6.187   1.669   9.649  0.0609  0.3930  1.0784
   19CHL1    H9 1370   6.085   1.712   9.642  0.1128  0.4791  0.8488
   19CHL1   C10 1371   6.237   1.699   9.795  0.8066  0.1973 -0.2209
   19CHL1   C19 1372   6.395   1.706   9.805  0.0794 -0.2213  0.0915
   19CHL1  H19A 1373   6.436   1.784   9.737 -0.3682 -0.7625 -0.8182
   19CHL1  H19B 1374   6.418   1.730   9.911  0.0267 -2.3418  0.6327
   19CHL1  H19C 1375   6.440   1.604   9.803  2.0359  0.5578  1.0825
   19CHL1    C1 1376   6.173   1.830   9.846  0.1108  0.0055  0.2307
   19CHL1   H1A 1377   6.216   1.913   9.786 -1.9162  0.6307 -0.4751
   19CHL1   H1B 1378   6.069   1.844   9.808  0.6850 -0.2703 -1.5096
   19CHL1    C2 1379   6.193   1.868   9.992 -0.0456  0.0832 -0.2060
   19CHL1   H2A 1380   6.135   1.957  10.023  0.6477  0.6055 -0.3858
   19CHL1   H2B 1381   6.302   1.888  10.006 -0.0059 -0.0994 -0.2431
   19CHL1   C20 1382   6.168   1.535   9.100 -0.2465  0.6887 -0.3808
   19CHL1   H20 1383   6.239   1.454   9.072  0.2294  1.4373 -1.4016
   19CHL1   C21 1384   6.230   1.678   9.076 -0.0624  0.2486 -0.0767
   19CHL1  H21A 1385   6.318   1.684   9.144 -0.6770  1.1071  0.6788
   19CHL1  H21B 1386   6.152   1.753   9.104 -2.2122 -1.8472 -0.1359
   19CHL1  H21C 1387   6.268   1.695   8.973  0.0136 -0.1579 -0.1159
   19CHL1   C22 1388   6.048   1.517   9.006 -0.0088 -0.0250 -0.0651
   19CHL1  H22A 1389   6.007   1.415   9.021 -1.4665  0.0842 -2.6859
   19CHL1  H22B 1390   5.968   1.590   9.031 -0.3285 -0.9215  1.7026
   19CHL1   C23 1391   6.089   1.524   8.860 -0.4897 -0.3059 -0.0708
   19CHL1  H23A 1392   6.103   1.630   8.829  1.0069 -0.0222  1.4225
   19CHL1  H23B 1393   6.191   1.482   8.851 -0.3093  0.5220 -2.7659
   19CHL1   C24 1394   6.005   1.444   8.759 -0.7005 -0.1597  0.5428
   19CHL1  H24A 1395   5.908   1.489   8.729  0.1831  1.1071 -0.4891
   19CHL1  H24B 1396   6.067   1.456   8.668 -1.5577 -0.8774 -0.1588
   19CHL1   C25 1397   5.992   1.294   8.777 -0.7789 -0.1697  0.1430
   19CHL1   H25 1398   5.935   1.266   8.868 -0.7518  1.1313  0.5847
   19CHL1   C26 1399   5.920   1.231   8.659 -0.4733 -0.0520 -0.8282
   19CHL1  H26A 1400   5.980   1.243   8.566 -0.2120 -4.1494 -1.3803
   19CHL1  H26B 1401   5.903   1.122   8.671 -0.4395 -0.5078 -4.0507
   19CHL1  H26C 1402   5.826   1.288   8.641  1.5414  3.7460 -0.4528
   19CHL1   C27 1403   6.129   1.228   8.796 -0.7731  0.3401 -0.3997
   19CHL1  H27A 1404   6.169   1.255   8.896  0.0638  1.4348 -1.0107
   19CHL1  H27B 1405   6.109   1.119   8.797  1.0871 -0.0320  0.7558
   19CHL1  H27C 1406   6.198   1.251   8.712  1.1768 -1.6456  0.5711
   20CHL1    C3 1407   2.510   3.489  10.385  0.2102  0.0294 -0.7205
   20CHL1    H3 1408   2.416   3.545  10.367  1.2834  2.5867  0.9802
   20CHL1    O3 1409   2.521   3.470  10.530  0.3162  0.3726  0.0405
   20CHL1   H3' 1410   2.539   3.553  10.575  0.1593  0.0299  0.7501
   20CHL1    C4 1411   2.523   3.356  10.305 -0.5899 -0.0436 -0.2597
   20CHL1   H4A 1412   2.617   3.304  10.334  0.6193  1.4592 -1.3257
   20CHL1   H4B 1413   2.440   3.287  10.332 -0.2569 -0.6930 -0.8729
   20CHL1    C5 1414   2.528   3.386  10.151 -0.6119 -0.0794 -0.1540
   20CHL1    C6 1415   2.448   3.324  10.069  0.0166  0.0922 -0.8122
   20CHL1    H6 1416   2.375   3.246  10.098  0.0346 -0.3364 -1.8377
   20CHL1    C7 1417   2.443   3.351   9.925 -0.8511  0.8846  0.4601
   20CHL1   H7A 1418   2.447   3.253   9.873 -0.4440  1.7325 -1.2072
   20CHL1   H7B 1419   2.351   3.411   9.910 -0.9510  1.0238  1.5880
   20CHL1    C8 1420   2.564   3.426   9.863 -0.5052  0.0315  0.7984
   20CHL1    H8 1421   2.653   3.361   9.849 -0.6059 -0.1767  1.1175
   20CHL1   C14 1422   2.530   3.488   9.732  0.0441 -0.1749  0.2338
   20CHL1   H14 1423   2.451   3.556   9.770  0.1487 -1.3621  2.7512
   20CHL1   C15 1424   2.456   3.408   9.623  0.2876  0.9150  0.2552
   20CHL1  H15A 1425   2.502   3.308   9.609 -0.3828  0.7518 -0.9033
   20CHL1  H15B 1426   2.353   3.381   9.655  0.2669  0.2095 -0.3540
   20CHL1   C16 1427   2.472   3.501   9.495 -0.1531 -0.0547 -0.1257
   20CHL1  H16A 1428   2.518   3.430   9.422 -1.6586 -2.7450  1.3628
   20CHL1  H16B 1429   2.372   3.530   9.456 -0.4595 -0.6949  0.1639
   20CHL1   C17 1430   2.561   3.622   9.533 -0.6897  0.4713 -0.0414
   20CHL1   H17 1431   2.490   3.700   9.570 -1.8342 -0.1420 -0.8950
   20CHL1   C13 1432   2.633   3.574   9.661  0.4575  0.3202 -0.3235
   20CHL1   C18 1433   2.762   3.487   9.621 -0.6917  0.3030 -0.1227
   20CHL1  H18A 1434   2.830   3.558   9.570 -0.1646  0.0375  0.1968
   20CHL1  H18B 1435   2.813   3.436   9.705 -3.5123 -1.8818  0.4291
   20CHL1  H18C 1436   2.729   3.416   9.542 -1.9912 -0.2532  0.8701
   20CHL1   C12 1437   2.682   3.691   9.764  0.0998  0.4079 -0.1064
   20CHL1  H12A 1438   2.754   3.764   9.721  0.0460  1.9736  2.2994
   20CHL1  H12B 1439   2.595   3.757   9.785  1.0706  1.5087  0.5094
   20CHL1   C11 1440   2.725   3.630   9.899  0.3020 -0.3665  0.6770
   20CHL1  H11A 1441   2.817   3.567   9.896  0.9532  0.4695  2.1742
   20CHL1  H11B 1442   2.748   3.715   9.967  0.7095 -1.2931  1.7366
   20CHL1    C9 1443   2.608   3.544   9.957 -0.6953  0.1879 -0.6241
   20CHL1    H9 1444   2.519   3.610   9.958 -1.2740 -0.2787 -4.4380
   20CHL1   C10 1445   2.631   3.493  10.102 -0.3243  0.1735  0.0495
   20CHL1   C19 1446   2.769   3.437  10.130 -0.4994  0.1381  0.1211
   20CHL1  H19A 1447   2.787   3.350  10.063  0.2239  1.7075 -1.8304
   20CHL1  H19B 1448   2.850   3.511  10.112 -1.1535  0.7440 -0.3850
   20CHL1  H19C 1449   2.779   3.403  10.236 -0.8070 -2.3051 -0.5652
   20CHL1    C1 1450   2.617   3.615  10.193 -0.3251 -0.1622 -0.0721
   20CHL1   H1A 1451   2.710   3.673  10.172  0.5700 -1.4890  0.1102
   20CHL1   H1B 1452   2.528   3.681  10.184  1.7778  3.0391  0.8855
   20CHL1    C2 1453   2.618   3.583  10.347  0.1594 -0.6072 -0.4281
   20CHL1   H2A 1454   2.616   3.680  10.401  0.4509  0.4032 -2.1348
   20CHL1   H2B 1455   2.708   3.526  10.377 -0.6184 -0.7738  1.7242
   20CHL1   C20 1456   2.641   3.669   9.413 -0.4866 -1.1816 -0.3540
   20CHL1   H20 1457   2.716   3.598   9.372  2.2290  1.2999 -0.0934
   20CHL1   C21 1458   2.717   3.801   9.444  0.3329 -0.0403  0.1493
   20CHL1  H21A 1459   2.778   3.796   9.536 -0.0824 -3.4847  0.4010
   20CHL1  H21B 1460   2.637   3.878   9.446 -0.0098 -0.4001  1.9767
   20CHL1  H21C 1461   2.785   3.822   9.359  0.6652  1.7454  0.8316
   20CHL1   C22 1462   2.548   3.701   9.293 -0.6634 -0.0402 -0.3838
   20CHL1  H22A 1463   2.472   3.621   9.280  1.6207 -2.9143  2.2840
   20CHL1  H22B 1464   2.496   3.796   9.317  1.4743  1.1582 -0.2532
   20CHL1   C23 1465   2.625   3.725   9.159 -0.1481 -0.5945 -0.4386
   20CHL1  H23A 1466   2.700   3.807   9.162 -0.4437 -0.3426  1.7241
   20CHL1  H23B 1467   2.670   3.628   9.132 -0.6115 -0.6358 -1.0916
   20CHL1   C24 1468   2.531   3.757   9.045  0.3057 -0.3005 -0.4460
   20CHL1  H24A 1469   2.591   3.759   8.952  0.5504 -0.5935 -0.2950
   20CHL1  H24B 1470   2.457   3.674   9.040  1.3458 -1.3989  1.5413
   20CHL1   C25 1471   2.464   3.896   9.055 -0.3796  0.3967 -0.2751
   20CHL1   H25 1472   2.414   3.910   9.154 -0.5761 -1.4409 -0.0739
   20CHL1   C26 1473   2.557   4.012   9.031  0.5502  0.4185  0.0420
   20CHL1  H26A 1474   2.647   4.015   9.097  0.5023  0.3583  0.1109
   20CHL1  H26B 1475   2.582   3.995   8.925 -0.4766 -0.1404 -0.1256
   20CHL1  H26C 1476   2.495   4.103   9.048 -1.0201 -0.9509  2.2336
   20CHL1   C27 1477   2.353   3.903   8.953 -0.3574  0.0591 -0.0119
   20CHL1  H27A 1478   2.275   3.828   8.979  0.3091 -0.8222 -0.4740
   20CHL1  H27B 1479   2.316   4.007   8.958  2.0524  1.0106 -0.2756
   20CHL1  H27C 1480   2.398   3.892   8.852  0.9640 -2.1595  0.7487
   21CHL1    C3 1481   2.137   4.647  10.405 -0.0063  0.6071 -0.2246
   21CHL1    H3 1482   2.062   4.572  10.373 -0.3723  0.9961 -0.2878
   21CHL1    O3 1483   2.156   4.630  10.547  0.5660  0.0160 -0.4200
   21CHL1   H3' 1484   2.246   4.600  10.560  1.6332  3.5188  1.7128
   21CHL1    C4 1485   2.266   4.608  10.330  0.2339 -0.1740 -0.1457
   21CHL1   H4A 1486   2.338   4.685  10.364 -0.0471 -0.7473  1.8833
   21CHL1   H4B 1487   2.295   4.508  10.366  1.2415 -0.8862 -2.7459
   21CHL1    C5 1488   2.246   4.618  10.178  0.2930  0.4381  0.6015
   21CHL1    C6 1489   2.275   4.513  10.089  0.0502  0.1307 -0.3137
   21CHL1    H6 1490   2.314   4.422  10.137 -1.0600  2.0241  4.7802
   21CHL1    C7 1491   2.252   4.513   9.939 -0.1522  0.1767 -0.7115
   21CHL1   H7A 1492   2.339   4.471   9.884  0.6118  0.6057  0.1435
   21CHL1   H7B 1493   2.170   4.443   9.912 -0.7520  1.4164 -2.2458
   21CHL1    C8 1494   2.223   4.655   9.884  0.2424 -0.1210  0.2058
   21CHL1    H8 1495   2.324   4.702   9.878 -0.9959  2.6803 -0.5146
   21CHL1   C14 1496   2.167   4.642   9.743  0.1467 -0.7247  0.4165
   21CHL1   H14 1497   2.062   4.609   9.755 -0.5306  1.2885  0.2148
   21CHL1   C15 1498   2.225   4.542   9.650 -0.2796 -0.0776  0.5107
   21CHL1  H15A 1499   2.335   4.534   9.639 -0.4920 -0.4531 -1.6969
   21CHL1  H15B 1500   2.184   4.440   9.666 -0.2026 -0.9755 -3.8596
   21CHL1   C16 1501   2.170   4.581   9.511 -0.1374  0.3421  0.0558
   21CHL1  H16A 1502   2.256   4.602   9.444 -0.4724  0.2542 -0.4051
   21CHL1  H16B 1503   2.113   4.502   9.459  1.5781 -0.4933 -0.6317
   21CHL1   C17 1504   2.086   4.708   9.532 -0.0143 -0.8367  0.0868
   21CHL1   H17 1505   1.982   4.676   9.558 -0.5172 -0.4605 -1.3708
   21CHL1   C13 1506   2.142   4.771   9.668  0.3337 -0.6760 -0.0497
   21CHL1   C18 1507   2.270   4.850   9.651 -0.5190 -0.4904  0.4273
   21CHL1  H18A 1508   2.348   4.788   9.600  1.7562  2.3361  0.2068
   21CHL1  H18B 1509   2.265   4.945   9.594 -0.0426 -0.9027 -0.3229
   21CHL1  H18C 1510   2.315   4.867   9.751 -0.0340 -0.2815  0.1802
   21CHL1   C12 1511   2.048   4.860   9.755  0.1773  0.1880  0.1716
   21CHL1  H12A 1512   2.063   4.967   9.728 -2.1602  0.6000  0.2368
   21CHL1  H12B 1513   1.945   4.829   9.726  1.0093 -1.9942 -0.6511
   21CHL1   C11 1514   2.078   4.858   9.906  0.0519 -0.1855 -0.7555
   21CHL1  H11A 1515   2.165   4.926   9.909 -0.3644  0.3361  0.3030
   21CHL1  H11B 1516   1.992   4.902   9.962  0.7676 -2.0818  2.0777
   21CHL1    C9 1517   2.127   4.731   9.970  0.5159  0.3890  0.0288
   21CHL1    H9 1518   2.034   4.671   9.973  0.3876  0.4540 -1.7411
   21CHL1   C10 1519   2.172   4.747  10.122  0.4963  0.5062 -0.6993
   21CHL1   C19 1520   2.269   4.861  10.137  0.0305  0.0493  0.5708
   21CHL1  H19A 1521   2.336   4.860  10.049  0.5605  2.3963  0.8854
   21CHL1  H19B 1522   2.219   4.960  10.145 -1.9874 -1.0036  2.0959
   21CHL1  H19C 1523   2.310   4.853  10.240 -1.4895 -0.4627  1.1640
   21CHL1    C1 1524   2.047   4.781  10.213 -0.1315  0.8325 -0.4723
   21CHL1   H1A 1525   2.010   4.882  10.185  1.9471  1.6464 -0.4530
   21CHL1   H1B 1526   1.968   4.704  10.195 -1.4357  1.8182  0.7634
   21CHL1    C2 1527   2.075   4.782  10.367  0.4761  0.1149  0.3331
   21CHL1   H2A 1528   1.979   4.798  10.422  0.1684 -0.8535  0.0966
   21CHL1   H2B 1529   2.134   4.871  10.395  1.3484 -1.4126  3.8073
   21CHL1   C20 1530   2.075   4.796   9.402 -0.1831 -0.4313 -0.1974
   21CHL1   H20 1531   2.172   4.845   9.380 -0.3551  0.3492  0.7116
   21CHL1   C21 1532   1.970   4.901   9.421  0.7540  0.1332 -0.0023
   21CHL1  H21A 1533   1.966   4.969   9.333  0.5789 -0.8343 -0.7654
   21CHL1  H21B 1534   2.007   4.957   9.509 -0.2442 -0.0766  0.5716
   21CHL1  H21C 1535   1.864   4.870   9.436  1.1513 -1.2083  0.1873
   21CHL1   C22 1536   2.047   4.708   9.275 -0.1321 -0.3337  0.7478
   21CHL1  H22A 1537   2.103   4.613   9.258 -1.0059 -0.8702  0.8051
   21CHL1  H22B 1538   1.940   4.684   9.288 -0.7557  0.6869 -2.0322
   21CHL1   C23 1539   2.069   4.794   9.145 -0.5403  0.4349  0.3984
   21CHL1  H23A 1540   2.023   4.895   9.143 -1.9561 -0.1805 -0.1762
   21CHL1  H23B 1541   2.175   4.810   9.117 -0.7592 -0.1156 -0.8421
   21CHL1   C24 1542   2.003   4.741   9.014  1.3637  1.6193  0.3388
   21CHL1  H24A 1543   1.892   4.745   9.024  1.0280 -2.9421  0.6243
   21CHL1  H24B 1544   2.037   4.812   8.936  1.0204  1.5790  0.1504
   21CHL1   C25 1545   2.039   4.599   8.974 -0.3271  0.0384  0.1065
   21CHL1   H25 1546   2.033   4.536   9.065  1.8547 -0.2993  0.0568
   21CHL1   C26 1547   1.939   4.543   8.871  0.5942  0.3873  0.4029
   21CHL1  H26A 1548   1.831   4.556   8.894 -0.0113 -0.6662 -1.5955
   21CHL1  H26B 1549   1.966   4.604   8.782  1.8859  0.2715  0.6934
   21CHL1  H26C 1550   1.954   4.436   8.848 -1.0844 -0.0980  1.3425
   21CHL1   C27 1551   2.184   4.590   8.923  0.1599 -0.2854  0.2569
   21CHL1  H27A 1552   2.246   4.631   9.005  0.0520  1.0246 -0.2997
   21CHL1  H27B 1553   2.220   4.489   8.895  2.0366 -0.1835  2.0328
   21CHL1  H27C 1554   2.191   4.657   8.835 -0.3574 -1.7469 -0.9560
   22CHL1    C3 1555   1.535   0.497   9.881 -0.8026 -0.7229  0.1816
   22CHL1    H3 1556   1.617   0.565   9.849 -1.3926  0.8471  1.7929
   22CHL1    O3 1557   1.514   0.524  10.017 -0.0464 -0.0002 -0.4007
   22CHL1   H3' 1558   1.447   0.466  10.055  2.0886 -1.3288  1.6470
   22CHL1    C4 1559   1.404   0.532   9.803 -0.1899 -0.0079 -0.0226
   22CHL1   H4A 1560   1.320   0.471   9.842  0.0712 -0.6999 -0.5244
   22CHL1   H4B 1561   1.401   0.642   9.820  0.4452  0.2843 -1.5552
   22CHL1    C5 1562   1.440   0.503   9.655  0.6472 -0.5143  0.5565
   22CHL1    C6 1563   1.418   0.594   9.558  0.3780  0.0677 -0.0631
   22CHL1    H6 1564   1.368   0.689   9.582 -0.3532 -0.6256  1.2221
   22CHL1    C7 1565   1.450   0.581   9.411 -0.3340  0.4489 -0.3464
   22CHL1   H7A 1566   1.367   0.621   9.348 -0.4884 -0.5152 -0.7807
   22CHL1   H7B 1567   1.534   0.653   9.401  0.9155 -0.7592  0.9454
   22CHL1    C8 1568   1.491   0.441   9.376 -0.0423  0.6072  0.7739
   22CHL1    H8 1569   1.403   0.373   9.365 -0.6348  1.5615 -0.6812
   22CHL1   C14 1570   1.561   0.430   9.244  0.8484 -0.1130 -0.3209
   22CHL1   H14 1571   1.653   0.490   9.261 -0.1148  0.6060  2.9328
   22CHL1   C15 1572   1.498   0.497   9.119 -0.1049  0.3088 -0.3294
   22CHL1  H15A 1573   1.393   0.461   9.118  0.7814 -2.4795 -0.8895
   22CHL1  H15B 1574   1.509   0.607   9.124  0.1295  0.3298 -1.1199
   22CHL1   C16 1575   1.560   0.429   8.999 -0.6018 -0.3339  0.4579
   22CHL1  H16A 1576   1.488   0.377   8.933  1.7658 -2.2051 -0.7792
   22CHL1  H16B 1577   1.607   0.509   8.938 -0.7773  0.1644  0.9640
   22CHL1   C17 1578   1.665   0.327   9.049 -0.4445  0.5482 -0.9577
   22CHL1   H17 1579   1.750   0.396   9.070 -0.7048 -0.2234  3.8429
   22CHL1   C13 1580   1.611   0.292   9.193  0.4363 -0.1619 -0.6972
   22CHL1   C18 1581   1.498   0.190   9.154 -0.0945 -0.5805  0.5197
   22CHL1  H18A 1582   1.550   0.094   9.137  0.3370 -0.4605  1.1325
   22CHL1  H18B 1583   1.433   0.184   9.244 -0.5932  0.7463  0.2729
   22CHL1  H18C 1584   1.442   0.225   9.064 -1.8500 -0.1049  1.7405
   22CHL1   C12 1585   1.707   0.235   9.291  0.7234  0.6827  0.1913
   22CHL1  H12A 1586   1.742   0.133   9.266  2.6738  1.0476  1.1944
   22CHL1  H12B 1587   1.803   0.290   9.284  0.0051  2.0956  1.0017
   22CHL1   C11 1588   1.652   0.249   9.434 -0.5088 -0.0160 -0.4344
   22CHL1  H11A 1589   1.575   0.169   9.447 -1.7112  0.9285 -1.4586
   22CHL1  H11B 1590   1.738   0.222   9.499 -1.3729  1.3630  1.3769
   22CHL1    C9 1591   1.591   0.385   9.483  1.0052 -0.0948 -0.4868
   22CHL1    H9 1592   1.676   0.456   9.480  2.8098 -2.1686 -0.9734
   22CHL1   C10 1593   1.524   0.378   9.623  0.2494  0.5775 -1.2232
   22CHL1   C19 1594   1.414   0.274   9.623 -0.1385 -0.5202  0.5276
   22CHL1  H19A 1595   1.339   0.298   9.545  0.5437  0.1727  0.0668
   22CHL1  H19B 1596   1.449   0.170   9.612  0.4727 -0.3334  0.6605
   22CHL1  H19C 1597   1.352   0.263   9.715 -4.4667 -1.3989 -2.1572
   22CHL1    C1 1598   1.632   0.337   9.719  0.5556  0.0942 -0.1270
   22CHL1   H1A 1599   1.651   0.230   9.698  1.0170 -0.3891  2.4015
   22CHL1   H1B 1600   1.729   0.386   9.696  0.1819  0.0105 -2.0157
   22CHL1    C2 1601   1.602   0.362   9.865 -0.6568  0.4556  0.1030
   22CHL1   H2A 1602   1.704   0.356   9.908 -1.0000  1.5906  1.1590
   22CHL1   H2B 1603   1.536   0.281   9.902 -0.1223  0.7684  1.8494
   22CHL1   C20 1604   1.699   0.224   8.941 -0.1319 -0.1725 -0.2452
   22CHL1   H20 1605   1.609   0.159   8.932  1.2548 -2.1125 -0.8419
   22CHL1   C21 1606   1.818   0.143   8.987 -0.2808 -0.6593 -0.6344
   22CHL1  H21A 1607   1.797   0.069   9.067 -1.1754 -0.2245 -0.4551
   22CHL1  H21B 1608   1.894   0.218   9.019 -0.3336 -1.3207  1.1701
   22CHL1  H21C 1609   1.866   0.080   8.909  0.9484 -0.0992 -0.3672
   22CHL1   C22 1610   1.722   0.272   8.800 -0.4845 -0.0469  0.4455
   22CHL1  H22A 1611   1.749   0.178   8.747 -0.4378 -0.0445  0.4643
   22CHL1  H22B 1612   1.633   0.319   8.752  0.1268  0.5319 -0.1533
   22CHL1   C23 1613   1.841   0.358   8.776  0.0825 -0.0719 -0.1971
   22CHL1  H23A 1614   1.822   0.453   8.831 -0.4981 -0.6387  0.6149
   22CHL1  H23B 1615   1.932   0.316   8.822 -0.9595 -3.6689 -1.0804
   22CHL1   C24 1616   1.871   0.378   8.624  0.1657  0.0019 -0.4874
   22CHL1  H24A 1617   1.910   0.283   8.582 -3.2359 -2.2266  0.9331
   22CHL1  H24B 1618   1.776   0.408   8.574 -0.8332  1.0298  1.8777
   22CHL1   C25 1619   1.976   0.493   8.590  0.7040  0.3208 -0.5507
   22CHL1   H25 1620   1.950   0.577   8.658 -0.8282 -1.9696  1.9479
   22CHL1   C26 1621   2.115   0.441   8.625  0.6613 -0.1381 -0.5317
   22CHL1  H26A 1622   2.201   0.506   8.598  0.4939  0.0668 -0.5784
   22CHL1  H26B 1623   2.125   0.418   8.733  1.5730  0.8428 -0.3916
   22CHL1  H26C 1624   2.142   0.344   8.578  1.1003 -1.9214  3.0863
   22CHL1   C27 1625   1.973   0.545   8.447 -0.1148  0.7611  0.0489
   22CHL1  H27A 1626   1.869   0.583   8.439 -0.7127 -0.4804  1.5800
   22CHL1  H27B 1627   2.058   0.615   8.426  2.6117 -1.9393  1.3830
   22CHL1  H27C 1628   1.986   0.463   8.373  0.4053  1.7620 -1.0281
   23CHL1    C3 1629   2.154   0.612  10.147  0.0534 -0.1831  0.2520
   23CHL1    H3 1630   2.264   0.628  10.147  0.1032 -0.5293  0.5117
   23CHL1    O3 1631   2.099   0.633  10.272 -0.0851  0.4028  0.0427
   23CHL1   H3' 1632   2.039   0.557  10.278  0.6788 -0.3700 -1.6259
   23CHL1    C4 1633   2.077   0.708  10.044  0.1021  0.0509  0.5618
   23CHL1   H4A 1634   1.967   0.693  10.054  0.2232 -2.8090 -1.1237
   23CHL1   H4B 1635   2.095   0.813  10.076 -1.6507  0.2176  1.1010
   23CHL1    C5 1636   2.109   0.681   9.899  0.3003  0.2935  0.4401
   23CHL1    C6 1637   2.151   0.784   9.823 -0.4484  0.0589  0.5765
   23CHL1    H6 1638   2.161   0.889   9.856 -0.2625  0.3259 -0.2965
   23CHL1    C7 1639   2.186   0.761   9.681 -0.5482 -0.2156 -0.0225
   23CHL1   H7A 1640   2.143   0.838   9.612  0.6125 -0.6784 -1.3043
   23CHL1   H7B 1641   2.296   0.774   9.674 -0.5465  1.4413  2.1099
   23CHL1    C8 1642   2.152   0.628   9.617  0.5118  0.3984  0.0168
   23CHL1    H8 1643   2.041   0.633   9.608  0.4954  1.7898  0.7523
   23CHL1   C14 1644   2.224   0.610   9.480  0.2766 -0.2361 -0.8737
   23CHL1   H14 1645   2.334   0.617   9.492  0.1624 -0.7055  0.6631
   23CHL1   C15 1646   2.188   0.715   9.378  0.1720 -0.4515 -0.1093
   23CHL1  H15A 1647   2.082   0.745   9.391  0.1452 -0.5144 -0.1778
   23CHL1  H15B 1648   2.252   0.806   9.384 -0.3696  0.2211 -3.0660
   23CHL1   C16 1649   2.217   0.640   9.242  0.2900 -0.4289 -0.4650
   23CHL1  H16A 1650   2.144   0.664   9.162 -0.2359  2.1101  0.6963
   23CHL1  H16B 1651   2.308   0.685   9.196  0.6170 -0.8000 -0.1907
   23CHL1   C17 1652   2.262   0.490   9.280 -0.2204 -0.4757  0.1591
   23CHL1   H17 1653   2.370   0.488   9.307  0.0200 -1.2836 -0.8151
   23CHL1   C13 1654   2.195   0.481   9.416 -0.0216  0.5231  0.5608
   23CHL1   C18 1655   2.043   0.471   9.389 -0.1202  0.6689  0.3316
   23CHL1  H18A 1656   2.003   0.380   9.338 -2.9071  1.6795  0.5092
   23CHL1  H18B 1657   1.990   0.467   9.486  0.5174 -0.3775  0.6474
   23CHL1  H18C 1658   2.003   0.554   9.326 -0.3875  0.9296  0.8387
   23CHL1   C12 1659   2.237   0.363   9.507  0.2873 -0.6087  0.1625
   23CHL1  H12A 1660   2.225   0.261   9.464 -1.8289  0.5064 -2.1360
   23CHL1  H12B 1661   2.348   0.373   9.513  0.2144  0.5452 -0.2717
   23CHL1   C11 1662   2.170   0.373   9.648  0.5973 -0.1206 -0.6061
   23CHL1  H11A 1663   2.064   0.346   9.630  0.5795 -0.5997  0.1807
   23CHL1  H11B 1664   2.209   0.291   9.712 -2.5752 -1.1334  0.2159
   23CHL1    C9 1665   2.175   0.513   9.718  0.3727 -0.7663  0.2417
   23CHL1    H9 1666   2.283   0.529   9.739  1.2224 -0.9185 -3.3660
   23CHL1   C10 1667   2.102   0.537   9.857  0.2359 -0.0363  0.0230
   23CHL1   C19 1668   1.953   0.494   9.845  0.2682  0.4199 -0.1789
   23CHL1  H19A 1669   1.953   0.383   9.847 -0.7711  0.4082 -0.2181
   23CHL1  H19B 1670   1.895   0.532   9.932  0.0828  1.6673 -0.8237
   23CHL1  H19C 1671   1.914   0.517   9.744  1.6648  0.6690 -0.6944
   23CHL1    C1 1672   2.180   0.445   9.958  0.7828 -0.7032 -0.5629
   23CHL1   H1A 1673   2.171   0.337   9.934  3.1989 -0.7029 -1.7689
   23CHL1   H1B 1674   2.288   0.468   9.949  0.2358  1.6114 -1.7510
   23CHL1    C2 1675   2.127   0.466  10.096 -0.1601  0.9085 -0.4310
   23CHL1   H2A 1676   2.178   0.384  10.152  0.3298  0.9840 -0.7588
   23CHL1   H2B 1677   2.022   0.434  10.111  0.8483 -1.9299  1.6044
   23CHL1   C20 1678   2.235   0.387   9.164 -0.0886  0.1711 -0.4236
   23CHL1   H20 1679   2.125   0.376   9.155 -0.2870 -0.3762  2.0481
   23CHL1   C21 1680   2.301   0.251   9.196  0.5695 -0.6774 -0.4184
   23CHL1  H21A 1681   2.328   0.211   9.096 -1.5177  0.8160 -1.6699
   23CHL1  H21B 1682   2.249   0.170   9.251  0.1550 -2.0626 -2.6910
   23CHL1  H21C 1683   2.398   0.268   9.247  0.4417  2.3067 -0.9957
   23CHL1   C22 1684   2.294   0.441   9.036 -0.5411  0.1473  0.2548
   23CHL1  H22A 1685   2.264   0.365   8.961 -0.3240 -1.8500  2.1029
   23CHL1  H22B 1686   2.239   0.537   9.024 -2.5306 -0.9110  0.6624
   23CHL1   C23 1687   2.449   0.458   9.036  0.6085  0.3473 -0.1279
   23CHL1  H23A 1688   2.474   0.527   9.119 -1.3747 -0.6773  1.4158
   23CHL1  H23B 1689   2.515   0.372   9.057  0.4242 -0.1571 -1.5173
   23CHL1   C24 1690   2.492   0.508   8.897 -0.4124 -0.2145  0.1930
   23CHL1  H24A 1691   2.439   0.459   8.813  1.4759  0.2292 -1.3328
   23CHL1  H24B 1692   2.481   0.618   8.885  0.3690 -0.2713 -1.4393
   23CHL1   C25 1693   2.645   0.478   8.878 -0.0319  0.0830 -0.5050
   23CHL1   H25 1694   2.662   0.369   8.870  0.4509  0.2204 -1.4685
   23CHL1   C26 1695   2.687   0.527   8.740 -0.1585 -1.0435  0.1276
   23CHL1  H26A 1696   2.780   0.485   8.696 -0.8598 -1.6321 -0.8412
   23CHL1  H26B 1697   2.601   0.509   8.671 -0.2652 -1.8419  0.4658
   23CHL1  H26C 1698   2.703   0.637   8.738 -2.2089 -0.6656 -3.0640
   23CHL1   C27 1699   2.739   0.535   8.983 -0.5391  0.1837 -0.3672
   23CHL1  H27A 1700   2.724   0.474   9.074  1.7923 -0.4984 -0.3936
   23CHL1  H27B 1701   2.841   0.526   8.940 -0.8201 -2.4059 -0.6567
   23CHL1  H27C 1702   2.715   0.640   9.011  1.2092  0.3261  0.7558
   24CHL1    C3 1703   5.666   1.597   9.982 -0.1214 -0.3268 -0.2566
   24CHL1    H3 1704   5.584   1.672   9.984 -0.0864 -0.2985  0.5277
   24CHL1    O3 1705   5.719   1.578  10.114 -0.1307 -0.0430 -0.0011
   24CHL1   H3' 1706   5.785   1.510  10.097  0.5771  0.6867 -0.2091
   24CHL1    C4 1707   5.597   1.458   9.942 -0.2403 -0.1337 -0.0157
   24CHL1   H4A 1708   5.667   1.374   9.963  1.4062  1.1509 -0.2318
   24CHL1   H4B 1709   5.511   1.437  10.011 -1.2792 -0.0323 -1.2475
   24CHL1    C5 1710   5.532   1.455   9.804  0.2040 -0.3301  0.1073
   24CHL1    C6 1711   5.406   1.429   9.780 -0.8083 -0.1211  0.1241
   24CHL1    H6 1712   5.338   1.403   9.863  0.5336 -2.8866  0.4750
   24CHL1    C7 1713   5.350   1.409   9.643 -0.3924 -0.4813  0.8687
   24CHL1   H7A 1714   5.298   1.311   9.631  0.3328 -0.7747 -0.0624
   24CHL1   H7B 1715   5.284   1.495   9.621  1.1052  0.4777  0.0349
   24CHL1    C8 1716   5.463   1.409   9.527 -0.0900 -0.7197 -0.3951
   24CHL1    H8 1717   5.508   1.309   9.546 -1.5692 -1.1288  1.1933
   24CHL1   C14 1718   5.406   1.434   9.393  0.6889 -0.8148  0.2520
   24CHL1   H14 1719   5.384   1.542   9.404 -0.5126 -0.8815 -1.1579
   24CHL1   C15 1720   5.278   1.374   9.340 -0.6185 -0.4185 -0.0153
   24CHL1  H15A 1721   5.266   1.270   9.376 -0.3567 -0.2897  0.4611
   24CHL1  H15B 1722   5.188   1.429   9.375 -1.7776 -1.9983 -0.4104
   24CHL1   C16 1723   5.283   1.389   9.183  0.3642  0.2524  0.0565
   24CHL1  H16A 1724   5.266   1.295   9.127 -2.2696  0.2682  0.7079
   24CHL1  H16B 1725   5.196   1.451   9.153  1.5636  2.5636  1.0363
   24CHL1   C17 1726   5.413   1.454   9.151  0.0167  0.2150 -0.2410
   24CHL1   H17 1727   5.394   1.564   9.155 -3.2091 -0.1688 -1.6151
   24CHL1   C13 1728   5.506   1.419   9.273  0.4345 -0.0607  0.2499
   24CHL1   C18 1729   5.554   1.273   9.261 -0.1531 -0.5965 -0.3409
   24CHL1  H18A 1730   5.469   1.205   9.236 -0.2295 -0.4691 -0.4278
   24CHL1  H18B 1731   5.632   1.275   9.183  1.5221 -0.1265  1.2682
   24CHL1  H18C 1732   5.607   1.251   9.356  1.5919  2.3685 -0.4881
   24CHL1   C12 1733   5.617   1.517   9.294  0.1331  0.1867 -0.0970
   24CHL1  H12A 1734   5.705   1.495   9.231 -0.0504 -0.4741 -0.1364
   24CHL1  H12B 1735   5.591   1.624   9.278  2.1718  0.8773  0.7987
   24CHL1   C11 1736   5.670   1.512   9.436 -0.8117 -0.4594 -0.2879
   24CHL1  H11A 1737   5.730   1.419   9.442 -0.1568  0.0462  3.0597
   24CHL1  H11B 1738   5.746   1.593   9.441  0.2256 -1.3690 -0.9869
   24CHL1    C9 1739   5.567   1.519   9.553  0.5936  0.2290  1.2285
   24CHL1    H9 1740   5.518   1.619   9.547 -0.2551 -0.0380  3.0063
   24CHL1   C10 1741   5.629   1.506   9.696 -0.2318  0.2512  0.1389
   24CHL1   C19 1742   5.729   1.380   9.690 -0.3060 -0.4485  0.0535
   24CHL1  H19A 1743   5.788   1.370   9.783  0.2332  0.4194 -0.1800
   24CHL1  H19B 1744   5.677   1.291   9.648  1.1543 -0.8716 -0.9326
   24CHL1  H19C 1745   5.806   1.418   9.619 -0.1972  0.3453  0.5939
   24CHL1    C1 1746   5.698   1.633   9.735 -0.5173  0.4241  0.0652
   24CHL1   H1A 1747   5.779   1.654   9.661  1.8625 -3.2732  1.3447
   24CHL1   H1B 1748   5.625   1.717   9.726  0.0305  1.1810  2.0483
   24CHL1    C2 1749   5.768   1.637   9.878  0.5689  0.2679  0.2740
   24CHL1   H2A 1750   5.795   1.744   9.889  3.2280 -0.3731  0.5125
   24CHL1   H2B 1751   5.859   1.575   9.888 -0.3961 -1.0188  1.4297
   24CHL1   C20 1752   5.468   1.430   9.009  0.3298 -0.7051 -0.0439
   24CHL1   H20 1753   5.493   1.322   9.005  1.8897 -0.3753 -3.2913
   24CHL1   C21 1754   5.584   1.516   8.973  0.5048 -0.1762 -0.1027
   24CHL1  H21A 1755   5.589   1.524   8.862  1.9299 -3.6798 -0.4242
   24CHL1  H21B 1756   5.674   1.461   9.006  0.2950 -0.9056 -0.7241
   24CHL1  H21C 1757   5.556   1.616   9.013 -1.2876  0.4915 -2.7115
   24CHL1   C22 1758   5.355   1.454   8.903  0.4876  0.6323 -0.6099
   24CHL1  H22A 1759   5.395   1.422   8.804 -0.4789 -0.9427 -0.5363
   24CHL1  H22B 1760   5.262   1.395   8.921  1.4467 -0.5753  0.5476
   24CHL1   C23 1761   5.300   1.600   8.896 -0.1575 -0.3520 -0.0763
   24CHL1  H23A 1762   5.278   1.638   8.998  0.5114 -0.2424  0.0356
   24CHL1  H23B 1763   5.385   1.659   8.855  0.8231 -0.9235  1.0551
   24CHL1   C24 1764   5.167   1.597   8.815  0.1036 -0.3636  0.3028
   24CHL1  H24A 1765   5.194   1.561   8.713 -1.7977 -0.8910 -0.0522
   24CHL1  H24B 1766   5.105   1.523   8.869  0.5274 -0.2104  1.0113
   24CHL1   C25 1767   5.075   1.721   8.819 -0.4143 -0.3272 -0.4008
   24CHL1   H25 1768   5.081   1.773   8.918  0.1209 -1.1528  0.0119
   24CHL1   C26 1769   5.124   1.821   8.712 -0.6186 -0.2348 -0.0163
   24CHL1  H26A 1770   5.105   1.791   8.607 -0.2720  3.6642 -1.3476
   24CHL1  H26B 1771   5.076   1.921   8.711  1.0561  0.6090 -1.0381
   24CHL1  H26C 1772   5.234   1.832   8.704 -0.9097  1.8900 -1.9419
   24CHL1   C27 1773   4.927   1.684   8.812  0.7466 -0.0384 -0.1506
   24CHL1  H27A 1774   4.886   1.640   8.719 -3.1651  2.2454  0.2724
   24CHL1  H27B 1775   4.890   1.613   8.889  1.0926  2.3689  2.3946
   24CHL1  H27C 1776   4.859   1.768   8.839 -0.4241 -1.4166  1.4568
   25CHL1    C3 1777   1.365   4.196  10.324  0.0698 -0.1262  0.2138
   25CHL1    H3 1778   1.355   4.295  10.276  2.0424 -1.9902 -4.7289
   25CHL1    O3 1779   1.383   4.186  10.463  0.1294  0.1266  0.4137
   25CHL1   H3' 1780   1.390   4.094  10.489  0.0245  0.5093  1.9402
   25CHL1    C4 1781   1.249   4.105  10.276  0.1076 -0.1268 -0.2435
   25CHL1   H4A 1782   1.271   4.000  10.304  2.5578  0.1456 -0.9020
   25CHL1   H4B 1783   1.153   4.130  10.327 -0.3662 -1.0012 -0.6676
   25CHL1    C5 1784   1.230   4.102  10.126  0.0328  0.1114 -0.0433
   25CHL1    C6 1785   1.121   4.148  10.060 -0.3466 -0.6077  0.3122
   25CHL1    H6 1786   1.039   4.189  10.120  1.7356 -0.4573  3.2838
   25CHL1    C7 1787   1.099   4.137   9.908 -0.3975 -0.3815 -0.6510
   25CHL1   H7A 1788   0.995   4.117   9.875 -1.1693  4.7008 -2.1903
   25CHL1   H7B 1789   1.113   4.240   9.870 -1.4334  0.3299  0.7986
   25CHL1    C8 1790   1.209   4.049   9.845  0.0968  0.5006  0.1520
   25CHL1    H8 1791   1.186   3.944   9.873  1.6216  0.4364  1.3174
   25CHL1   C14 1792   1.211   4.072   9.693  0.7782 -0.3287  0.4313
   25CHL1   H14 1793   1.241   4.179   9.686  2.0189 -0.7257 -0.9355
   25CHL1   C15 1794   1.076   4.064   9.603  0.3976 -0.6343  0.4189
   25CHL1  H15A 1795   1.026   3.967   9.622  0.3051 -0.4917  0.9068
   25CHL1  H15B 1796   1.003   4.146   9.620  0.6742 -0.6784  1.9608
   25CHL1   C16 1797   1.134   4.049   9.469  0.3620  0.1273  1.5805
   25CHL1  H16A 1798   1.103   3.960   9.410 -0.8569  1.4830  0.0727
   25CHL1  H16B 1799   1.106   4.135   9.404  0.1764 -2.1592 -1.6079
   25CHL1   C17 1800   1.290   4.055   9.472  0.1236 -0.3767 -0.4118
   25CHL1   H17 1801   1.315   4.163   9.481  2.1156 -0.5131 -2.8967
   25CHL1   C13 1802   1.322   4.004   9.618  0.3459  0.1873  0.0518
   25CHL1   C18 1803   1.292   3.853   9.635  0.1449 -0.1442  0.4478
   25CHL1  H18A 1804   1.375   3.790   9.595  1.1696  1.1737  0.4301
   25CHL1  H18B 1805   1.280   3.826   9.742  4.5538  2.7805  1.9610
   25CHL1  H18C 1806   1.209   3.819   9.569  0.1370  0.5477  0.0970
   25CHL1   C12 1807   1.462   4.042   9.679  0.3468  0.6394  0.0583
   25CHL1  H12A 1808   1.549   3.989   9.634  0.9123 -0.1092  1.9592
   25CHL1  H12B 1809   1.479   4.151   9.666  0.2584  0.3156 -5.3470
   25CHL1   C11 1810   1.465   4.015   9.830  0.3485  0.0830  0.3798
   25CHL1  H11A 1811   1.448   3.905   9.833 -0.2199 -0.0960 -3.7415
   25CHL1  H11B 1812   1.564   4.054   9.861  0.7451  0.0107 -0.7648
   25CHL1    C9 1813   1.349   4.084   9.902  0.3346  0.6526 -0.5926
   25CHL1    H9 1814   1.365   4.193   9.887  1.2023  0.5576 -0.3591
   25CHL1   C10 1815   1.359   4.060  10.057  0.2963  0.0804 -0.0995
   25CHL1   C19 1816   1.378   3.906  10.079 -0.1254  0.4128 -0.7212
   25CHL1  H19A 1817   1.362   3.884  10.187  0.9714  1.3883 -0.3306
   25CHL1  H19B 1818   1.303   3.860  10.012 -1.7319  0.7178  0.8143
   25CHL1  H19C 1819   1.483   3.876  10.057  0.5377  0.9474  1.3885
   25CHL1    C1 1820   1.485   4.141  10.104  1.0278  0.7100  0.3703
   25CHL1   H1A 1821   1.583   4.097  10.075  0.7886  1.9532 -2.7049
   25CHL1   H1B 1822   1.486   4.248  10.075 -2.1692  0.6540 -0.2646
   25CHL1    C2 1823   1.498   4.143  10.265 -0.0022  0.0909 -0.3764
   25CHL1   H2A 1824   1.583   4.210  10.291  0.5823 -1.2900  1.4482
   25CHL1   H2B 1825   1.514   4.041  10.306  0.3219  0.1375 -0.3843
   25CHL1   C20 1826   1.359   3.986   9.357  0.3497 -0.2738  0.7377
   25CHL1   H20 1827   1.342   3.876   9.364 -3.3989  0.2927  3.0446
   25CHL1   C21 1828   1.511   4.025   9.350 -0.4177  0.5727 -0.0117
   25CHL1  H21A 1829   1.564   3.970   9.430 -0.2726 -5.1812 -3.5298
   25CHL1  H21B 1830   1.524   4.135   9.336 -0.2397  0.2421 -3.2391
   25CHL1  H21C 1831   1.556   3.973   9.263  1.1310  1.2235  0.3581
   25CHL1   C22 1832   1.291   4.018   9.225 -0.0213  0.0069  0.3087
   25CHL1  H22A 1833   1.180   4.027   9.226 -0.0911  3.1060 -4.3063
   25CHL1  H22B 1834   1.323   4.122   9.203  1.3013 -0.2138  1.0859
   25CHL1   C23 1835   1.323   3.923   9.108  0.0297 -0.4342  0.0421
   25CHL1  H23A 1836   1.432   3.926   9.085 -0.2369  2.5664 -1.4026
   25CHL1  H23B 1837   1.301   3.817   9.132 -1.3738 -0.4866 -1.2826
   25CHL1   C24 1838   1.243   3.956   8.983  0.4369 -0.2783  0.3112
   25CHL1  H24A 1839   1.270   3.884   8.904 -1.6095  0.3133 -0.9849
   25CHL1  H24B 1840   1.137   3.937   9.010  0.6531 -0.6064  0.9501
   25CHL1   C25 1841   1.258   4.099   8.913  0.4284 -0.2387  0.9417
   25CHL1   H25 1842   1.226   4.169   8.993  0.4895  1.1789 -0.2255
   25CHL1   C26 1843   1.405   4.132   8.870  0.0767  0.7249 -0.4810
   25CHL1  H26A 1844   1.444   4.045   8.813 -0.8955  0.2951 -0.4995
   25CHL1  H26B 1845   1.415   4.220   8.803 -0.0024 -0.2911 -1.8800
   25CHL1  H26C 1846   1.474   4.148   8.955 -0.8500 -1.7963  0.8483
   25CHL1   C27 1847   1.161   4.103   8.799  0.0549  0.0688  0.2818
   25CHL1  H27A 1848   1.057   4.076   8.829  0.4044  0.7597  2.2599
   25CHL1  H27B 1849   1.152   4.202   8.749 -1.2074  0.4217  1.1626
   25CHL1  H27C 1850   1.196   4.029   8.723  1.5189 -0.8373  1.7727
   26CHL1    C3 1851   2.638   0.683  10.169  0.1627  0.4912  0.1616
   26CHL1    H3 1852   2.551   0.734  10.124 -0.3790 -0.6936 -0.1913
   26CHL1    O3 1853   2.629   0.653  10.308  0.2171 -0.6743  0.0522
   26CHL1   H3' 1854   2.717   0.638  10.343 -0.5537 -1.9235  1.6120
   26CHL1    C4 1855   2.665   0.551  10.093  0.6705  0.2329  0.1598
   26CHL1   H4A 1856   2.738   0.480  10.137 -0.4176  0.6612  2.8355
   26CHL1   H4B 1857   2.575   0.488  10.100  1.0141 -0.5320 -1.6829
   26CHL1    C5 1858   2.699   0.567   9.949  0.5070  0.6207 -0.3040
   26CHL1    C6 1859   2.626   0.512   9.850 -0.2434  0.1872  0.5744
   26CHL1    H6 1860   2.532   0.465   9.882 -0.4015 -0.3864 -0.6790
   26CHL1    C7 1861   2.649   0.528   9.705  0.2598  0.0288 -0.3524
   26CHL1   H7A 1862   2.641   0.428   9.656  0.4092  0.6738 -1.7674
   26CHL1   H7B 1863   2.567   0.592   9.667 -0.0024  1.5136  2.4650
   26CHL1    C8 1864   2.788   0.592   9.685  0.0505  0.5470 -0.0744
   26CHL1    H8 1865   2.865   0.512   9.693  0.5583  1.1298  0.9950
   26CHL1   C14 1866   2.794   0.653   9.544 -0.4226 -0.2752  0.3178
   26CHL1   H14 1867   2.714   0.730   9.547  1.6992  2.1515 -1.3274
   26CHL1   C15 1868   2.756   0.565   9.425 -0.7563  0.2935 -0.7920
   26CHL1  H15A 1869   2.809   0.467   9.426 -2.0790 -0.4524 -1.0743
   26CHL1  H15B 1870   2.646   0.550   9.432 -0.4969 -1.2275  0.9744
   26CHL1   C16 1871   2.812   0.642   9.304 -0.2339 -0.0982  0.1270
   26CHL1  H16A 1872   2.880   0.579   9.244  1.7387 -1.1200  3.1736
   26CHL1  H16B 1873   2.739   0.688   9.234 -0.1849 -0.1123  0.0666
   26CHL1   C17 1874   2.903   0.754   9.361  0.2386  0.1578  0.0703
   26CHL1   H17 1875   2.838   0.843   9.375  0.4095  0.9472 -3.3280
   26CHL1   C13 1876   2.936   0.713   9.504  0.0420  0.2019 -0.5833
   26CHL1   C18 1877   3.041   0.600   9.498  0.3484 -0.2141  0.0232
   26CHL1  H18A 1878   3.011   0.516   9.431  1.0613 -0.5292  0.0809
   26CHL1  H18B 1879   3.139   0.627   9.453  0.7016 -1.9539 -0.3518
   26CHL1  H18C 1880   3.075   0.552   9.592  0.1258 -0.3142  0.0517
   26CHL1   C12 1881   2.962   0.832   9.603 -0.1360  0.3601  0.7888
   26CHL1  H12A 1882   3.061   0.882   9.593  0.4812 -1.2469 -1.9477
   26CHL1  H12B 1883   2.891   0.916   9.587  0.5511  0.7718 -0.2038
   26CHL1   C11 1884   2.957   0.777   9.745  0.2098  0.2239 -0.2330
   26CHL1  H11A 1885   3.038   0.703   9.764 -0.6438 -0.6222  0.2159
   26CHL1  H11B 1886   2.966   0.864   9.813  1.4135  0.8020 -1.1132
   26CHL1    C9 1887   2.828   0.706   9.778  0.8372  0.0309  0.1549
   26CHL1    H9 1888   2.753   0.785   9.757 -0.1701 -1.0087 -0.3372
   26CHL1   C10 1889   2.812   0.664   9.920 -0.3971 -0.2515 -0.0249
   26CHL1   C19 1890   2.942   0.599   9.982 -0.1838  0.1425  0.6022
   26CHL1  H19A 1891   3.027   0.670   9.980 -0.4256  0.4446  1.1174
   26CHL1  H19B 1892   2.924   0.562  10.085 -2.1173  0.8951  0.5656
   26CHL1  H19C 1893   2.979   0.511   9.924 -1.0263  0.6921 -0.8251
   26CHL1    C1 1894   2.786   0.792  10.007  0.2912  0.8436  0.1360
   26CHL1   H1A 1895   2.876   0.857   9.997 -0.3992  1.9847  1.1059
   26CHL1   H1B 1896   2.696   0.848   9.974 -1.1119 -0.6851  1.2080
   26CHL1    C2 1897   2.755   0.774  10.156 -1.3317  0.1783 -0.0221
   26CHL1   H2A 1898   2.733   0.870  10.207 -0.2406  0.5845 -0.2879
   26CHL1   H2B 1899   2.834   0.723  10.215 -0.6193  0.7108 -0.4907
   26CHL1   C20 1900   3.022   0.785   9.262  0.3110 -0.3815 -0.0397
   26CHL1   H20 1901   3.085   0.693   9.256 -0.6664 -0.9912 -2.8227
   26CHL1   C21 1902   3.107   0.906   9.317 -0.5169  0.4105  0.8554
   26CHL1  H21A 1903   3.158   0.876   9.410  0.3295 -1.3642 -0.1354
   26CHL1  H21B 1904   3.036   0.988   9.341 -1.2666  0.1983 -0.5243
   26CHL1  H21C 1905   3.178   0.934   9.235  0.3384 -1.0140  1.0869
   26CHL1   C22 1906   2.978   0.825   9.121  0.3357  0.3157 -0.2403
   26CHL1  H22A 1907   2.881   0.774   9.103  0.8357 -0.0954 -1.9523
   26CHL1  H22B 1908   2.954   0.934   9.124  2.1737  0.7566  2.7359
   26CHL1   C23 1909   3.086   0.782   9.020  0.3640 -0.1021  0.0479
   26CHL1  H23A 1910   3.178   0.843   9.031  0.9854 -1.2687  1.6566
   26CHL1  H23B 1911   3.121   0.679   9.041  2.0451  0.3176 -0.5582
   26CHL1   C24 1912   3.035   0.791   8.867  0.3410  0.4389 -0.5540
   26CHL1  H24A 1913   2.964   0.706   8.853 -0.5883  0.6949  2.0572
   26CHL1  H24B 1914   2.975   0.885   8.869 -1.1898 -0.4969 -0.3053
   26CHL1   C25 1915   3.140   0.782   8.753 -0.1575 -0.9170  0.0079
   26CHL1   H25 1916   3.091   0.771   8.654 -0.0709 -0.3077 -0.1047
   26CHL1   C26 1917   3.231   0.907   8.758 -0.4321 -0.0667  0.4698
   26CHL1  H26A 1918   3.173   1.001   8.761  1.8006  1.4096 -0.1191
   26CHL1  H26B 1919   3.308   0.900   8.839  1.5131 -1.2860 -1.3795
   26CHL1  H26C 1920   3.293   0.919   8.667 -1.0283 -4.2035 -0.6961
   26CHL1   C27 1921   3.233   0.657   8.761 -0.0313 -0.6149 -0.5418
   26CHL1  H27A 1922   3.314   0.659   8.836 -0.0941 -0.6722 -0.4727
   26CHL1  H27B 1923   3.180   0.560   8.771 -1.2740  0.1258  0.4171
   26CHL1  H27C 1924   3.275   0.655   8.658 -0.2231 -0.5978 -0.6210
   27CHL1    C3 1925   2.460   2.261  10.294 -0.7396  0.2046 -0.0976
   27CHL1    H3 1926   2.504   2.168  10.251 -3.2660 -1.4462  0.6592
   27CHL1    O3 1927   2.437   2.235  10.431 -0.2487 -0.3086  0.0735
   27CHL1   H3' 1928   2.389   2.311  10.464 -0.5145 -0.4257 -0.0398
   27CHL1    C4 1929   2.547   2.382  10.249  0.3480 -0.0062 -0.1130
   27CHL1   H4A 1930   2.493   2.473  10.282  4.1513  2.0766  0.8787
   27CHL1   H4B 1931   2.650   2.383  10.290  0.7291 -3.2736 -0.6950
   27CHL1    C5 1932   2.556   2.382  10.100 -0.1003  0.1791  0.5596
   27CHL1    C6 1933   2.673   2.384  10.034 -0.3378 -0.3141  0.7059
   27CHL1    H6 1934   2.765   2.377  10.093 -1.2319 -1.3327  2.0329
   27CHL1    C7 1935   2.683   2.395   9.885  0.4355  0.4944 -0.4089
   27CHL1   H7A 1936   2.751   2.475   9.850 -0.5104  1.1469 -0.7767
   27CHL1   H7B 1937   2.722   2.300   9.843  0.5627  0.6837 -0.7161
   27CHL1    C8 1938   2.547   2.434   9.815  0.2029  0.4537 -0.1242
   27CHL1    H8 1939   2.523   2.542   9.826 -2.8083  0.1642 -2.5157
   27CHL1   C14 1940   2.559   2.395   9.667 -0.8132 -0.4979  0.0607
   27CHL1   H14 1941   2.589   2.288   9.670 -0.0857 -0.3952 -1.9197
   27CHL1   C15 1942   2.662   2.455   9.572 -0.1039 -0.2183 -0.1240
   27CHL1  H15A 1943   2.649   2.565   9.568 -2.1483 -0.4172  0.2929
   27CHL1  H15B 1944   2.766   2.432   9.605  0.6306  1.2548 -1.3045
   27CHL1   C16 1945   2.622   2.404   9.433 -0.1450  0.4937 -0.1166
   27CHL1  H16A 1946   2.654   2.477   9.356  1.0736  0.5138  0.3745
   27CHL1  H16B 1947   2.694   2.320   9.421 -2.0168 -0.9154 -2.3057
   27CHL1   C17 1948   2.481   2.347   9.443  0.5481  0.6000  0.0495
   27CHL1   H17 1949   2.497   2.237   9.448  1.2448  0.6902 -0.0823
   27CHL1   C13 1950   2.432   2.402   9.580 -0.1661  0.2726  0.1969
   27CHL1   C18 1951   2.388   2.549   9.568 -0.3759  0.4285 -0.4744
   27CHL1  H18A 1952   2.375   2.598   9.667  1.3299 -1.1215  0.6124
   27CHL1  H18B 1953   2.462   2.612   9.515  0.2703 -0.6899 -0.9511
   27CHL1  H18C 1954   2.289   2.553   9.518 -0.0344 -0.5277 -1.2619
   27CHL1   C12 1955   2.326   2.307   9.647 -0.1366 -0.5247  0.3047
   27CHL1  H12A 1956   2.237   2.313   9.580 -0.4742 -3.0658  0.4265
   27CHL1  H12B 1957   2.358   2.201   9.644  1.8905  0.0287 -2.4792
   27CHL1   C11 1958   2.308   2.367   9.788 -0.0307 -0.0518  0.5116
   27CHL1  H11A 1959   2.271   2.472   9.792  0.9160  0.2953  0.5873
   27CHL1  H11B 1960   2.230   2.302   9.833 -0.4542  0.0581 -0.0451
   27CHL1    C9 1961   2.438   2.349   9.871 -0.5326 -0.0739 -0.1063
   27CHL1    H9 1962   2.470   2.245   9.852  1.9220  1.0118 -2.4812
   27CHL1   C10 1963   2.417   2.374  10.024  0.1911 -0.0060  0.0550
   27CHL1   C19 1964   2.348   2.516  10.050  0.1883  0.8906 -0.3217
   27CHL1  H19A 1965   2.261   2.534   9.983 -1.8693  1.0471  2.2412
   27CHL1  H19B 1966   2.316   2.522  10.156  0.3366 -0.5180 -0.1708
   27CHL1  H19C 1967   2.423   2.592  10.020  0.8294 -0.4431 -2.3841
   27CHL1    C1 1968   2.329   2.265  10.084  0.5398 -0.0162  0.2675
   27CHL1   H1A 1969   2.231   2.288  10.037  1.2739 -2.8033 -2.9982
   27CHL1   H1B 1970   2.366   2.170  10.041 -1.2371 -0.4006 -0.4801
   27CHL1    C2 1971   2.313   2.261  10.233 -0.0545 -0.3102 -0.1598
   27CHL1   H2A 1972   2.259   2.165  10.248  0.7239 -0.8489 -0.6821
   27CHL1   H2B 1973   2.240   2.327  10.285 -0.3765  0.5627 -1.6537
   27CHL1   C20 1974   2.381   2.353   9.333  0.2713 -0.0218 -0.4492
   27CHL1   H20 1975   2.307   2.431   9.360 -0.1253 -0.0562 -1.4038
   27CHL1   C21 1976   2.292   2.222   9.320 -0.3246  0.3520  0.3651
   27CHL1  H21A 1977   2.238   2.198   9.415  0.4043  0.5062  0.8259
   27CHL1  H21B 1978   2.365   2.141   9.300  2.0970  3.0548 -2.7645
   27CHL1  H21C 1979   2.217   2.233   9.239  1.3313  2.1449 -1.0416
   27CHL1   C22 1980   2.452   2.370   9.199  0.1805 -0.4163 -0.2155
   27CHL1  H22A 1981   2.497   2.471   9.206 -0.1302  0.1263 -4.0305
   27CHL1  H22B 1982   2.537   2.298   9.200  1.2005  0.7605  0.2209
   27CHL1   C23 1983   2.365   2.367   9.077 -0.4057 -0.3972 -0.1807
   27CHL1  H23A 1984   2.304   2.274   9.078 -1.0360 -0.0336 -1.5443
   27CHL1  H23B 1985   2.296   2.454   9.075  0.6573  0.4782 -2.7262
   27CHL1   C24 1986   2.445   2.385   8.940  0.3398 -0.3677 -0.6515
   27CHL1  H24A 1987   2.506   2.477   8.947 -0.2274 -0.0346  0.1756
   27CHL1  H24B 1988   2.524   2.308   8.927  2.1249  1.5946 -2.1412
   27CHL1   C25 1989   2.353   2.407   8.824 -0.0073 -0.0454  0.1054
   27CHL1   H25 1990   2.283   2.322   8.813 -0.3848 -0.0282  2.0669
   27CHL1   C26 1991   2.268   2.532   8.828  0.1268  0.0250  0.1964
   27CHL1  H26A 1992   2.199   2.551   8.913 -0.0068  2.6372 -0.4130
   27CHL1  H26B 1993   2.343   2.614   8.834  0.9039 -0.6798  0.3625
   27CHL1  H26C 1994   2.216   2.533   8.730  0.9458  0.2296 -0.2515
   27CHL1   C27 1995   2.435   2.411   8.694 -0.4627 -0.4789  0.3478
   27CHL1  H27A 1996   2.366   2.412   8.607 -1.2862  0.3978  0.9810
   27CHL1  H27B 1997   2.475   2.514   8.686 -4.4440  1.2952  0.5047
   27CHL1  H27C 1998   2.517   2.337   8.697  0.1230  0.1719  1.0127
   28CHL1    C3 1999   1.275   1.934  10.121 -0.1601 -0.1204 -0.2042
   28CHL1    H3 2000   1.354   1.997  10.074 -1.0870  0.7213 -0.6801
   28CHL1    O3 2001   1.281   1.953  10.263  0.3350  0.2075 -0.0424
   28CHL1   H3' 2002   1.216   1.887  10.291 -0.3009  0.1262 -1.5986
   28CHL1    C4 2003   1.138   1.982  10.069 -0.4382 -0.4863 -0.4910
   28CHL1   H4A 2004   1.067   1.915  10.123  0.2234  0.3524  1.4866
   28CHL1   H4B 2005   1.103   2.083  10.099 -1.0057 -0.7883 -0.1081
   28CHL1    C5 2006   1.130   1.961   9.916  0.8769  0.0137 -0.0612
   28CHL1    C6 2007   1.096   2.066   9.841  0.2498 -0.5374 -0.2175
   28CHL1    H6 2008   1.076   2.164   9.886  0.5009  0.2222 -1.6972
   28CHL1    C7 2009   1.069   2.071   9.690 -0.5318  0.1124 -0.2812
   28CHL1   H7A 2010   0.967   2.104   9.660 -0.9471 -0.8150  0.0653
   28CHL1   H7B 2011   1.144   2.135   9.640 -0.2408  2.3217  2.6815
   28CHL1    C8 2012   1.076   1.923   9.636  0.3622 -0.7453 -0.1805
   28CHL1    H8 2013   0.974   1.885   9.658  0.8576 -0.7331  2.4113
   28CHL1   C14 2014   1.105   1.918   9.482  0.0004 -0.3338  0.2716
   28CHL1   H14 2015   1.208   1.959   9.475 -0.0957 -0.0985  0.2458
   28CHL1   C15 2016   1.008   1.989   9.378 -0.6935 -0.5611 -0.1260
   28CHL1  H15A 2017   0.904   1.967   9.410 -1.2373 -0.4143 -1.7103
   28CHL1  H15B 2018   1.022   2.099   9.388 -0.0380 -0.5662 -0.9246
   28CHL1   C16 2019   1.028   1.923   9.242 -0.0802  0.1003 -0.4843
   28CHL1  H16A 2020   0.928   1.894   9.203 -0.0916  0.2557 -0.5713
   28CHL1  H16B 2021   1.080   1.992   9.172  0.4832  2.9477  2.5028
   28CHL1   C17 2022   1.122   1.809   9.271  0.6979 -0.2413  0.5140
   28CHL1   H17 2023   1.222   1.858   9.273  0.2606  0.6670  1.2046
   28CHL1   C13 2024   1.113   1.779   9.427  0.0708 -0.3592 -0.1666
   28CHL1   C18 2025   0.976   1.709   9.448 -0.1497  0.2680 -0.2796
   28CHL1  H18A 2026   0.990   1.603   9.417  3.7009  0.8423 -1.0398
   28CHL1  H18B 2027   0.947   1.711   9.555  0.8731 -0.0975  0.0166
   28CHL1  H18C 2028   0.903   1.768   9.389  0.4738  1.7106  0.3333
   28CHL1   C12 2029   1.229   1.703   9.488  0.5602 -0.0448 -0.6924
   28CHL1  H12A 2030   1.220   1.603   9.440  2.0260  1.9381 -5.6525
   28CHL1  H12B 2031   1.331   1.734   9.460  1.2583 -1.2054  0.3967
   28CHL1   C11 2032   1.212   1.696   9.640 -0.0115 -0.2166  0.1633
   28CHL1  H11A 2033   1.122   1.638   9.672  1.2449 -1.1132  2.3048
   28CHL1  H11B 2034   1.305   1.648   9.678  0.1556  0.6127  0.8133
   28CHL1    C9 2035   1.176   1.831   9.705 -0.6828  0.1664 -0.5000
   28CHL1    H9 2036   1.274   1.879   9.689  0.2583 -0.0149  3.5364
   28CHL1   C10 2037   1.166   1.822   9.861  0.1366  0.1134 -0.1944
   28CHL1   C19 2038   1.039   1.738   9.900 -0.3665 -0.1614 -0.2336
   28CHL1  H19A 2039   1.048   1.628   9.887 -1.6320 -0.2902 -0.1618
   28CHL1  H19B 2040   1.015   1.746  10.008 -1.6389 -1.7964 -0.3533
   28CHL1  H19C 2041   0.942   1.767   9.854  0.5812  2.7167 -0.5928
   28CHL1    C1 2042   1.298   1.770   9.937  0.4960 -0.1116  0.1951
   28CHL1   H1A 2043   1.305   1.661   9.921  1.5706  0.1114 -1.0321
   28CHL1   H1B 2044   1.378   1.826   9.883 -0.3703  2.8632  1.7787
   28CHL1    C2 2045   1.306   1.793  10.090 -0.6732 -0.1297  0.2224
   28CHL1   H2A 2046   1.409   1.765  10.122 -0.1300  0.0069 -1.3199
   28CHL1   H2B 2047   1.237   1.722  10.140  0.7805 -1.2159  0.7560
   28CHL1   C20 2048   1.112   1.682   9.186 -0.6612  0.2165  0.0381
   28CHL1   H20 2049   1.140   1.592   9.244 -4.5493 -1.8568 -0.9334
   28CHL1   C21 2050   1.224   1.696   9.074 -0.4141 -0.3875 -1.0715
   28CHL1  H21A 2051   1.212   1.795   9.024  2.1600  0.6203  0.1326
   28CHL1  H21B 2052   1.214   1.604   9.012  0.8174 -0.7696 -0.7185
   28CHL1  H21C 2053   1.326   1.693   9.119 -1.0864  1.0401  0.6457
   28CHL1   C22 2054   0.973   1.648   9.122 -0.6783 -0.1046 -0.4175
   28CHL1  H22A 2055   0.888   1.676   9.189  0.5587 -1.8505  2.0204
   28CHL1  H22B 2056   0.970   1.700   9.024  0.4282  0.1930 -0.2985
   28CHL1   C23 2057   0.958   1.496   9.103  0.3839  0.5807 -0.5040
   28CHL1  H23A 2058   1.057   1.448   9.086  0.2718  0.2164 -0.1479
   28CHL1  H23B 2059   0.914   1.442   9.190 -0.2783  0.7325 -0.7404
   28CHL1   C24 2060   0.863   1.453   8.985 -0.8871 -0.3218  0.5561
   28CHL1  H24A 2061   0.759   1.489   8.998 -0.1173  1.3446  2.8404
   28CHL1  H24B 2062   0.912   1.491   8.894  1.3112  0.4543  1.9859
   28CHL1   C25 2063   0.867   1.296   8.969 -0.5616 -0.3532  0.1133
   28CHL1   H25 2064   0.971   1.257   8.956 -0.4869 -0.0282 -0.2992
   28CHL1   C26 2065   0.794   1.220   9.082  0.0483 -0.1985 -0.3714
   28CHL1  H26A 2066   0.689   1.255   9.085 -0.1458 -0.8004  0.2843
   28CHL1  H26B 2067   0.783   1.113   9.053  2.4080  0.2174 -3.2682
   28CHL1  H26C 2068   0.850   1.224   9.179  0.6260  1.0082 -0.7413
   28CHL1   C27 2069   0.800   1.261   8.836 -0.2889 -0.1253 -0.2013
   28CHL1  H27A 2070   0.695   1.297   8.844  0.5640  2.4329  0.3362
   28CHL1  H27B 2071   0.846   1.326   8.759 -0.1682 -0.6699 -0.5982
   28CHL1  H27C 2072   0.810   1.153   8.811  1.1978 -0.0274 -0.1205
   29CHL1    C3 2073   0.900   0.108   6.641  0.2798 -0.2552 -0.1540
   29CHL1    H3 2074   1.003   0.074   6.663 -0.9774 -2.2401  3.6908
   29CHL1    O3 2075   0.884   0.119   6.502 -0.3841  0.2532  0.1033
   29CHL1   H3' 2076   0.819   0.050   6.485  0.7740 -0.9584  0.4038
   29CHL1    C4 2077   0.807  -0.007   6.685 -0.5205  0.2342 -0.6680
   29CHL1   H4A 2078   0.703   0.024   6.664 -0.9304  0.5267  1.5408
   29CHL1   H4B 2079   0.832  -0.101   6.631 -2.1666 -1.0354  0.6808
   29CHL1    C5 2080   0.814  -0.039   6.836 -0.4008 -0.3999  0.1508
   29CHL1    C6 2081   0.836  -0.161   6.886 -0.2501  0.0520 -0.3193
   29CHL1    H6 2082   0.842  -0.247   6.817 -2.6623 -0.2660 -0.2018
   29CHL1    C7 2083   0.842  -0.193   7.031  0.2675 -0.2644  0.1854
   29CHL1   H7A 2084   0.788  -0.288   7.050  0.7357 -0.8597 -1.3225
   29CHL1   H7B 2085   0.947  -0.216   7.060  1.6460 -0.2576 -4.1541
   29CHL1    C8 2086   0.788  -0.075   7.121 -0.2213  0.3015  0.4758
   29CHL1    H8 2087   0.677  -0.075   7.120 -0.3725  4.7106 -0.9557
   29CHL1   C14 2088   0.845  -0.094   7.265 -0.3705  0.4297 -0.2592
   29CHL1   H14 2089   0.955  -0.086   7.258 -0.1910  0.5400  2.1677
   29CHL1   C15 2090   0.824  -0.233   7.328  0.1924 -0.8748 -0.2886
   29CHL1  H15A 2091   0.732  -0.283   7.291  0.8191 -1.5836 -0.9026
   29CHL1  H15B 2092   0.913  -0.297   7.313 -0.7398 -2.4434  0.5489
   29CHL1   C16 2093   0.815  -0.188   7.476  0.5962 -0.8672 -0.1825
   29CHL1  H16A 2094   0.711  -0.200   7.514  1.1301 -0.0490  1.6311
   29CHL1  H16B 2095   0.886  -0.256   7.527  1.0146 -0.0645  0.3310
   29CHL1   C17 2096   0.855  -0.038   7.486 -0.0949  0.4676  0.1218
   29CHL1   H17 2097   0.966  -0.043   7.476 -0.0504 -2.2005  1.2521
   29CHL1   C13 2098   0.802   0.020   7.360 -0.5933  0.3644 -0.1017
   29CHL1   C18 2099   0.648   0.034   7.374 -0.2766  0.3258 -0.1635
   29CHL1  H18A 2100   0.601  -0.066   7.381  0.5147 -0.0687 -0.3532
   29CHL1  H18B 2101   0.617   0.097   7.461 -0.1765 -1.4057  1.1829
   29CHL1  H18C 2102   0.605   0.083   7.285  1.0827  1.1628 -0.3964
   29CHL1   C12 2103   0.862   0.151   7.324 -0.3977  0.5247  0.4578
   29CHL1  H12A 2104   0.825   0.230   7.392 -0.4127 -1.2630  2.6384
   29CHL1  H12B 2105   0.971   0.134   7.342 -0.5038  0.7594  1.3605
   29CHL1   C11 2106   0.823   0.183   7.174 -0.2574 -0.4456 -0.6678
   29CHL1  H11A 2107   0.714   0.208   7.172 -0.1012  0.5134  1.1767
   29CHL1  H11B 2108   0.891   0.267   7.148  0.2794 -0.4887  0.5732
   29CHL1    C9 2109   0.844   0.060   7.069  0.4930  0.7855 -0.3613
   29CHL1    H9 2110   0.953   0.039   7.063  0.4219  0.2615  0.1219
   29CHL1   C10 2111   0.802   0.092   6.919 -0.4153 -0.0061 -0.5242
   29CHL1   C19 2112   0.654   0.131   6.916  0.1177 -0.0383  0.1863
   29CHL1  H19A 2113   0.613   0.178   6.824  0.8135  0.3677  0.0747
   29CHL1  H19B 2114   0.589   0.047   6.950 -0.0937  0.0683  0.0480
   29CHL1  H19C 2115   0.637   0.218   6.983  1.4014  1.9844 -2.0062
   29CHL1    C1 2116   0.886   0.212   6.867  0.3934  0.1680  0.3590
   29CHL1   H1A 2117   0.854   0.301   6.925  0.9980  0.6930 -0.1061
   29CHL1   H1B 2118   0.994   0.195   6.887 -0.1751 -0.0109  4.1509
   29CHL1    C2 2119   0.873   0.241   6.714  0.2638  0.1532  0.3301
   29CHL1   H2A 2120   0.952   0.314   6.686  0.1653  0.9628  2.0257
   29CHL1   H2B 2121   0.772   0.265   6.674  0.1005 -1.3684 -0.2248
   29CHL1   C20 2122   0.817   0.023   7.625 -0.2011  0.0027  0.5887
   29CHL1   H20 2123   0.711   0.058   7.622 -0.9100 -1.8629  1.7857
   29CHL1   C21 2124   0.909   0.146   7.657 -0.1599  0.1298 -0.0187
   29CHL1  H21A 2125   0.860   0.205   7.738  0.1728  3.5249 -2.0817
   29CHL1  H21B 2126   0.906   0.214   7.569 -2.7918 -1.3534 -1.1875
   29CHL1  H21C 2127   1.010   0.104   7.677 -0.2413  0.1551  0.4645
   29CHL1   C22 2128   0.837  -0.075   7.751 -0.2426  0.7152  1.4774
   29CHL1  H22A 2129   0.797  -0.173   7.717 -2.8374  0.8238  3.8973
   29CHL1  H22B 2130   0.947  -0.085   7.765  0.2074  3.6962  0.7399
   29CHL1   C23 2131   0.777  -0.030   7.882 -0.7369  0.3297  0.6162
   29CHL1  H23A 2132   0.813   0.074   7.896 -0.6827  0.4328 -0.2389
   29CHL1  H23B 2133   0.669  -0.032   7.856  0.0145 -1.1872 -3.0118
   29CHL1   C24 2134   0.806  -0.112   8.012 -0.4511  1.0508 -0.1531
   29CHL1  H24A 2135   0.912  -0.096   8.040 -0.2213  0.1128 -0.4740
   29CHL1  H24B 2136   0.733  -0.089   8.094  0.4880 -2.4474  1.8434
   29CHL1   C25 2137   0.795  -0.268   7.991 -0.0765 -0.1754  0.2799
   29CHL1   H25 2138   0.863  -0.301   7.909  1.3765 -1.9560  2.1008
   29CHL1   C26 2139   0.845  -0.334   8.122 -0.0473  0.2171  0.4265
   29CHL1  H26A 2140   0.777  -0.326   8.209  1.0643 -0.8287  1.4275
   29CHL1  H26B 2141   0.868  -0.443   8.114 -2.8131 -0.3532 -1.4317
   29CHL1  H26C 2142   0.938  -0.283   8.153  0.1903 -0.0909  0.2292
   29CHL1   C27 2143   0.649  -0.306   7.964  0.6922 -0.1843 -0.1838
   29CHL1  H27A 2144   0.589  -0.282   8.054  0.4249  1.0430 -0.6608
   29CHL1  H27B 2145   0.602  -0.248   7.881  1.3297  2.4483  1.1953
   29CHL1  H27C 2146   0.629  -0.415   7.959 -2.2606  0.2206  0.5405
   30CHL1    C3 2147   5.705   4.816   7.369 -0.3649  0.2607 -0.1206
   30CHL1    H3 2148   5.606   4.765   7.362  0.9249 -2.3804 -0.7410
   30CHL1    O3 2149   5.741   4.858   7.238  0.3268 -0.5859  0.4392
   30CHL1   H3' 2150   5.792   4.789   7.197 -0.2178 -0.3124 -0.7345
   30CHL1    C4 2151   5.701   4.928   7.470 -0.8294 -0.1554  0.0012
   30CHL1   H4A 2152   5.805   4.967   7.474 -0.0389 -1.7265 -2.5828
   30CHL1   H4B 2153   5.639   5.016   7.440  0.7544  1.0808  0.2562
   30CHL1    C5 2154   5.667   4.879   7.609 -0.4090 -0.3023 -0.1161
   30CHL1    C6 2155   5.560   4.920   7.676 -0.0363  0.1889 -0.1545
   30CHL1    H6 2156   5.493   4.993   7.630 -0.4452 -1.2162 -1.8933
   30CHL1    C7 2157   5.530   4.865   7.815  0.5048  0.1406 -0.0536
   30CHL1   H7A 2158   5.481   4.940   7.881 -0.1883 -1.2348  1.0396
   30CHL1   H7B 2159   5.458   4.783   7.796  0.4247  0.0460  0.6322
   30CHL1    C8 2160   5.647   4.798   7.884 -0.0758  0.0588  0.0440
   30CHL1    H8 2161   5.709   4.873   7.938  0.9785 -1.4874  1.0839
   30CHL1   C14 2162   5.603   4.710   8.000  0.2652 -0.4446 -0.3693
   30CHL1   H14 2163   5.552   4.628   7.944 -0.6440 -0.1073 -0.0450
   30CHL1   C15 2164   5.493   4.759   8.093  0.7014  0.8484 -0.1926
   30CHL1  H15A 2165   5.513   4.868   8.107 -1.6728  1.3218 -0.1310
   30CHL1  H15B 2166   5.391   4.749   8.051  0.9079 -0.6825 -0.3738
   30CHL1   C16 2167   5.502   4.685   8.230  0.8907 -0.2534  0.1093
   30CHL1  H16A 2168   5.533   4.755   8.310  1.5025  0.5168 -0.7826
   30CHL1  H16B 2169   5.410   4.624   8.248 -0.3466  0.1253 -3.7965
   30CHL1   C17 2170   5.627   4.589   8.201 -0.2836  0.4052 -0.0522
   30CHL1   H17 2171   5.576   4.499   8.163 -0.5352  0.9460 -1.0326
   30CHL1   C13 2172   5.715   4.651   8.090 -0.6675  0.2765  0.0037
   30CHL1   C18 2173   5.796   4.764   8.160 -0.8552  1.1836  0.1122
   30CHL1  H18A 2174   5.727   4.834   8.212  0.0804  1.3642  1.1431
   30CHL1  H18B 2175   5.876   4.723   8.226 -1.0050  1.2808  0.3562
   30CHL1  H18C 2176   5.855   4.814   8.080 -0.9348 -0.3426 -0.9475
   30CHL1   C12 2177   5.790   4.555   8.001 -0.4776  0.6564  0.2670
   30CHL1  H12A 2178   5.869   4.508   8.063 -0.2563  0.1460 -0.3937
   30CHL1  H12B 2179   5.724   4.469   7.979 -1.2316  1.3051 -0.0226
   30CHL1   C11 2180   5.839   4.630   7.872 -0.1097  0.0423 -0.1050
   30CHL1  H11A 2181   5.918   4.702   7.903 -0.1096  0.2507 -0.5816
   30CHL1  H11B 2182   5.890   4.560   7.802 -1.2599 -0.8799 -0.0571
   30CHL1    C9 2183   5.723   4.707   7.796  0.2764 -0.1017  0.3775
   30CHL1    H9 2184   5.653   4.626   7.767  0.4680 -0.1746  0.1167
   30CHL1   C10 2185   5.763   4.768   7.662 -0.1402  0.3404 -0.6637
   30CHL1   C19 2186   5.902   4.834   7.683  0.1709  0.6604 -0.0166
   30CHL1  H19A 2187   5.941   4.896   7.600  1.5003  0.1334  0.1957
   30CHL1  H19B 2188   5.912   4.900   7.772  2.3946  0.5113 -0.0975
   30CHL1  H19C 2189   5.976   4.752   7.688 -2.4627 -1.7943  2.4162
   30CHL1    C1 2190   5.784   4.662   7.555 -0.0454  0.3274  0.8306
   30CHL1   H1A 2191   5.856   4.582   7.582  0.4876 -0.8589 -3.3838
   30CHL1   H1B 2192   5.688   4.606   7.547  0.8908 -1.1113 -1.3652
   30CHL1    C2 2193   5.804   4.706   7.409  0.8224  0.0314 -0.1622
   30CHL1   H2A 2194   5.803   4.616   7.344 -0.0341 -0.9829  1.2127
   30CHL1   H2B 2195   5.910   4.738   7.400  1.3954 -2.0930 -1.8297
   30CHL1   C20 2196   5.689   4.536   8.337 -0.7476  0.0103  0.2904
   30CHL1   H20 2197   5.767   4.611   8.363 -1.0892  0.2270  0.7020
   30CHL1   C21 2198   5.751   4.393   8.310 -0.1241  0.0564 -0.4097
   30CHL1  H21A 2199   5.680   4.323   8.262 -1.0246  1.9318 -1.9302
   30CHL1  H21B 2200   5.798   4.359   8.405  0.3632 -0.3020 -0.7691
   30CHL1  H21C 2201   5.832   4.397   8.234 -1.6492 -0.4579 -2.1377
   30CHL1   C22 2202   5.596   4.531   8.460  0.9485  0.6322  0.6453
   30CHL1  H22A 2203   5.657   4.500   8.548  1.3859  0.9983  0.4776
   30CHL1  H22B 2204   5.553   4.630   8.484  0.7667  0.2397  2.0197
   30CHL1   C23 2205   5.478   4.429   8.450 -0.3940 -0.2316 -0.3865
   30CHL1  H23A 2206   5.400   4.461   8.378 -1.0725 -1.7306 -0.3539
   30CHL1  H23B 2207   5.514   4.329   8.416 -0.7421 -0.6375  0.4242
   30CHL1   C24 2208   5.425   4.398   8.593 -0.6343 -0.1475 -0.4132
   30CHL1  H24A 2209   5.348   4.318   8.593 -0.2237 -0.5960 -2.3296
   30CHL1  H24B 2210   5.509   4.363   8.658 -0.8112  0.4621  0.1510
   30CHL1   C25 2211   5.373   4.519   8.675 -0.1276  0.3469  0.3579
   30CHL1   H25 2212   5.453   4.595   8.680  0.3720 -0.1416 -0.0368
   30CHL1   C26 2213   5.260   4.583   8.596 -0.3563  0.1737  0.0960
   30CHL1  H26A 2214   5.295   4.607   8.493  2.0177  0.9572  1.0195
   30CHL1  H26B 2215   5.171   4.517   8.598 -0.2698  0.0475 -0.1831
   30CHL1  H26C 2216   5.229   4.673   8.654  2.0197  0.4559  1.0538
   30CHL1   C27 2217   5.330   4.478   8.816  0.8822 -0.7698  0.0909
   30CHL1  H27A 2218   5.324   4.569   8.879  1.0451  0.3130 -1.3928
   30CHL1  H27B 2219   5.229   4.434   8.803  0.2690  0.3473  0.9512
   30CHL1  H27C 2220   5.398   4.408   8.871  0.6078  0.6182  2.3302
   31CHL1    C3 2221   3.156   0.700   6.763  0.0063  0.0599  0.4717
   31CHL1    H3 2222   3.051   0.682   6.792 -0.0332 -0.4634  0.0444
   31CHL1    O3 2223   3.157   0.683   6.622 -0.5832  0.4827 -0.1612
   31CHL1   H3' 2224   3.104   0.756   6.590 -2.3258 -0.9548 -0.7014
   31CHL1    C4 2225   3.212   0.834   6.807  0.2232 -0.0736  0.3028
   31CHL1   H4A 2226   3.317   0.822   6.771  0.4256  0.7948  0.5923
   31CHL1   H4B 2227   3.161   0.921   6.762  1.0269  0.1760 -0.1473
   31CHL1    C5 2228   3.208   0.831   6.958 -0.4313  0.1305 -0.2350
   31CHL1    C6 2229   3.122   0.918   7.012  0.4155 -0.1203 -0.7872
   31CHL1    H6 2230   3.073   0.997   6.953  1.3818  1.5070  0.5262
   31CHL1    C7 2231   3.111   0.934   7.157  0.0758  0.1476 -0.1534
   31CHL1   H7A 2232   3.113   1.043   7.178  0.4826  0.6561 -2.5792
   31CHL1   H7B 2233   3.008   0.909   7.190 -0.7784  0.2040 -2.6315
   31CHL1    C8 2234   3.201   0.847   7.249  1.1832 -0.0029 -0.4507
   31CHL1    H8 2235   3.301   0.897   7.252  1.2332 -0.1130 -0.1911
   31CHL1   C14 2236   3.139   0.839   7.394  0.0380  0.1077  0.2907
   31CHL1   H14 2237   3.037   0.794   7.388  0.2541 -0.4445  0.6954
   31CHL1   C15 2238   3.108   0.969   7.462 -0.3847 -1.0447  0.6025
   31CHL1  H15A 2239   3.189   1.044   7.449  0.7393 -2.3369 -0.2296
   31CHL1  H15B 2240   3.017   1.017   7.422 -0.4168 -0.7087  1.0836
   31CHL1   C16 2241   3.096   0.931   7.611  0.0077  0.0215  0.3266
   31CHL1  H16A 2242   3.171   0.992   7.666 -0.4829 -0.9933  2.2284
   31CHL1  H16B 2243   2.993   0.940   7.652 -0.8408 -2.4395 -1.0515
   31CHL1   C17 2244   3.139   0.779   7.623 -0.6896 -0.4782  0.8709
   31CHL1   H17 2245   3.044   0.721   7.623 -1.1426  0.2227  1.9375
   31CHL1   C13 2246   3.220   0.751   7.490 -0.1603  0.0367 -0.7693
   31CHL1   C18 2247   3.364   0.810   7.521  0.3554  0.1087  0.0305
   31CHL1  H18A 2248   3.356   0.900   7.585 -1.6232  1.3103 -1.7438
   31CHL1  H18B 2249   3.423   0.727   7.566  0.2949 -0.3405 -0.6968
   31CHL1  H18C 2250   3.406   0.835   7.421 -0.8889 -0.5854 -0.7038
   31CHL1   C12 2251   3.237   0.614   7.433 -0.0542  0.3332 -0.6664
   31CHL1  H12A 2252   3.315   0.553   7.485 -0.2759 -0.9932 -1.8425
   31CHL1  H12B 2253   3.146   0.551   7.443 -0.8972  1.7600  1.4798
   31CHL1   C11 2254   3.282   0.619   7.289  0.4169 -0.4015 -0.2286
   31CHL1  H11A 2255   3.386   0.655   7.301  0.5681 -1.0325  0.4353
   31CHL1  H11B 2256   3.281   0.516   7.247 -1.3309 -0.4696 -0.1047
   31CHL1    C9 2257   3.212   0.712   7.187 -0.1264  0.0112 -0.1255
   31CHL1    H9 2258   3.109   0.674   7.170  0.6141 -2.2666  0.1768
   31CHL1   C10 2259   3.279   0.720   7.044  0.1145 -0.3706 -0.0725
   31CHL1   C19 2260   3.427   0.755   7.048  0.3123 -0.9888 -0.1186
   31CHL1  H19A 2261   3.461   0.751   6.942 -0.8217 -0.0077 -0.5453
   31CHL1  H19B 2262   3.448   0.856   7.089 -1.4997 -0.2679 -0.8399
   31CHL1  H19C 2263   3.472   0.672   7.105  0.8316  0.1680  1.2269
   31CHL1    C1 2264   3.245   0.587   6.976 -0.2282  0.3041  1.0116
   31CHL1   H1A 2265   3.307   0.505   7.017 -0.6718 -0.8565 -0.5507
   31CHL1   H1B 2266   3.143   0.557   7.009 -1.3163  2.4305 -0.1869
   31CHL1    C2 2267   3.247   0.584   6.821 -0.1880  0.5045  0.2377
   31CHL1   H2A 2268   3.213   0.484   6.787  3.4812 -0.7797 -0.0981
   31CHL1   H2B 2269   3.353   0.601   6.793  0.1438  0.1525  1.2490
   31CHL1   C20 2270   3.206   0.745   7.754  0.2448 -0.1897 -1.0067
   31CHL1   H20 2271   3.302   0.799   7.759 -0.8398  1.9470 -1.9102
   31CHL1   C21 2272   3.224   0.590   7.761 -0.4794 -0.1840 -0.5990
   31CHL1  H21A 2273   3.122   0.555   7.786 -1.4808  2.6266 -0.4333
   31CHL1  H21B 2274   3.290   0.562   7.846 -0.6455 -0.5062 -0.5728
   31CHL1  H21C 2275   3.254   0.549   7.662 -2.7059 -0.6597 -1.1178
   31CHL1   C22 2276   3.120   0.793   7.884 -0.1556  0.8375  0.0613
   31CHL1  H22A 2277   3.106   0.903   7.888  0.9557  1.0254 -0.7874
   31CHL1  H22B 2278   3.027   0.733   7.871 -0.8145  2.1607 -1.6189
   31CHL1   C23 2279   3.178   0.755   8.019  0.1472 -0.1091  0.2996
   31CHL1  H23A 2280   3.180   0.646   8.036  0.1741 -0.0477  0.6888
   31CHL1  H23B 2281   3.285   0.784   8.016  0.1784 -0.1475  0.9690
   31CHL1   C24 2282   3.118   0.828   8.145 -0.8087  0.3135  1.2126
   31CHL1  H24A 2283   3.131   0.938   8.130  0.6657 -0.2620 -3.4912
   31CHL1  H24B 2284   3.009   0.810   8.153 -0.8525  0.0366  0.1157
   31CHL1   C25 2285   3.188   0.795   8.277  0.6282  0.6173 -0.3030
   31CHL1   H25 2286   3.292   0.833   8.274  1.6202 -1.3856  3.2566
   31CHL1   C26 2287   3.115   0.880   8.395 -0.1944  0.5680  0.4250
   31CHL1  H26A 2288   3.023   0.822   8.418  1.1033 -1.0585  1.7672
   31CHL1  H26B 2289   3.178   0.884   8.486 -0.4453  2.2321  0.5438
   31CHL1  H26C 2290   3.086   0.981   8.360 -2.8296  0.7063  2.6842
   31CHL1   C27 2291   3.189   0.650   8.319  0.8453  0.1537  0.1672
   31CHL1  H27A 2292   3.091   0.606   8.291  0.9419  0.8070 -1.3004
   31CHL1  H27B 2293   3.218   0.641   8.425 -1.4305 -0.9226  0.7562
   31CHL1  H27C 2294   3.261   0.591   8.258  1.6370  0.4992  0.7638
   32CHL1    C3 2295   5.516   3.402   7.180  0.6924  0.9289 -0.2933
   32CHL1    H3 2296   5.414   3.423   7.219  0.3782 -0.3050 -0.4122
   32CHL1    O3 2297   5.496   3.376   7.037 -0.1233  0.2292 -0.5111
   32CHL1   H3' 2298   5.550   3.298   7.022  3.4408  2.7906 -2.6949
   32CHL1    C4 2299   5.620   3.515   7.217  0.0334 -0.9738  0.1126
   32CHL1   H4A 2300   5.714   3.490   7.163  1.2355  4.0787 -0.6372
   32CHL1   H4B 2301   5.585   3.612   7.177 -1.9298 -0.5227  2.6402
   32CHL1    C5 2302   5.645   3.523   7.365  0.5555 -0.8017 -0.5133
   32CHL1    C6 2303   5.637   3.643   7.428  0.1377 -0.8293  0.0866
   32CHL1    H6 2304   5.615   3.733   7.368 -0.3353  1.1742  3.0525
   32CHL1    C7 2305   5.657   3.667   7.572 -0.0418  0.2229 -0.3820
   32CHL1   H7A 2306   5.736   3.743   7.592 -0.0157  0.3436 -0.9053
   32CHL1   H7B 2307   5.563   3.701   7.621 -0.5546  0.6283 -1.6018
   32CHL1    C8 2308   5.711   3.535   7.650  0.2156 -0.1373 -0.3625
   32CHL1    H8 2309   5.814   3.528   7.609  0.3357 -1.4737  0.1182
   32CHL1   C14 2310   5.704   3.548   7.804 -0.3902 -0.2553  0.0185
   32CHL1   H14 2311   5.598   3.573   7.826  0.9869  3.7028  3.3181
   32CHL1   C15 2312   5.774   3.667   7.876 -0.1745  0.4556  0.0118
   32CHL1  H15A 2313   5.882   3.678   7.852  0.0524  1.0829  1.2423
   32CHL1  H15B 2314   5.734   3.771   7.872 -0.0702  0.5137  0.4816
   32CHL1   C16 2315   5.769   3.625   8.026 -0.3987  0.2839  0.4774
   32CHL1  H16A 2316   5.864   3.654   8.074  0.0369  1.2411 -0.9017
   32CHL1  H16B 2317   5.693   3.693   8.071  1.4679  2.2265  0.8343
   32CHL1   C17 2318   5.719   3.474   8.030 -0.2719  0.1713 -0.7490
   32CHL1   H17 2319   5.613   3.493   8.060 -0.0805  1.6921 -0.9172
   32CHL1   C13 2320   5.740   3.428   7.890 -0.1915  1.4407  0.5455
   32CHL1   C18 2321   5.893   3.392   7.872  0.1383  0.1651 -0.2352
   32CHL1  H18A 2322   5.921   3.305   7.935  1.3548 -2.1485 -3.6747
   32CHL1  H18B 2323   5.924   3.379   7.766  0.4905 -0.6164 -0.0406
   32CHL1  H18C 2324   5.958   3.473   7.910  2.1038 -0.9121 -1.1398
   32CHL1   C12 2325   5.644   3.319   7.837  0.9243  0.2096 -0.0703
   32CHL1  H12A 2326   5.653   3.212   7.864 -1.1377 -0.4427 -1.6662
   32CHL1  H12B 2327   5.541   3.359   7.849  1.7323  2.0327  1.2975
   32CHL1   C11 2328   5.667   3.295   7.689 -0.3242  0.0245  0.2880
   32CHL1  H11A 2329   5.768   3.250   7.676 -1.1584 -1.8533 -0.1035
   32CHL1  H11B 2330   5.597   3.212   7.664 -2.0448  1.1517  1.1227
   32CHL1    C9 2331   5.631   3.418   7.602 -0.0255 -0.3641 -0.1724
   32CHL1    H9 2332   5.523   3.442   7.615  0.1798  0.0479  0.8432
   32CHL1   C10 2333   5.658   3.394   7.452  0.9449 -1.0625  0.5614
   32CHL1   C19 2334   5.797   3.325   7.431 -0.3292  0.0361  0.2629
   32CHL1  H19A 2335   5.820   3.329   7.322  0.6549 -0.5301  0.4343
   32CHL1  H19B 2336   5.878   3.367   7.495  0.2884 -1.8606  0.8015
   32CHL1  H19C 2337   5.780   3.218   7.458 -2.4228  0.2272 -0.1200
   32CHL1    C1 2338   5.551   3.291   7.399 -0.4806 -0.4093 -0.0491
   32CHL1   H1A 2339   5.550   3.188   7.442 -6.3230 -0.6635  0.0507
   32CHL1   H1B 2340   5.450   3.319   7.434  0.2023  1.0668  0.8298
   32CHL1    C2 2341   5.548   3.280   7.245  0.5766  0.2925 -0.0355
   32CHL1   H2A 2342   5.470   3.206   7.218  1.6403 -2.1318  2.9109
   32CHL1   H2B 2343   5.644   3.226   7.225  0.1456  0.1503 -1.8290
   32CHL1   C20 2344   5.782   3.405   8.150  0.3705 -0.3461  0.3617
   32CHL1   H20 2345   5.891   3.417   8.129  0.3422 -0.6638  0.0202
   32CHL1   C21 2346   5.738   3.262   8.146 -0.1001  0.5935 -0.0116
   32CHL1  H21A 2347   5.628   3.250   8.133 -0.0205 -0.6591  0.3235
   32CHL1  H21B 2348   5.766   3.218   8.244 -0.5494  0.6244  0.1369
   32CHL1  H21C 2349   5.784   3.202   8.064 -2.6092 -0.7684 -0.5514
   32CHL1   C22 2350   5.737   3.473   8.284  0.3084 -0.4344  0.0284
   32CHL1  H22A 2351   5.747   3.584   8.277 -1.4587 -0.3421 -3.3134
   32CHL1  H22B 2352   5.627   3.462   8.287  0.3451 -1.1161 -0.6867
   32CHL1   C23 2353   5.817   3.437   8.409  0.4869  1.2667  0.4475
   32CHL1  H23A 2354   5.821   3.326   8.413 -2.8824  1.0640  1.1279
   32CHL1  H23B 2355   5.922   3.466   8.384 -0.1800  0.8650 -3.6267
   32CHL1   C24 2356   5.749   3.476   8.534  0.1425 -0.2185  0.1284
   32CHL1  H24A 2357   5.711   3.579   8.514 -1.0202 -0.7227 -0.3158
   32CHL1  H24B 2358   5.665   3.412   8.567 -0.5501  0.1967 -0.7906
   32CHL1   C25 2359   5.848   3.492   8.657  0.1389  0.3521  0.6352
   32CHL1   H25 2360   5.933   3.551   8.618  0.3535 -1.1786 -1.3563
   32CHL1   C26 2361   5.777   3.572   8.769 -0.2387 -0.3896  0.1506
   32CHL1  H26A 2362   5.779   3.683   8.765  0.9859 -0.4152 -3.7777
   32CHL1  H26B 2363   5.677   3.524   8.785 -1.3349  1.1695 -1.5786
   32CHL1  H26C 2364   5.834   3.548   8.861  0.8027 -0.7112 -0.5642
   32CHL1   C27 2365   5.908   3.359   8.719  0.1588  0.0119  0.0331
   32CHL1  H27A 2366   5.952   3.293   8.641  0.4275  0.3184 -0.0789
   32CHL1  H27B 2367   5.988   3.383   8.793 -0.8377  2.4480  0.3908
   32CHL1  H27C 2368   5.834   3.297   8.774  2.7147 -2.2378  1.1559
   33CHL1    C3 2369   6.144   4.149   7.097 -0.5280 -0.8430  0.2047
   33CHL1    H3 2370   6.154   4.038   7.098  0.1579 -0.8649 -2.1520
   33CHL1    O3 2371   6.219   4.198   6.980 -0.0212 -0.5833  0.3132
   33CHL1   H3' 2372   6.202   4.138   6.907 -0.7721  0.7571 -0.6634
   33CHL1    C4 2373   6.002   4.193   7.056 -0.2119 -0.0403 -0.0154
   33CHL1   H4A 2374   5.996   4.302   7.036  1.4456  0.3426  1.3023
   33CHL1   H4B 2375   5.971   4.146   6.960 -0.2947 -0.3957  0.1820
   33CHL1    C5 2376   5.909   4.162   7.166 -0.3144 -0.3170 -0.7211
   33CHL1    C6 2377   5.797   4.098   7.145 -0.1153  0.2988 -0.1426
   33CHL1    H6 2378   5.762   4.063   7.047 -0.5249  0.6671 -0.1269
   33CHL1    C7 2379   5.692   4.062   7.248 -0.3843 -1.2027 -0.6696
   33CHL1   H7A 2380   5.594   4.079   7.198  0.0215  0.4329 -0.9856
   33CHL1   H7B 2381   5.707   3.955   7.275 -1.0570 -1.3263 -0.7645
   33CHL1    C8 2382   5.710   4.146   7.378  0.3200 -0.3441 -0.6233
   33CHL1    H8 2383   5.665   4.247   7.366 -0.7118 -0.6240  0.5780
   33CHL1   C14 2384   5.634   4.081   7.492  0.3653 -0.2181 -0.5578
   33CHL1   H14 2385   5.685   3.982   7.498 -1.2461 -1.0313  0.3565
   33CHL1   C15 2386   5.491   4.039   7.464 -0.1706  0.4036 -0.4402
   33CHL1  H15A 2387   5.438   4.128   7.424 -0.2491 -0.0584 -1.3920
   33CHL1  H15B 2388   5.481   3.949   7.400  2.8132 -0.8812  0.7026
   33CHL1   C16 2389   5.435   4.014   7.600 -0.4026  0.5399 -0.1430
   33CHL1  H16A 2390   5.350   4.083   7.619 -0.1780  0.5617  0.8100
   33CHL1  H16B 2391   5.392   3.913   7.616 -0.2327  0.6826  1.2987
   33CHL1   C17 2392   5.547   4.045   7.703 -0.7366 -0.4466  0.5592
   33CHL1   H17 2393   5.607   3.952   7.704  0.5133  0.3039 -0.8993
   33CHL1   C13 2394   5.637   4.140   7.630  0.5784 -0.2847 -0.4802
   33CHL1   C18 2395   5.571   4.284   7.618 -0.1671 -0.2594 -0.8032
   33CHL1  H18A 2396   5.631   4.352   7.554  0.1153 -0.1329 -0.4100
   33CHL1  H18B 2397   5.470   4.273   7.573  0.2039  1.0531 -2.0028
   33CHL1  H18C 2398   5.558   4.326   7.720  2.7532  1.4729 -1.0295
   33CHL1   C12 2399   5.788   4.159   7.667  0.0252 -0.1524  0.0610
   33CHL1  H12A 2400   5.787   4.219   7.761  1.9028 -2.2219  1.5090
   33CHL1  H12B 2401   5.834   4.061   7.691 -1.3626 -0.5566  1.2335
   33CHL1   C11 2402   5.864   4.227   7.556  0.0070 -0.5335  0.3900
   33CHL1  H11A 2403   5.827   4.332   7.550  1.6095  0.2122  2.4730
   33CHL1  H11B 2404   5.971   4.248   7.578  0.0632 -0.2149 -0.1618
   33CHL1    C9 2405   5.853   4.160   7.415 -0.4828  0.3184 -0.1068
   33CHL1    H9 2406   5.890   4.058   7.439 -2.6485 -1.3331 -3.1214
   33CHL1   C10 2407   5.946   4.221   7.306  0.1028  0.4725  0.3578
   33CHL1   C19 2408   5.924   4.374   7.303  0.6748  0.7588 -0.0631
   33CHL1  H19A 2409   5.818   4.396   7.278  0.6866  1.9803  0.8635
   33CHL1  H19B 2410   5.942   4.420   7.402 -2.6722 -1.2630  1.6552
   33CHL1  H19C 2411   5.976   4.429   7.221  0.7410  2.4489  1.0578
   33CHL1    C1 2412   6.091   4.185   7.334  0.3897 -1.0082 -0.4843
   33CHL1   H1A 2413   6.131   4.236   7.424  1.9120  0.3912 -1.8800
   33CHL1   H1B 2414   6.102   4.075   7.347  1.4167 -0.6110  2.8547
   33CHL1    C2 2415   6.186   4.224   7.221 -0.0369  0.1319  0.6974
   33CHL1   H2A 2416   6.296   4.218   7.229  0.1854  2.5401  0.0081
   33CHL1   H2B 2417   6.169   4.331   7.197  0.2080  0.7551  3.0034
   33CHL1   C20 2418   5.502   4.072   7.850  0.5486 -0.0896 -0.4402
   33CHL1   H20 2419   5.458   4.174   7.853 -2.3246 -1.2659  0.8956
   33CHL1   C21 2420   5.628   4.071   7.949 -0.1776  0.1146  0.0860
   33CHL1  H21A 2421   5.682   3.977   7.928 -0.7524  0.0233 -1.1006
   33CHL1  H21B 2422   5.601   4.061   8.056 -0.7019 -2.2852 -0.2106
   33CHL1  H21C 2423   5.695   4.158   7.930  0.7730 -0.7103 -0.3887
   33CHL1   C22 2424   5.394   3.983   7.904 -0.4016  0.0540  0.5311
   33CHL1  H22A 2425   5.391   4.012   8.012 -0.1304 -0.3626  0.6527
   33CHL1  H22B 2426   5.296   4.003   7.856 -0.1014 -1.0289 -0.5906
   33CHL1   C23 2427   5.412   3.829   7.905  0.6000 -0.1614  0.4492
   33CHL1  H23A 2428   5.425   3.795   7.800  3.5316 -0.7471  0.8987
   33CHL1  H23B 2429   5.510   3.810   7.955  0.6139 -0.4614  0.3114
   33CHL1   C24 2430   5.299   3.742   7.965  0.0056 -0.2010 -0.0680
   33CHL1  H24A 2431   5.203   3.750   7.909 -1.0329 -3.0164  1.1305
   33CHL1  H24B 2432   5.330   3.637   7.950 -4.9716 -1.8337 -0.7886
   33CHL1   C25 2433   5.257   3.770   8.110  0.3367 -0.3696  0.0682
   33CHL1   H25 2434   5.222   3.874   8.127 -0.4253 -0.8260  1.5257
   33CHL1   C26 2435   5.142   3.672   8.137 -0.4768 -0.1062 -0.1863
   33CHL1  H26A 2436   5.049   3.702   8.083 -1.1283 -1.6953 -0.0123
   33CHL1  H26B 2437   5.168   3.567   8.111  0.0804 -0.0656  0.1932
   33CHL1  H26C 2438   5.115   3.667   8.244  2.2756 -1.7869  0.5164
   33CHL1   C27 2439   5.377   3.763   8.209 -0.3864  0.8546 -0.0472
   33CHL1  H27A 2440   5.415   3.660   8.191 -0.4932  1.1918 -2.5825
   33CHL1  H27B 2441   5.447   3.847   8.192  0.3490  0.8070  2.3735
   33CHL1  H27C 2442   5.341   3.775   8.313 -3.1076  0.0447 -0.8032
   34CHL1    C3 2443   5.586   2.379   7.156 -0.4982  0.5903 -0.2975
   34CHL1    H3 2444   5.506   2.303   7.174  0.4492 -0.5251 -0.6665
   34CHL1    O3 2445   5.575   2.401   7.018  0.6260 -0.2635  0.4676
   34CHL1   H3' 2446   5.650   2.458   7.000  0.0416  0.0830 -1.0069
   34CHL1    C4 2447   5.573   2.512   7.235 -0.7066  0.6711  0.5524
   34CHL1   H4A 2448   5.651   2.577   7.189 -1.5839  1.6405  0.3864
   34CHL1   H4B 2449   5.473   2.557   7.215 -0.6243  0.6622  0.1122
   34CHL1    C5 2450   5.594   2.487   7.383 -0.2265 -1.1602  0.1151
   34CHL1    C6 2451   5.500   2.537   7.473 -0.9630  0.0123  0.2721
   34CHL1    H6 2452   5.407   2.591   7.449 -1.0531 -0.4076 -0.3325
   34CHL1    C7 2453   5.521   2.520   7.621  0.5107  0.6496 -0.1589
   34CHL1   H7A 2454   5.484   2.614   7.666 -3.7281  0.4086 -2.6134
   34CHL1   H7B 2455   5.442   2.453   7.661 -0.8469  1.5122 -1.2852
   34CHL1    C8 2456   5.662   2.473   7.662 -0.1608  0.0964  0.6506
   34CHL1    H8 2457   5.733   2.558   7.661  0.8813 -0.6865  2.5740
   34CHL1   C14 2458   5.661   2.418   7.798  0.4089  0.0350  0.0098
   34CHL1   H14 2459   5.607   2.321   7.798  0.9561 -0.2810  0.9398
   34CHL1   C15 2460   5.584   2.498   7.908 -0.8929  0.4983  0.9628
   34CHL1  H15A 2461   5.627   2.600   7.914  2.3141 -0.4666 -2.2374
   34CHL1  H15B 2462   5.475   2.506   7.887 -0.6578  0.8472 -0.1459
   34CHL1   C16 2463   5.611   2.418   8.040 -0.0872 -0.0099 -0.1997
   34CHL1  H16A 2464   5.651   2.489   8.116  0.1472 -1.5481  1.1696
   34CHL1  H16B 2465   5.525   2.356   8.072  0.0978 -0.9145 -1.3450
   34CHL1   C17 2466   5.730   2.323   8.004 -0.1627  0.4881  0.1443
   34CHL1   H17 2467   5.677   2.226   7.994 -1.2349  1.0370  0.2941
   34CHL1   C13 2468   5.793   2.374   7.868 -0.7278  1.0984 -0.2427
   34CHL1   C18 2469   5.882   2.497   7.889  0.4023 -0.2198  0.1302
   34CHL1  H18A 2470   5.905   2.542   7.790  2.0902  2.4142  1.6334
   34CHL1  H18B 2471   5.840   2.569   7.962  2.0058 -0.4627  1.3596
   34CHL1  H18C 2472   5.980   2.470   7.934 -0.7983 -3.0126  1.3051
   34CHL1   C12 2473   5.859   2.270   7.773 -0.1653  0.0969  0.0205
   34CHL1  H12A 2474   5.967   2.256   7.796  0.3233  3.0343 -0.0551
   34CHL1  H12B 2475   5.804   2.173   7.773 -0.0426  0.0196  1.0969
   34CHL1   C11 2476   5.856   2.318   7.628 -0.5916  0.2723  0.3769
   34CHL1  H11A 2477   5.931   2.399   7.614 -1.8740  1.2245 -1.3230
   34CHL1  H11B 2478   5.899   2.234   7.568  0.0303 -0.7261  2.1589
   34CHL1    C9 2479   5.720   2.365   7.575 -0.2773 -0.2393 -0.5749
   34CHL1    H9 2480   5.652   2.278   7.572  0.4703 -0.8170 -1.0124
   34CHL1   C10 2481   5.723   2.406   7.423  0.6315  0.2490 -0.5768
   34CHL1   C19 2482   5.853   2.494   7.389 -0.6532 -0.0964  0.3693
   34CHL1  H19A 2483   5.860   2.535   7.286 -1.1616 -0.3607  0.2225
   34CHL1  H19B 2484   5.862   2.568   7.471 -0.5706 -0.0884  0.3524
   34CHL1  H19C 2485   5.941   2.426   7.393 -0.7462 -0.1942  0.8563
   34CHL1    C1 2486   5.728   2.279   7.333  0.5956 -0.8177 -0.8862
   34CHL1   H1A 2487   5.827   2.234   7.358 -0.7232 -2.8950  0.8726
   34CHL1   H1B 2488   5.652   2.207   7.369 -0.4086  0.2652 -0.7968
   34CHL1    C2 2489   5.720   2.311   7.184  0.4877  0.5611  0.4264
   34CHL1   H2A 2490   5.726   2.215   7.128  1.9013  0.8027  0.1066
   34CHL1   H2B 2491   5.799   2.384   7.155  0.7369  0.8371  1.7434
   34CHL1   C20 2492   5.830   2.313   8.118 -0.3250  0.2764 -0.2943
   34CHL1   H20 2493   5.876   2.413   8.133 -4.1670  2.2503 -0.5220
   34CHL1   C21 2494   5.924   2.190   8.087 -0.7684  0.6864  0.7422
   34CHL1  H21A 2495   6.003   2.226   8.018 -0.6511  1.8076  1.4373
   34CHL1  H21B 2496   5.881   2.101   8.035  2.7462  0.2564 -1.7776
   34CHL1  H21C 2497   5.969   2.153   8.181  0.5229  2.6860  0.9924
   34CHL1   C22 2498   5.769   2.288   8.261  0.5387 -0.3446 -0.2313
   34CHL1  H22A 2499   5.850   2.290   8.337 -1.0470 -1.1444  1.5564
   34CHL1  H22B 2500   5.695   2.365   8.289 -2.2118 -2.6294 -0.7872
   34CHL1   C23 2501   5.692   2.158   8.281  0.2460 -0.0716 -0.1211
   34CHL1  H23A 2502   5.597   2.171   8.224  0.4658  1.4191 -0.1871
   34CHL1  H23B 2503   5.750   2.077   8.231 -0.6108  0.7236 -2.5844
   34CHL1   C24 2504   5.656   2.130   8.433  0.6810  0.0184 -0.2171
   34CHL1  H24A 2505   5.748   2.124   8.495 -1.1972  1.5494  2.9422
   34CHL1  H24B 2506   5.598   2.218   8.468 -0.4428 -0.3831 -1.0085
   34CHL1   C25 2507   5.585   1.992   8.445 -0.0316  0.3485 -0.1781
   34CHL1   H25 2508   5.657   1.915   8.411  1.0187  1.5499 -0.7863
   34CHL1   C26 2509   5.543   1.961   8.590  0.0232 -0.0690  0.5733
   34CHL1  H26A 2510   5.626   1.936   8.659  0.0933 -0.7996  0.2290
   34CHL1  H26B 2511   5.501   2.060   8.619  3.6425  2.3158 -1.5724
   34CHL1  H26C 2512   5.461   1.886   8.585  1.4529 -1.6215 -0.5340
   34CHL1   C27 2513   5.464   1.974   8.363  1.3800 -0.4384  0.0366
   34CHL1  H27A 2514   5.374   2.013   8.415  1.8616  0.2320  0.3803
   34CHL1  H27B 2515   5.461   2.026   8.265 -1.3942  2.9943  1.6977
   34CHL1  H27C 2516   5.453   1.864   8.349  4.9183 -0.7899 -1.0168
   35CHL1    C3 2517   3.036   5.124   7.162 -0.6099  0.7524  0.3868
   35CHL1    H3 2518   3.024   5.229   7.196  1.9872  1.7279 -1.3501
   35CHL1    O3 2519   3.068   5.116   7.024 -0.2569  0.2325 -0.0321
   35CHL1   H3' 2520   3.065   5.023   7.000  1.0640 -0.1063  0.9955
   35CHL1    C4 2521   3.149   5.050   7.238  0.0083 -0.1334 -0.2475
   35CHL1   H4A 2522   3.165   4.954   7.186 -0.4393 -0.3514  0.0077
   35CHL1   H4B 2523   3.247   5.102   7.228 -0.3828  0.9515  1.1441
   35CHL1    C5 2524   3.133   5.038   7.389  0.9374 -0.1906 -0.3965
   35CHL1    C6 2525   3.238   5.049   7.472  0.4630 -0.0413 -0.2666
   35CHL1    H6 2526   3.335   5.079   7.430 -0.4374  1.2842 -1.4928
   35CHL1    C7 2527   3.225   5.045   7.626 -0.3089  0.0717  0.6701
   35CHL1   H7A 2528   3.290   4.969   7.672  0.1182 -0.5029 -0.8091
   35CHL1   H7B 2529   3.256   5.144   7.666 -3.1731  0.8254  1.2286
   35CHL1    C8 2530   3.075   5.022   7.676 -0.2110 -0.1020  0.2463
   35CHL1    H8 2531   3.066   4.912   7.687  1.8270 -0.4639 -1.2079
   35CHL1   C14 2532   3.047   5.084   7.812 -0.0801  0.1665  0.4307
   35CHL1   H14 2533   3.053   5.195   7.806  0.2547  0.1676  0.7258
   35CHL1   C15 2534   3.143   5.041   7.924  0.4527 -0.2873 -0.3137
   35CHL1  H15A 2535   3.153   4.930   7.921  0.2517 -0.2863 -1.0011
   35CHL1  H15B 2536   3.241   5.093   7.928 -0.1076  0.7810  0.1970
   35CHL1   C16 2537   3.065   5.074   8.055 -0.2174 -0.5688 -0.0369
   35CHL1  H16A 2538   3.057   4.987   8.123 -0.4253  0.2498  1.0160
   35CHL1  H16B 2539   3.109   5.161   8.109 -2.1118  1.2637 -1.3095
   35CHL1   C17 2540   2.920   5.114   8.008  0.7685 -0.3763  0.3664
   35CHL1   H17 2541   2.920   5.224   7.995 -0.2737  0.0174  2.9635
   35CHL1   C13 2542   2.906   5.057   7.865  0.1391  0.1874 -0.0013
   35CHL1   C18 2543   2.887   4.905   7.878  0.6867 -0.1604  0.5995
   35CHL1  H18A 2544   2.895   4.855   7.779  2.0277  2.9226 -0.9800
   35CHL1  H18B 2545   2.968   4.867   7.944 -0.4521 -0.3759  1.9186
   35CHL1  H18C 2546   2.788   4.877   7.920 -1.1228  2.8695 -1.2124
   35CHL1   C12 2547   2.811   5.122   7.768 -0.2898  0.2996  0.8741
   35CHL1  H12A 2548   2.710   5.103   7.809 -0.6748 -0.4463 -0.3762
   35CHL1  H12B 2549   2.829   5.230   7.750  2.1030 -0.2137 -0.1986
   35CHL1   C11 2550   2.824   5.056   7.628 -0.4651  0.0981  1.0809
   35CHL1  H11A 2551   2.805   4.947   7.626 -0.3536 -0.0616  4.1058
   35CHL1  H11B 2552   2.756   5.103   7.553 -1.1729 -0.3674  1.4163
   35CHL1    C9 2553   2.971   5.081   7.570  0.3727  0.3938  0.0811
   35CHL1    H9 2554   2.994   5.190   7.568  0.9216  0.3218  1.3145
   35CHL1   C10 2555   2.993   5.012   7.436 -0.1677 -0.3428 -0.5095
   35CHL1   C19 2556   2.968   4.859   7.429 -0.9104 -1.1300 -0.2430
   35CHL1  H19A 2557   2.867   4.823   7.457 -0.8675 -0.8351  0.2928
   35CHL1  H19B 2558   2.986   4.834   7.322  0.0809 -1.3818 -0.0294
   35CHL1  H19C 2559   3.045   4.824   7.501 -2.4454  1.7343  3.0656
   35CHL1    C1 2560   2.878   5.067   7.340 -0.1110  0.2395 -1.0058
   35CHL1   H1A 2561   2.782   5.014   7.356 -0.6234  0.8871 -1.8724
   35CHL1   H1B 2562   2.865   5.175   7.363  0.4864  1.0010 -3.8783
   35CHL1    C2 2563   2.907   5.052   7.192  0.2163  0.3488 -0.2527
   35CHL1   H2A 2564   2.821   5.083   7.128  0.8530  0.2683 -1.1702
   35CHL1   H2B 2565   2.918   4.945   7.164 -1.3691  0.6377 -2.1986
   35CHL1   C20 2566   2.822   5.081   8.120  0.2008 -0.0531 -0.0433
   35CHL1   H20 2567   2.809   4.970   8.121 -0.6771  0.0299  1.4819
   35CHL1   C21 2568   2.688   5.138   8.080  0.1801  0.1002 -0.5936
   35CHL1  H21A 2569   2.707   5.244   8.052  1.6228 -0.0769 -0.3285
   35CHL1  H21B 2570   2.612   5.142   8.161 -0.5890 -1.7280 -1.1748
   35CHL1  H21C 2571   2.649   5.080   7.994  0.5598 -0.6549 -0.2605
   35CHL1   C22 2572   2.851   5.137   8.265  0.5124  0.2890  0.6891
   35CHL1  H22A 2573   2.958   5.167   8.270  0.5536  0.8613 -1.9585
   35CHL1  H22B 2574   2.803   5.237   8.263  2.0731  1.0698 -1.4718
   35CHL1   C23 2575   2.806   5.046   8.382  0.1432 -0.9753 -0.2633
   35CHL1  H23A 2576   2.698   5.031   8.361  0.3525 -0.3049 -1.9670
   35CHL1  H23B 2577   2.865   4.952   8.369  2.1496  0.1491  0.1944
   35CHL1   C24 2578   2.834   5.116   8.524 -0.2696  0.0967 -0.0461
   35CHL1  H24A 2579   2.939   5.088   8.549 -0.4034  2.0227  3.2286
   35CHL1  H24B 2580   2.814   5.225   8.516 -2.0173 -0.1615  0.3423
   35CHL1   C25 2581   2.751   5.059   8.638 -0.8255  0.2985  0.0179
   35CHL1   H25 2582   2.771   4.950   8.648  2.3775  0.8600  0.8902
   35CHL1   C26 2583   2.795   5.126   8.771  0.4535  0.7517 -0.3162
   35CHL1  H26A 2584   2.792   5.236   8.761 -0.5632  0.7698  0.0763
   35CHL1  H26B 2585   2.740   5.094   8.862 -1.1461  0.7752 -1.2412
   35CHL1  H26C 2586   2.899   5.086   8.779  0.3547  0.8409  2.3036
   35CHL1   C27 2587   2.600   5.093   8.616  0.6014 -0.2694 -0.2503
   35CHL1  H27A 2588   2.587   5.203   8.618  0.2658 -0.3103  1.1816
   35CHL1  H27B 2589   2.543   5.049   8.701 -1.0716  1.3852 -0.4668
   35CHL1  H27C 2590   2.563   5.050   8.521 -0.7177 -1.3062  0.6934
   36CHL1    C3 2591   3.350   4.090   7.230 -0.3208 -0.1610 -0.2413
   36CHL1    H3 2592   3.461   4.095   7.234 -0.1331 -2.7334 -0.5453
   36CHL1    O3 2593   3.314   4.071   7.098 -0.0897  0.7335 -0.0610
   36CHL1   H3' 2594   3.218   4.077   7.093 -0.1992  1.6343  2.1479
   36CHL1    C4 2595   3.320   3.965   7.319 -0.0767  0.2605 -0.7265
   36CHL1   H4A 2596   3.210   3.950   7.314 -0.1892  1.3964 -2.3716
   36CHL1   H4B 2597   3.377   3.881   7.272  0.3204  0.1108  0.0006
   36CHL1    C5 2598   3.356   3.972   7.468 -0.6631 -0.0259  0.6265
   36CHL1    C6 2599   3.423   3.870   7.525 -0.5247  0.3784  0.7526
   36CHL1    H6 2600   3.449   3.780   7.467  0.2930  1.5660 -0.7618
   36CHL1    C7 2601   3.459   3.875   7.677 -0.0417  0.2519  0.6424
   36CHL1   H7A 2602   3.431   3.774   7.712  0.8762  0.3116  1.5895
   36CHL1   H7B 2603   3.567   3.900   7.682 -0.3013  2.2009 -1.5277
   36CHL1    C8 2604   3.380   3.979   7.749  0.2310 -0.2406 -0.1329
   36CHL1    H8 2605   3.273   3.948   7.755 -0.3020  1.4891 -0.2391
   36CHL1   C14 2606   3.428   3.987   7.893 -0.7705  0.8088  0.1243
   36CHL1   H14 2607   3.530   4.029   7.886 -0.5451  0.1600 -0.6122
   36CHL1   C15 2608   3.439   3.856   7.976 -0.6794 -0.5404  0.3550
   36CHL1  H15A 2609   3.344   3.799   7.963  0.2747 -1.6270 -2.9927
   36CHL1  H15B 2610   3.532   3.801   7.948  0.6514  0.4083  2.6369
   36CHL1   C16 2611   3.450   3.905   8.116  0.5250 -0.1466 -0.3829
   36CHL1  H16A 2612   3.363   3.857   8.166 -0.3685  0.9467 -0.8430
   36CHL1  H16B 2613   3.544   3.865   8.159 -0.3011  0.7281  2.5023
   36CHL1   C17 2614   3.422   4.058   8.115  0.1300 -0.0806  0.0383
   36CHL1   H17 2615   3.525   4.100   8.119  0.2180 -0.3423  3.6037
   36CHL1   C13 2616   3.362   4.097   7.976  0.5085 -0.2554  0.1848
   36CHL1   C18 2617   3.211   4.081   7.977 -0.5460 -0.3424  0.4044
   36CHL1  H18A 2618   3.174   4.162   8.043  0.9230  1.2520 -0.6327
   36CHL1  H18B 2619   3.164   4.089   7.877  3.0034  0.9893 -1.3248
   36CHL1  H18C 2620   3.183   3.980   8.014 -0.6109 -0.7209 -0.6518
   36CHL1   C12 2621   3.402   4.228   7.913  0.1529  0.5518 -0.1818
   36CHL1  H12A 2622   3.362   4.312   7.975  0.4760  0.2036  0.5174
   36CHL1  H12B 2623   3.512   4.239   7.913  0.0839  1.3737  0.1325
   36CHL1   C11 2624   3.361   4.241   7.760  0.1947  0.2909  0.3638
   36CHL1  H11A 2625   3.251   4.260   7.760  0.2899  1.8553 -4.0150
   36CHL1  H11B 2626   3.411   4.327   7.711  1.6090 -0.5662  0.2754
   36CHL1    C9 2627   3.391   4.108   7.677 -0.0064 -0.7514 -0.0960
   36CHL1    H9 2628   3.497   4.126   7.650  0.1302  0.7378  1.2955
   36CHL1   C10 2629   3.318   4.100   7.541 -0.0500 -0.0271  0.1459
   36CHL1   C19 2630   3.159   4.091   7.566 -0.4222 -0.5919  0.2617
   36CHL1  H19A 2631   3.123   3.992   7.598 -0.0187 -0.6699  0.4794
   36CHL1  H19B 2632   3.125   4.182   7.621  1.8007  1.1792 -1.0940
   36CHL1  H19C 2633   3.113   4.099   7.465 -0.5390 -1.5354  0.2397
   36CHL1    C1 2634   3.343   4.221   7.447  0.1164  0.0662  0.3313
   36CHL1   H1A 2635   3.300   4.313   7.491  1.6073  1.2822 -0.6702
   36CHL1   H1B 2636   3.446   4.262   7.439 -0.3592  1.4094  0.8832
   36CHL1    C2 2637   3.285   4.212   7.299 -0.4393 -0.0721 -0.5100
   36CHL1   H2A 2638   3.296   4.307   7.242  0.6648 -0.9811 -1.8645
   36CHL1   H2B 2639   3.175   4.200   7.289 -0.7560  1.7338  0.4288
   36CHL1   C20 2640   3.353   4.103   8.242 -0.1933 -0.0899  1.0102
   36CHL1   H20 2641   3.251   4.060   8.253  0.3724 -1.5390  0.8982
   36CHL1   C21 2642   3.335   4.255   8.255  0.2631  0.0597  0.0434
   36CHL1  H21A 2643   3.259   4.303   8.189 -0.3542 -2.5188 -1.2497
   36CHL1  H21B 2644   3.430   4.309   8.237  0.1650 -0.2528 -1.5758
   36CHL1  H21C 2645   3.293   4.276   8.356  0.4537 -1.9945  0.5900
   36CHL1   C22 2646   3.426   4.055   8.365 -0.2960 -0.9902 -0.2282
   36CHL1  H22A 2647   3.371   4.086   8.456  1.1179 -0.2519  0.4008
   36CHL1  H22B 2648   3.434   3.945   8.350  1.4695 -0.7680 -1.1939
   36CHL1   C23 2649   3.572   4.105   8.386  0.8370 -0.1625  0.2890
   36CHL1  H23A 2650   3.627   4.058   8.301 -0.9142  0.5999 -1.3637
   36CHL1  H23B 2651   3.579   4.216   8.373 -2.2473  0.1176  0.1157
   36CHL1   C24 2652   3.620   4.073   8.533  0.1898 -0.5379 -0.0241
   36CHL1  H24A 2653   3.548   4.121   8.603 -0.3291 -1.2709 -0.0332
   36CHL1  H24B 2654   3.624   3.962   8.542  0.0248 -0.3811  3.0075
   36CHL1   C25 2655   3.765   4.124   8.559  0.1027  0.3303 -0.5933
   36CHL1   H25 2656   3.783   4.196   8.477  0.0470 -1.5750 -2.3434
   36CHL1   C26 2657   3.782   4.193   8.699 -0.2534  0.1902  0.9200
   36CHL1  H26A 2658   3.729   4.124   8.768 -1.8761 -0.2829 -0.7310
   36CHL1  H26B 2659   3.889   4.207   8.727 -0.3672  0.4427  1.2316
   36CHL1  H26C 2660   3.724   4.288   8.698  0.2049  0.4822  1.4138
   36CHL1   C27 2661   3.853   4.008   8.560 -0.5205  0.1021 -0.0670
   36CHL1  H27A 2662   3.806   3.925   8.617  0.5441 -1.0941 -0.8660
   36CHL1  H27B 2663   3.871   3.971   8.457 -0.9274  0.1772 -0.1685
   36CHL1  H27C 2664   3.955   4.032   8.597 -0.4334 -0.5042  0.0950
   37CHL1    C3 2665   2.128   6.485   6.843  0.4574  0.1227  0.1088
   37CHL1    H3 2666   2.026   6.472   6.885 -0.7855 -0.2149 -2.8029
   37CHL1    O3 2667   2.111   6.482   6.702 -0.1462  0.0476  0.1918
   37CHL1   H3' 2668   2.189   6.523   6.664 -0.4284  0.4436  0.0387
   37CHL1    C4 2669   2.187   6.619   6.897  0.2471  0.2988  0.0499
   37CHL1   H4A 2670   2.296   6.635   6.880 -0.1408  1.6720 -1.3606
   37CHL1   H4B 2671   2.126   6.698   6.849 -2.8278 -1.2916  1.0295
   37CHL1    C5 2672   2.162   6.620   7.049 -0.4876 -0.0886 -0.1203
   37CHL1    C6 2673   2.087   6.711   7.103  0.1622 -0.4335 -0.6251
   37CHL1    H6 2674   2.034   6.793   7.053  1.1261  0.6246  0.0295
   37CHL1    C7 2675   2.079   6.716   7.257  0.8511 -0.2263 -0.1309
   37CHL1   H7A 2676   2.079   6.824   7.284 -4.2270 -0.0738  0.2832
   37CHL1   H7B 2677   1.975   6.681   7.271  1.8521 -2.6350  2.0328
   37CHL1    C8 2678   2.174   6.630   7.337  0.2394  0.1322 -0.4809
   37CHL1    H8 2679   2.275   6.676   7.338  0.1606  0.3098  0.2400
   37CHL1   C14 2680   2.136   6.609   7.489  0.1162 -0.1039  0.2425
   37CHL1   H14 2681   2.028   6.580   7.492  0.3838 -1.6128 -2.1388
   37CHL1   C15 2682   2.134   6.739   7.568 -0.0563  0.2278 -0.5602
   37CHL1  H15A 2683   2.221   6.806   7.552  3.2039 -2.6909  2.9764
   37CHL1  H15B 2684   2.045   6.801   7.543  0.0812  0.5187 -0.3320
   37CHL1   C16 2685   2.143   6.687   7.712 -0.0480 -0.1544 -0.1331
   37CHL1  H16A 2686   2.233   6.727   7.763 -0.4380  1.9409 -0.9665
   37CHL1  H16B 2687   2.050   6.716   7.766  0.6459 -1.8459  2.1185
   37CHL1   C17 2688   2.163   6.535   7.707  0.3065 -0.0674 -0.0084
   37CHL1   H17 2689   2.058   6.501   7.696  0.5137 -0.1915 -1.7652
   37CHL1   C13 2690   2.218   6.504   7.567  0.6723 -0.0367 -0.6798
   37CHL1   C18 2691   2.371   6.530   7.576 -0.3179  0.7447  0.4711
   37CHL1  H18A 2692   2.433   6.440   7.598  0.2123  1.2328  0.9905
   37CHL1  H18B 2693   2.407   6.564   7.477  0.4974  1.1173  0.8936
   37CHL1  H18C 2694   2.388   6.609   7.652  1.8596 -3.0267  4.3571
   37CHL1   C12 2695   2.189   6.369   7.500  0.1066 -0.3071  0.2536
   37CHL1  H12A 2696   2.220   6.281   7.560 -2.7597 -0.4132  1.7739
   37CHL1  H12B 2697   2.078   6.366   7.488 -0.1318 -0.8323  2.1668
   37CHL1   C11 2698   2.244   6.376   7.354 -0.0817  0.5105  0.1689
   37CHL1  H11A 2699   2.354   6.390   7.363 -0.0198  1.2113 -1.2967
   37CHL1  H11B 2700   2.225   6.274   7.315 -1.2917 -1.1281  4.4810
   37CHL1    C9 2701   2.179   6.489   7.268  0.3334 -0.7336  0.2409
   37CHL1    H9 2702   2.070   6.467   7.265 -0.1737  1.6344 -0.0953
   37CHL1   C10 2703   2.230   6.502   7.122 -0.0525 -0.1190 -0.2544
   37CHL1   C19 2704   2.386   6.519   7.113  0.2381 -0.1217  0.0752
   37CHL1  H19A 2705   2.425   6.491   7.013 -0.8919 -2.2694  0.1843
   37CHL1  H19B 2706   2.427   6.617   7.146 -0.7044 -0.2424  1.6725
   37CHL1  H19C 2707   2.437   6.448   7.181 -0.8460  0.9164  2.0674
   37CHL1    C1 2708   2.198   6.366   7.046  0.6406  0.3732 -0.7914
   37CHL1   H1A 2709   2.264   6.287   7.086 -1.3259 -2.2986 -2.4160
   37CHL1   H1B 2710   2.098   6.327   7.077  0.2915  1.0353 -1.0464
   37CHL1    C2 2711   2.211   6.366   6.898 -0.7851  0.0209 -0.1010
   37CHL1   H2A 2712   2.176   6.266   6.864 -0.5940 -0.3782  0.8304
   37CHL1   H2B 2713   2.311   6.384   6.854 -0.9165 -2.1120 -1.4136
   37CHL1   C20 2714   2.204   6.467   7.835  0.0968 -0.6505  0.4526
   37CHL1   H20 2715   2.304   6.507   7.864 -0.4171  2.1000 -1.1778
   37CHL1   C21 2716   2.219   6.311   7.814 -0.7820 -0.4227  0.2219
   37CHL1  H21A 2717   2.228   6.252   7.907 -1.1569  0.3671  0.7684
   37CHL1  H21B 2718   2.305   6.288   7.748  0.3985 -1.7188  2.1051
   37CHL1  H21C 2719   2.132   6.273   7.757 -1.5174 -0.2437  1.2019
   37CHL1   C22 2720   2.107   6.487   7.948  0.4997  0.3438  0.0289
   37CHL1  H22A 2721   2.060   6.588   7.951 -2.5467 -0.9678 -0.2438
   37CHL1  H22B 2722   2.024   6.414   7.942  0.3462  0.1211  3.1219
   37CHL1   C23 2723   2.186   6.466   8.078 -0.2812 -0.3658 -0.0093
   37CHL1  H23A 2724   2.248   6.374   8.071  0.3475  0.1796 -3.0283
   37CHL1  H23B 2725   2.259   6.549   8.088  0.6573 -1.2585  0.6900
   37CHL1   C24 2726   2.109   6.464   8.210 -0.2423  0.6536 -0.1122
   37CHL1  H24A 2727   2.173   6.470   8.300  4.9041 -0.3009 -3.2802
   37CHL1  H24B 2728   2.046   6.556   8.214  0.0012  0.7799  1.6635
   37CHL1   C25 2729   2.020   6.332   8.213  0.1128 -0.4951  0.0398
   37CHL1   H25 2730   1.966   6.342   8.116  0.1607  0.2041  0.0803
   37CHL1   C26 2731   2.098   6.204   8.210  0.2091 -0.1656 -0.5115
   37CHL1  H26A 2732   2.029   6.117   8.213  0.8411 -0.7822 -2.3831
   37CHL1  H26B 2733   2.147   6.195   8.110  0.8772  0.2443 -0.2279
   37CHL1  H26C 2734   2.182   6.181   8.280 -1.0313 -2.0852  0.4467
   37CHL1   C27 2735   1.929   6.327   8.336 -0.9191 -0.5190  0.2567
   37CHL1  H27A 2736   1.977   6.282   8.425  0.3180  1.5949  0.7204
   37CHL1  H27B 2737   1.887   6.429   8.351 -0.9594 -0.5795  0.5510
   37CHL1  H27C 2738   1.836   6.267   8.324  0.2059 -2.0147 -1.4745
   38CHL1    C3 2739   3.760   1.787   6.693 -0.4536  0.0604  0.6763
   38CHL1    H3 2740   3.787   1.681   6.676 -0.8924  0.3674 -2.4617
   38CHL1    O3 2741   3.751   1.839   6.565  0.4635 -0.3775 -0.5540
   38CHL1   H3' 2742   3.686   1.908   6.584  0.4102 -0.8177  0.9075
   38CHL1    C4 2743   3.629   1.809   6.759 -0.5485 -0.0178  0.3691
   38CHL1   H4A 2744   3.605   1.917   6.761  1.4594  0.4721 -0.3872
   38CHL1   H4B 2745   3.555   1.749   6.701  1.8514 -2.2891 -0.5437
   38CHL1    C5 2746   3.633   1.754   6.905 -0.1273 -0.1530 -0.3126
   38CHL1    C6 2747   3.549   1.659   6.948 -0.3120  0.3609  0.3736
   38CHL1    H6 2748   3.464   1.639   6.881 -0.4359  2.7930 -0.2791
   38CHL1    C7 2749   3.530   1.618   7.096  0.4154  0.1044  0.1463
   38CHL1   H7A 2750   3.425   1.624   7.130  0.6626 -0.7826  1.1424
   38CHL1   H7B 2751   3.556   1.511   7.112 -1.9345 -0.5813 -0.3022
   38CHL1    C8 2752   3.611   1.710   7.186 -0.3468  0.5448  0.3524
   38CHL1    H8 2753   3.551   1.803   7.188 -1.3757 -0.0952  0.3295
   38CHL1   C14 2754   3.626   1.646   7.327 -0.0735 -0.1706  0.3491
   38CHL1   H14 2755   3.690   1.557   7.309  0.2620 -0.3009  2.0321
   38CHL1   C15 2756   3.501   1.595   7.393 -0.1043 -0.1753  0.6163
   38CHL1  H15A 2757   3.425   1.674   7.374  1.8112  1.3435 -1.2436
   38CHL1  H15B 2758   3.478   1.490   7.364  1.1719 -0.4265  0.4427
   38CHL1   C16 2759   3.537   1.603   7.543 -0.2507  0.2360  0.1201
   38CHL1  H16A 2760   3.477   1.684   7.590 -2.7561 -0.8857 -0.9317
   38CHL1  H16B 2761   3.516   1.506   7.592 -0.9120 -0.1350 -0.8438
   38CHL1   C17 2762   3.692   1.645   7.554 -0.6682  0.2466  0.3394
   38CHL1   H17 2763   3.756   1.557   7.535  0.7011  0.8351  1.9015
   38CHL1   C13 2764   3.705   1.732   7.432  0.5259 -0.9232 -0.0466
   38CHL1   C18 2765   3.633   1.864   7.450 -0.0339 -0.1138  0.6989
   38CHL1  H18A 2766   3.531   1.866   7.493 -0.0278 -0.7462  0.7428
   38CHL1  H18B 2767   3.694   1.943   7.500 -0.8345  1.4499 -0.6693
   38CHL1  H18C 2768   3.607   1.903   7.349  1.0827 -2.3179 -0.5016
   38CHL1   C12 2769   3.844   1.742   7.369 -0.2166  0.0221 -0.1132
   38CHL1  H12A 2770   3.908   1.807   7.432  1.1278 -2.2547  1.0133
   38CHL1  H12B 2771   3.891   1.641   7.365 -0.8208 -0.2388 -2.2251
   38CHL1   C11 2772   3.846   1.811   7.229 -0.1522 -0.7101 -0.5576
   38CHL1  H11A 2773   3.820   1.919   7.234  0.1208 -0.6062 -1.3298
   38CHL1  H11B 2774   3.953   1.816   7.202  0.4487  0.4525  1.8015
   38CHL1    C9 2775   3.752   1.737   7.127  1.1621  0.2643  0.0948
   38CHL1    H9 2776   3.806   1.644   7.102  1.4154  0.3230  0.4254
   38CHL1   C10 2777   3.743   1.812   6.995 -0.0015 -1.0961  0.0248
   38CHL1   C19 2778   3.699   1.958   7.024  1.0598  0.4591 -0.9847
   38CHL1  H19A 2779   3.658   2.014   6.937 -0.0777 -1.1524 -1.5221
   38CHL1  H19B 2780   3.616   1.959   7.098  0.9981  0.7125 -1.0548
   38CHL1  H19C 2781   3.789   2.007   7.067  0.7797  0.4103 -0.3279
   38CHL1    C1 2782   3.873   1.812   6.914 -0.0914 -0.1242 -0.0245
   38CHL1   H1A 2783   3.944   1.883   6.959 -0.5462 -0.6824  1.6456
   38CHL1   H1B 2784   3.919   1.711   6.919  0.1652 -0.0354 -0.5303
   38CHL1    C2 2785   3.867   1.859   6.768  0.1829  0.4027 -0.1208
   38CHL1   H2A 2786   3.961   1.864   6.710 -0.5322 -0.3241 -1.3845
   38CHL1   H2B 2787   3.824   1.962   6.762 -2.3870 -0.6508 -1.2264
   38CHL1   C20 2788   3.754   1.688   7.693  0.1848  0.3847  0.5812
   38CHL1   H20 2789   3.704   1.781   7.727 -0.0261  0.5235 -0.1013
   38CHL1   C21 2790   3.908   1.707   7.686 -0.3055 -0.0244  0.0398
   38CHL1  H21A 2791   3.928   1.797   7.624 -1.6733  1.3804  1.5097
   38CHL1  H21B 2792   3.967   1.618   7.655  1.0875  0.5955  0.8364
   38CHL1  H21C 2793   3.936   1.749   7.785 -1.4423  1.2355 -0.1465
   38CHL1   C22 2794   3.724   1.588   7.810  0.0305  0.0470 -0.0471
   38CHL1  H22A 2795   3.615   1.564   7.803  0.2134 -0.3178 -2.5042
   38CHL1  H22B 2796   3.790   1.502   7.832 -0.8287 -0.0774  2.3460
   38CHL1   C23 2797   3.732   1.658   7.952 -0.7490 -0.5012  0.0356
   38CHL1  H23A 2798   3.840   1.656   7.976 -0.3202  1.8443 -1.3296
   38CHL1  H23B 2799   3.691   1.762   7.957 -2.2810 -1.0524 -0.4718
   38CHL1   C24 2800   3.662   1.574   8.058 -0.1910 -0.3103  0.6237
   38CHL1  H24A 2801   3.555   1.571   8.027 -0.7905  0.3994  2.4970
   38CHL1  H24B 2802   3.709   1.473   8.054 -0.1167 -0.2830  0.7991
   38CHL1   C25 2803   3.672   1.618   8.204  0.0256 -0.5984 -0.0137
   38CHL1   H25 2804   3.624   1.536   8.262  0.7381 -1.2619 -0.3294
   38CHL1   C26 2805   3.818   1.624   8.260 -0.2380 -0.1336  0.9117
   38CHL1  H26A 2806   3.864   1.716   8.218 -1.2808  0.2794  0.6563
   38CHL1  H26B 2807   3.816   1.634   8.370 -0.0480  1.9956  0.7741
   38CHL1  H26C 2808   3.864   1.531   8.220 -1.9513 -1.4815  1.9312
   38CHL1   C27 2809   3.594   1.755   8.232  0.0724  0.3543  0.0895
   38CHL1  H27A 2810   3.648   1.838   8.180 -0.6397 -0.0657 -1.3691
   38CHL1  H27B 2811   3.490   1.746   8.194  0.5637  2.2851 -1.9605
   38CHL1  H27C 2812   3.591   1.762   8.343  2.1058 -2.0862  0.3924
   39CHL1    C3 2813   4.424   4.484   7.037 -0.0504 -0.3609  0.7570
   39CHL1    H3 2814   4.532   4.497   7.061  0.4314 -2.0612 -0.2955
   39CHL1    O3 2815   4.393   4.538   6.911 -0.3479  0.4968 -0.1407
   39CHL1   H3' 2816   4.303   4.506   6.900 -0.9622  0.8338  2.9490
   39CHL1    C4 2817   4.395   4.338   7.053 -0.0038  0.1570  0.0306
   39CHL1   H4A 2818   4.288   4.325   7.025  0.5881  0.7461 -2.8110
   39CHL1   H4B 2819   4.449   4.272   6.982  0.3572  0.6735 -0.1761
   39CHL1    C5 2820   4.412   4.292   7.200  0.3029  0.9424  0.0967
   39CHL1    C6 2821   4.492   4.188   7.226  0.6620  0.7491 -0.3163
   39CHL1    H6 2822   4.548   4.140   7.144  1.0267 -0.5688  0.6664
   39CHL1    C7 2823   4.522   4.139   7.364 -0.1605 -0.1112  0.4731
   39CHL1   H7A 2824   4.547   4.031   7.372  2.6249  0.3876 -0.2438
   39CHL1   H7B 2825   4.607   4.199   7.405 -0.6279 -0.6768  2.3623
   39CHL1    C8 2826   4.407   4.180   7.465 -0.7454 -0.1629 -0.1789
   39CHL1    H8 2827   4.322   4.113   7.441 -1.5747 -0.0082  2.1110
   39CHL1   C14 2828   4.443   4.148   7.615 -0.5113 -0.5974  0.1687
   39CHL1   H14 2829   4.539   4.203   7.628 -1.0969  0.5560 -0.2773
   39CHL1   C15 2830   4.480   4.001   7.665  0.0062 -0.5388 -0.3938
   39CHL1  H15A 2831   4.407   3.926   7.629 -0.2255  0.1509 -1.4119
   39CHL1  H15B 2832   4.583   3.967   7.643  0.5383  1.3166 -0.9715
   39CHL1   C16 2833   4.467   4.018   7.820  0.2133 -0.5425 -0.2170
   39CHL1  H16A 2834   4.381   3.950   7.836 -0.4366  0.5087  0.9968
   39CHL1  H16B 2835   4.556   3.988   7.880  1.1941  0.2746 -1.2181
   39CHL1   C17 2836   4.420   4.162   7.844  0.6331  0.1080 -0.8128
   39CHL1   H17 2837   4.514   4.222   7.844  1.8345 -1.6793 -0.3030
   39CHL1   C13 2838   4.349   4.201   7.717 -0.5779  0.0919 -0.3629
   39CHL1   C18 2839   4.212   4.134   7.701 -0.6739  0.1027  0.1145
   39CHL1  H18A 2840   4.137   4.169   7.775 -1.3626  1.3211 -1.1219
   39CHL1  H18B 2841   4.175   4.151   7.598 -0.8912  0.0806  0.1892
   39CHL1  H18C 2842   4.210   4.023   7.712  0.5334  0.2222  2.0363
   39CHL1   C12 2843   4.330   4.355   7.697 -0.1073 -0.6792 -0.1065
   39CHL1  H12A 2844   4.259   4.397   7.771  1.5912 -0.6085  1.5813
   39CHL1  H12B 2845   4.434   4.392   7.710  1.2153 -3.9195 -0.3586
   39CHL1   C11 2846   4.267   4.382   7.554 -0.4551  0.1639  0.3914
   39CHL1  H11A 2847   4.170   4.330   7.534  0.7180 -2.0740  0.1470
   39CHL1  H11B 2848   4.257   4.492   7.552  3.2560  0.6128 -0.7494
   39CHL1    C9 2849   4.365   4.332   7.445  0.3861  0.6610 -0.1930
   39CHL1    H9 2850   4.464   4.378   7.466  1.4407 -0.8941 -1.4850
   39CHL1   C10 2851   4.332   4.374   7.300 -0.1914  0.1349 -1.0512
   39CHL1   C19 2852   4.179   4.346   7.287 -0.1605  0.2366  0.1428
   39CHL1  H19A 2853   4.155   4.375   7.182  1.3442  1.4248  0.0941
   39CHL1  H19B 2854   4.143   4.244   7.314 -0.9988 -0.0879 -1.9875
   39CHL1  H19C 2855   4.127   4.418   7.354  0.0537  0.3241  0.2132
   39CHL1    C1 2856   4.370   4.520   7.277  0.6198  0.6112 -0.1831
   39CHL1   H1A 2857   4.320   4.579   7.357  0.0898 -0.7113  0.5011
   39CHL1   H1B 2858   4.478   4.538   7.299  0.0190  1.4334  2.5803
   39CHL1    C2 2859   4.346   4.571   7.140  0.1490 -0.7408  0.0571
   39CHL1   H2A 2860   4.391   4.673   7.135  0.1184 -0.7163  0.2865
   39CHL1   H2B 2861   4.236   4.572   7.126 -0.0174  0.3538  1.1967
   39CHL1   C20 2862   4.348   4.184   7.983 -0.7291 -0.6348  1.0365
   39CHL1   H20 2863   4.240   4.164   7.970 -0.4577 -1.5697  0.0517
   39CHL1   C21 2864   4.359   4.331   8.036  0.0521 -0.2816  0.0896
   39CHL1  H21A 2865   4.459   4.362   8.074  0.5998 -0.3121 -1.2742
   39CHL1  H21B 2866   4.288   4.333   8.121 -1.7679 -0.5954 -1.3658
   39CHL1  H21C 2867   4.333   4.406   7.958 -0.3742  1.7943  2.1221
   39CHL1   C22 2868   4.395   4.086   8.094 -0.5350 -0.3353 -0.1056
   39CHL1  H22A 2869   4.372   3.983   8.059  0.2060 -0.0363 -1.5102
   39CHL1  H22B 2870   4.505   4.094   8.109 -0.7713 -1.4691  3.2097
   39CHL1   C23 2871   4.336   4.102   8.231 -0.4878  0.8764 -0.4041
   39CHL1  H23A 2872   4.378   4.196   8.272  1.2050  0.0550 -0.1443
   39CHL1  H23B 2873   4.225   4.105   8.228 -0.6375 -0.3018  2.1065
   39CHL1   C24 2874   4.370   3.990   8.334  0.3471 -0.0151 -0.4055
   39CHL1  H24A 2875   4.339   3.889   8.300 -0.0336 -0.3626  0.9164
   39CHL1  H24B 2876   4.480   3.987   8.351  0.4165 -0.4119 -0.8968
   39CHL1   C25 2877   4.307   4.010   8.479  0.4766  0.6444  0.2380
   39CHL1   H25 2878   4.201   4.044   8.472  0.4622  1.6098  3.3453
   39CHL1   C26 2879   4.321   3.878   8.556 -0.7542  0.0763  0.0488
   39CHL1  H26A 2880   4.278   3.889   8.658  2.7602  0.4452  1.6506
   39CHL1  H26B 2881   4.264   3.800   8.501 -1.9641 -0.9079  2.5269
   39CHL1  H26C 2882   4.427   3.845   8.565 -0.9495 -0.0541  2.4382
   39CHL1   C27 2883   4.381   4.114   8.553 -0.9258 -0.2207  0.5118
   39CHL1  H27A 2884   4.474   4.073   8.599  0.7066  1.1555 -1.4175
   39CHL1  H27B 2885   4.407   4.199   8.488 -0.8948 -1.2268 -0.8253
   39CHL1  H27C 2886   4.321   4.161   8.634  1.0363  0.2275  1.7832
   40CHL1    C3 2887   5.714   6.038   7.080 -0.0092  0.0139  0.0469
   40CHL1    H3 2888   5.790   6.113   7.110 -0.5012 -0.3400  2.4180
   40CHL1    O3 2889   5.697   6.050   6.942 -0.4254  0.1591  0.1897
   40CHL1   H3' 2890   5.783   6.029   6.905 -0.8095 -2.9663  0.7624
   40CHL1    C4 2891   5.774   5.896   7.108 -0.2938 -0.5364  0.0404
   40CHL1   H4A 2892   5.696   5.828   7.069  0.4959 -1.4008 -0.0567
   40CHL1   H4B 2893   5.864   5.883   7.044  0.5292  0.8415  0.8592
   40CHL1    C5 2894   5.799   5.871   7.258  0.1793  0.3801  0.0528
   40CHL1    C6 2895   5.918   5.828   7.309  0.1285  0.0549 -0.1190
   40CHL1    H6 2896   6.002   5.802   7.242  2.0779  0.5221  1.9953
   40CHL1    C7 2897   5.948   5.794   7.454  0.9562  0.5138  0.0537
   40CHL1   H7A 2898   5.992   5.692   7.452 -1.2965 -0.5387  0.5259
   40CHL1   H7B 2899   6.018   5.861   7.507  0.8106  1.3893 -0.8339
   40CHL1    C8 2900   5.814   5.777   7.530 -0.2712  0.0037 -1.1043
   40CHL1    H8 2901   5.769   5.681   7.495 -0.3345  0.5059 -2.4333
   40CHL1   C14 2902   5.852   5.769   7.678 -0.5330  0.4879 -0.2578
   40CHL1   H14 2903   5.910   5.861   7.700 -0.8845  0.4175  1.0545
   40CHL1   C15 2904   5.948   5.657   7.733  0.3769 -0.1730 -0.5629
   40CHL1  H15A 2905   5.930   5.552   7.701  1.0393 -1.9024  4.0606
   40CHL1  H15B 2906   6.047   5.675   7.686  0.2026  0.1660 -0.8057
   40CHL1   C16 2907   5.929   5.666   7.887 -0.8823 -0.1324  0.3406
   40CHL1  H16A 2908   5.928   5.562   7.926  0.2527 -0.2389  0.1317
   40CHL1  H16B 2909   6.016   5.714   7.935 -1.5244  0.6065  0.7738
   40CHL1   C17 2910   5.809   5.756   7.912  0.4698 -0.4912  0.7236
   40CHL1   H17 2911   5.855   5.858   7.913 -1.5830  0.5638 -1.4905
   40CHL1   C13 2912   5.732   5.765   7.776  0.8919 -0.5395  0.0486
   40CHL1   C18 2913   5.655   5.628   7.757 -0.3200  0.6696  0.3728
   40CHL1  H18A 2914   5.733   5.550   7.772 -2.6059 -1.8485 -0.2091
   40CHL1  H18B 2915   5.581   5.625   7.840 -0.8757  0.3561 -0.1252
   40CHL1  H18C 2916   5.601   5.624   7.660 -1.5504  0.3271  1.0561
   40CHL1   C12 2917   5.646   5.893   7.752  0.8388 -0.0983  0.0079
   40CHL1  H12A 2918   5.548   5.896   7.805 -0.4798  0.3383 -2.3284
   40CHL1  H12B 2919   5.698   5.983   7.791  0.8646 -0.7181  1.4633
   40CHL1   C11 2920   5.613   5.911   7.597 -0.3737  0.1217 -0.4134
   40CHL1  H11A 2921   5.538   5.831   7.580  1.7283 -2.1454  0.3899
   40CHL1  H11B 2922   5.571   6.011   7.571 -2.4709 -0.4281  0.6413
   40CHL1    C9 2923   5.730   5.899   7.502  0.3490 -0.0702  0.4608
   40CHL1    H9 2924   5.793   5.990   7.510 -2.0413  1.7025  0.2247
   40CHL1   C10 2925   5.677   5.903   7.349 -0.0170  1.0463  0.1448
   40CHL1   C19 2926   5.569   5.788   7.326 -0.4590  0.5589  1.2433
   40CHL1  H19A 2927   5.528   5.779   7.223  1.3634 -2.1437  0.6571
   40CHL1  H19B 2928   5.610   5.686   7.341  0.5834  0.3933 -2.0675
   40CHL1  H19C 2929   5.473   5.802   7.380 -0.5818 -0.0707  1.2010
   40CHL1    C1 2930   5.614   6.038   7.309 -0.0488  0.3407  0.0901
   40CHL1   H1A 2931   5.516   6.035   7.361 -0.3754 -1.3628 -0.5583
   40CHL1   H1B 2932   5.669   6.125   7.349  0.0647 -0.1802  1.1090
   40CHL1    C2 2933   5.579   6.053   7.156 -0.1680 -0.5234 -0.3765
   40CHL1   H2A 2934   5.537   6.155   7.144 -2.3422 -0.9971  2.3114
   40CHL1   H2B 2935   5.509   5.977   7.116 -0.4806 -1.1567  1.2955
   40CHL1   C20 2936   5.745   5.731   8.047  0.7514 -0.3115 -0.9924
   40CHL1   H20 2937   5.695   5.632   8.048  0.3758 -0.1412  1.0816
   40CHL1   C21 2938   5.626   5.828   8.067  0.6394 -0.3653 -0.7572
   40CHL1  H21A 2939   5.545   5.801   7.996  0.8722 -0.0688 -1.1378
   40CHL1  H21B 2940   5.656   5.935   8.063  1.4636 -0.5757 -0.5147
   40CHL1  H21C 2941   5.580   5.805   8.166  2.6111 -2.3528 -0.2171
   40CHL1   C22 2942   5.842   5.744   8.165 -0.0806 -0.3898  0.6904
   40CHL1  H22A 2943   5.936   5.687   8.152 -0.4687 -0.8204 -0.2536
   40CHL1  H22B 2944   5.864   5.851   8.187  1.9394 -0.7726  0.6697
   40CHL1   C23 2945   5.789   5.676   8.301  0.2548 -0.5672  0.1331
   40CHL1  H23A 2946   5.692   5.722   8.329  0.6216  1.8869 -2.2791
   40CHL1  H23B 2947   5.777   5.569   8.273  2.0912 -0.6154 -0.6544
   40CHL1   C24 2948   5.898   5.677   8.415 -0.7300  0.1814  0.4166
   40CHL1  H24A 2949   5.988   5.627   8.373 -1.8790 -0.0625 -1.8791
   40CHL1  H24B 2950   5.929   5.782   8.432  1.7938 -0.4834  0.3077
   40CHL1   C25 2951   5.863   5.602   8.545 -0.0824  0.1913  0.0356
   40CHL1   H25 2952   5.815   5.507   8.514  0.7927 -0.5368  0.8496
   40CHL1   C26 2953   5.980   5.571   8.635 -0.5837 -0.3466 -0.6466
   40CHL1  H26A 2954   5.940   5.512   8.720 -1.4348 -0.8885 -1.4027
   40CHL1  H26B 2955   6.063   5.521   8.581  0.1104  1.0032 -0.8690
   40CHL1  H26C 2956   6.027   5.666   8.669  0.6009 -1.6696  1.6244
   40CHL1   C27 2957   5.751   5.685   8.614 -0.1594 -0.2951 -0.6471
   40CHL1  H27A 2958   5.775   5.789   8.642  0.8283 -0.7655  0.3448
   40CHL1  H27B 2959   5.666   5.702   8.543 -0.9952 -0.6576  0.2423
   40CHL1  H27C 2960   5.710   5.622   8.696  0.1683 -1.1252 -1.0995
   41CHL1    C3 2961   1.156   6.024   6.907  0.5537  0.7561  0.0671
   41CHL1    H3 2962   1.046   6.043   6.908  0.3084 -0.3899 -1.2570
   41CHL1    O3 2963   1.178   5.985   6.770  0.2860 -0.2008 -0.6440
   41CHL1   H3' 2964   1.220   6.063   6.732  3.0317 -1.0662  0.3712
   41CHL1    C4 2965   1.230   6.152   6.942 -0.7401  0.4029  0.0756
   41CHL1   H4A 2966   1.337   6.130   6.925 -1.0288 -0.4484 -0.7344
   41CHL1   H4B 2967   1.198   6.244   6.889  1.6751  1.2064 -0.1126
   41CHL1    C5 2968   1.224   6.183   7.094 -0.1241  0.5583 -0.2599
   41CHL1    C6 2969   1.167   6.299   7.142  0.3644 -0.1474  0.1868
   41CHL1    H6 2970   1.133   6.377   7.071 -1.1715 -0.8603  0.0964
   41CHL1    C7 2971   1.165   6.330   7.287 -0.1483 -0.3893 -0.1919
   41CHL1   H7A 2972   1.216   6.427   7.308 -0.8538  0.7807 -3.3608
   41CHL1   H7B 2973   1.063   6.331   7.331 -0.3571  2.9248 -0.5233
   41CHL1    C8 2974   1.245   6.234   7.379 -0.0301 -0.0194  0.3382
   41CHL1    H8 2975   1.355   6.247   7.365 -0.3700  0.1912 -3.2573
   41CHL1   C14 2976   1.204   6.259   7.529 -0.0016  0.3074  0.2231
   41CHL1   H14 2977   1.095   6.240   7.523  0.1230 -0.2711 -0.2942
   41CHL1   C15 2978   1.211   6.396   7.596  0.1805 -0.5879 -0.1301
   41CHL1  H15A 2979   1.311   6.435   7.564 -0.5450  1.1231 -0.4427
   41CHL1  H15B 2980   1.132   6.469   7.567  0.4266  0.8389  2.5050
   41CHL1   C16 2981   1.204   6.372   7.748 -0.3923 -0.2974 -0.0032
   41CHL1  H16A 2982   1.287   6.423   7.801 -1.6558  0.3293  1.4330
   41CHL1  H16B 2983   1.113   6.413   7.797 -0.2408 -0.8325  0.7464
   41CHL1   C17 2984   1.215   6.220   7.765 -0.3847  0.0837 -0.5638
   41CHL1   H17 2985   1.110   6.182   7.767 -0.3282 -0.0909 -0.9415
   41CHL1   C13 2986   1.279   6.164   7.630 -0.6143 -0.1418  0.4611
   41CHL1   C18 2987   1.429   6.186   7.642 -0.2186  0.1058 -0.1369
   41CHL1  H18A 2988   1.464   6.286   7.676 -0.2140 -0.1475  0.6152
   41CHL1  H18B 2989   1.470   6.111   7.712 -0.3483  0.0065 -0.1671
   41CHL1  H18C 2990   1.482   6.164   7.546  0.4705 -2.9107  0.8401
   41CHL1   C12 2991   1.242   6.018   7.587 -0.1213 -0.3725  0.2469
   41CHL1  H12A 2992   1.291   5.946   7.656  1.0622 -0.8418 -1.0378
   41CHL1  H12B 2993   1.133   6.019   7.607 -0.1725  0.4857 -0.0262
   41CHL1   C11 2994   1.264   5.990   7.444  0.1849  0.3949 -0.4730
   41CHL1  H11A 2995   1.374   5.971   7.446  0.2096  0.5997  1.0700
   41CHL1  H11B 2996   1.231   5.889   7.412  1.6860 -0.2692 -0.0259
   41CHL1    C9 2997   1.215   6.092   7.339 -0.2750  0.0328  0.0447
   41CHL1    H9 2998   1.105   6.085   7.335 -0.3453  0.8118  0.3967
   41CHL1   C10 2999   1.258   6.063   7.193  0.0847  0.3241  0.0036
   41CHL1   C19 3000   1.411   6.033   7.189 -0.0311 -0.2534  0.0483
   41CHL1  H19A 3001   1.450   6.005   7.089 -0.9847 -1.3101 -0.0528
   41CHL1  H19B 3002   1.470   6.115   7.234 -0.6760  0.5761 -0.5653
   41CHL1  H19C 3003   1.442   5.939   7.240  2.0662 -0.2390 -1.0906
   41CHL1    C1 3004   1.181   5.937   7.140  0.1572 -0.0746 -0.1572
   41CHL1   H1A 3005   1.224   5.847   7.187 -0.4633 -0.6914 -0.7571
   41CHL1   H1B 3006   1.075   5.945   7.173  0.6142 -1.9002  1.9360
   41CHL1    C2 3007   1.189   5.903   6.995  0.5418 -0.8665 -0.0548
   41CHL1   H2A 3008   1.122   5.819   6.965  0.2624  0.1074 -2.4065
   41CHL1   H2B 3009   1.287   5.871   6.953  1.2089  2.6997 -1.5742
   41CHL1   C20 3010   1.276   6.188   7.907 -0.3560  0.4105  0.0304
   41CHL1   H20 3011   1.386   6.187   7.900 -0.2404 -2.1425  0.9902
   41CHL1   C21 3012   1.241   6.043   7.934  0.1310  0.0264 -0.0582
   41CHL1  H21A 3013   1.276   5.994   7.840 -0.3636 -0.2648 -0.0938
   41CHL1  H21B 3014   1.132   6.021   7.946 -0.2720  1.6393 -0.5326
   41CHL1  H21C 3015   1.304   6.011   8.019  2.1167  3.1523 -0.2030
   41CHL1   C22 3016   1.228   6.267   8.024 -0.4682 -0.0555 -0.3563
   41CHL1  H22A 3017   1.238   6.375   8.003  0.6606  0.0682  0.7317
   41CHL1  H22B 3018   1.120   6.244   8.041 -0.5911  1.2079  0.7376
   41CHL1   C23 3019   1.305   6.232   8.155 -0.7253  0.2456  0.0891
   41CHL1  H23A 3020   1.283   6.128   8.187 -1.8519  0.0871 -1.0889
   41CHL1  H23B 3021   1.414   6.247   8.140 -0.4060 -0.1575  1.8687
   41CHL1   C24 3022   1.266   6.323   8.277  0.5902  0.6180  0.1218
   41CHL1  H24A 3023   1.317   6.420   8.263 -0.4327  1.2801  0.8053
   41CHL1  H24B 3024   1.156   6.330   8.262  0.7223  0.4054 -1.0389
   41CHL1   C25 3025   1.316   6.271   8.412 -0.7647 -0.6244 -0.2309
   41CHL1   H25 3026   1.272   6.170   8.427 -0.0398 -0.8694  0.3049
   41CHL1   C26 3027   1.474   6.252   8.422  0.1306 -0.1278  0.0201
   41CHL1  H26A 3028   1.516   6.180   8.348  0.7562  1.4899 -1.2440
   41CHL1  H26B 3029   1.524   6.351   8.412 -1.7324  0.9435  0.8129
   41CHL1  H26C 3030   1.493   6.213   8.525 -0.4297 -1.4690 -0.3586
   41CHL1   C27 3031   1.267   6.362   8.526  0.5084 -0.5864 -0.4922
   41CHL1  H27A 3032   1.161   6.331   8.537  1.2534 -3.9197 -1.6055
   41CHL1  H27B 3033   1.314   6.344   8.625 -1.4833 -2.6033  0.1746
   41CHL1  H27C 3034   1.277   6.470   8.503 -2.5510 -0.0407  0.3148
   42CHL1    C3 3035   0.432   3.738   7.023  1.4712 -0.2031 -0.3515
   42CHL1    H3 3036   0.472   3.833   7.064  0.4064 -1.0002  2.7842
   42CHL1    O3 3037   0.445   3.718   6.883 -0.1587 -0.0068 -0.2721
   42CHL1   H3' 3038   0.527   3.668   6.877  0.2601  0.8349 -2.2586
   42CHL1    C4 3039   0.506   3.623   7.100  0.5082  0.6058 -0.2162
   42CHL1   H4A 3040   0.475   3.524   7.060  0.5953 -0.4750  2.2310
   42CHL1   H4B 3041   0.615   3.632   7.085  0.3044  1.5902 -1.3270
   42CHL1    C5 3042   0.457   3.615   7.245  0.1798 -0.0025 -0.3360
   42CHL1    C6 3043   0.547   3.614   7.349  0.0595  0.0696  0.7321
   42CHL1    H6 3044   0.654   3.622   7.323 -0.0059  2.3478  0.9786
   42CHL1    C7 3045   0.519   3.589   7.491 -0.2548  1.0434  0.5524
   42CHL1   H7A 3046   0.579   3.506   7.531 -1.4590  0.0639  0.3956
   42CHL1   H7B 3047   0.540   3.684   7.544 -1.3759  1.2408  0.6706
   42CHL1    C8 3048   0.369   3.558   7.514  0.7057 -0.3218  0.3126
   42CHL1    H8 3049   0.365   3.449   7.498 -1.1501  0.0848 -2.6197
   42CHL1   C14 3050   0.339   3.584   7.661  0.0890  0.4303  0.1488
   42CHL1   H14 3051   0.354   3.694   7.668 -1.0075  0.5970 -0.0425
   42CHL1   C15 3052   0.426   3.519   7.773 -0.7477  0.4791 -0.4201
   42CHL1  H15A 3053   0.439   3.412   7.748  1.5686  0.4173  0.8450
   42CHL1  H15B 3054   0.530   3.555   7.781  0.0459 -1.7558 -0.0943
   42CHL1   C16 3055   0.347   3.530   7.898  0.0636  0.4007  0.0604
   42CHL1  H16A 3056   0.342   3.428   7.942  2.8739  0.7476  1.3697
   42CHL1  H16B 3057   0.385   3.602   7.973 -0.7396 -2.0504  3.0115
   42CHL1   C17 3058   0.208   3.563   7.850  0.2362 -0.1382 -0.1001
   42CHL1   H17 3059   0.199   3.674   7.855  1.4347 -0.0081 -0.4810
   42CHL1   C13 3060   0.200   3.536   7.700 -0.6416 -0.3825 -0.3914
   42CHL1   C18 3061   0.180   3.383   7.670 -0.4121  0.6648 -0.1264
   42CHL1  H18A 3062   0.203   3.374   7.562 -1.7858  0.7599 -0.4444
   42CHL1  H18B 3063   0.247   3.323   7.735 -2.3955 -2.4288 -0.7071
   42CHL1  H18C 3064   0.074   3.352   7.679 -0.6021  0.9370 -1.3257
   42CHL1   C12 3065   0.103   3.628   7.619  0.2013 -0.2070 -0.2144
   42CHL1  H12A 3066  -0.003   3.601   7.641  0.1526 -1.6217 -1.9384
   42CHL1  H12B 3067   0.125   3.729   7.659 -1.5870  0.0264  0.2520
   42CHL1   C11 3068   0.133   3.621   7.464  0.0278  0.6271 -1.0476
   42CHL1  H11A 3069   0.093   3.527   7.419  1.8272 -0.5926 -0.2308
   42CHL1  H11B 3070   0.073   3.705   7.424 -0.7122  1.7827  2.2129
   42CHL1    C9 3071   0.280   3.640   7.428  0.8347  0.9329 -0.1965
   42CHL1    H9 3072   0.304   3.746   7.450 -0.9536  1.2160  0.6185
   42CHL1   C10 3073   0.312   3.621   7.279  0.5122 -0.5706 -0.2704
   42CHL1   C19 3074   0.238   3.493   7.227 -0.5698 -0.3289 -0.6332
   42CHL1  H19A 3075   0.255   3.472   7.119  0.8388  0.6409 -0.6294
   42CHL1  H19B 3076   0.283   3.405   7.278 -0.2873  0.6388  0.8402
   42CHL1  H19C 3077   0.127   3.504   7.226 -0.5149  0.2319 -0.7738
   42CHL1    C1 3078   0.255   3.739   7.204 -0.6241 -0.1365  0.3010
   42CHL1   H1A 3079   0.145   3.729   7.214 -0.5113 -0.7227  1.1636
   42CHL1   H1B 3080   0.277   3.838   7.250 -1.3522  0.5091 -0.7033
   42CHL1    C2 3081   0.286   3.746   7.056  0.0708  0.0412 -0.1925
   42CHL1   H2A 3082   0.246   3.836   7.006  1.5650  0.7131 -0.2217
   42CHL1   H2B 3083   0.235   3.664   7.001  0.6325 -0.6722  0.3254
   42CHL1   C20 3084   0.104   3.500   7.946  0.0907 -0.5968  0.5112
   42CHL1   H20 3085   0.112   3.389   7.937  0.0573 -0.4346 -3.2142
   42CHL1   C21 3086  -0.044   3.527   7.901 -0.3952  0.0159 -0.2816
   42CHL1  H21A 3087  -0.111   3.474   7.972 -1.5291  1.0862 -0.5330
   42CHL1  H21B 3088  -0.066   3.484   7.801 -1.5938 -0.7518  0.2849
   42CHL1  H21C 3089  -0.058   3.636   7.909 -0.1246 -0.0273  0.9442
   42CHL1   C22 3090   0.125   3.543   8.100 -0.1861  0.4380  0.2967
   42CHL1  H22A 3091   0.219   3.499   8.139  0.1119  1.5516  0.8764
   42CHL1  H22B 3092   0.124   3.654   8.089  0.0881  0.2334 -2.9063
   42CHL1   C23 3093   0.018   3.495   8.199 -0.0378  0.5870  0.7555
   42CHL1  H23A 3094  -0.082   3.540   8.181 -0.6195 -0.5859  0.9544
   42CHL1  H23B 3095  -0.018   3.392   8.182 -0.0222  0.6618  0.2396
   42CHL1   C24 3096   0.053   3.517   8.348  0.2983  0.4933  0.2547
   42CHL1  H24A 3097   0.143   3.453   8.357  1.0167  1.4920  0.3866
   42CHL1  H24B 3098   0.074   3.621   8.380  1.1566  1.1197 -2.1009
   42CHL1   C25 3099  -0.048   3.454   8.450 -1.0785  0.1790  0.7681
   42CHL1   H25 3100  -0.063   3.346   8.432  0.9906 -0.3895  2.1262
   42CHL1   C26 3101   0.023   3.456   8.588  0.4642  0.4827  0.2542
   42CHL1  H26A 3102   0.096   3.540   8.590 -0.8675  1.6676  0.5292
   42CHL1  H26B 3103  -0.052   3.465   8.670 -0.4186 -1.4084 -0.2898
   42CHL1  H26C 3104   0.069   3.356   8.602 -0.6748  0.0854  1.4432
   42CHL1   C27 3105  -0.182   3.536   8.455  0.5575  0.5249  0.3285
   42CHL1  H27A 3106  -0.238   3.529   8.359  1.4633  0.6109 -0.2116
   42CHL1  H27B 3107  -0.159   3.642   8.478  0.1757  0.9722 -1.2143
   42CHL1  H27C 3108  -0.244   3.491   8.536 -1.4020 -0.8767 -1.8058
   43CHL1    C3 3109   3.033   6.433   7.172  0.1888 -0.5364 -0.3884
   43CHL1    H3 3110   3.065   6.333   7.208 -0.3797 -0.9493 -1.0073
   43CHL1    O3 3111   3.066   6.458   7.041  0.0092  0.3415 -0.4789
   43CHL1   H3' 3112   3.026   6.382   6.999  1.3402 -1.7858  1.8105
   43CHL1    C4 3113   2.881   6.458   7.188 -0.3031  0.4207 -0.2064
   43CHL1   H4A 3114   2.856   6.561   7.155 -1.4804  0.5128  0.9083
   43CHL1   H4B 3115   2.828   6.392   7.117 -0.5797 -0.2887  0.6419
   43CHL1    C5 3116   2.829   6.435   7.327  0.3933  0.2252  0.0005
   43CHL1    C6 3117   2.746   6.334   7.349 -0.2122  0.6548 -0.2637
   43CHL1    H6 3118   2.697   6.273   7.272  0.2609  1.8555 -1.5553
   43CHL1    C7 3119   2.700   6.304   7.490 -1.2065  0.0315  0.0206
   43CHL1   H7A 3120   2.589   6.308   7.489 -1.3180 -0.1607  2.6364
   43CHL1   H7B 3121   2.743   6.214   7.539  1.5559  1.3353  0.2236
   43CHL1    C8 3122   2.738   6.412   7.593  0.3808 -0.4538 -0.0978
   43CHL1    H8 3123   2.675   6.500   7.569  2.0797  0.7498 -0.3670
   43CHL1   C14 3124   2.725   6.357   7.731 -0.0599 -0.1850 -0.1715
   43CHL1   H14 3125   2.816   6.292   7.734  1.3367  1.7034  2.2454
   43CHL1   C15 3126   2.607   6.270   7.765 -0.4374  0.2633 -0.2383
   43CHL1  H15A 3127   2.511   6.305   7.722 -1.6933 -0.5071  1.8443
   43CHL1  H15B 3128   2.619   6.165   7.731  0.2938  0.6239 -1.1677
   43CHL1   C16 3129   2.609   6.278   7.920  0.7403 -0.0895  0.6619
   43CHL1  H16A 3130   2.516   6.329   7.952  1.1430  0.7720  0.5111
   43CHL1  H16B 3131   2.626   6.177   7.962 -2.1158 -1.6282 -1.5697
   43CHL1   C17 3132   2.722   6.377   7.960  0.1105 -0.6940  0.0044
   43CHL1   H17 3133   2.806   6.304   7.973  1.3053  0.3030 -1.6935
   43CHL1   C13 3134   2.752   6.461   7.840  0.1718  0.6888  0.2577
   43CHL1   C18 3135   2.649   6.575   7.826 -0.3922 -0.0613 -0.7099
   43CHL1  H18A 3136   2.641   6.634   7.920 -0.2342 -0.5497 -0.3880
   43CHL1  H18B 3137   2.692   6.641   7.747  2.3177  1.4563  1.8273
   43CHL1  H18C 3138   2.553   6.530   7.794  1.2335 -2.1105 -3.1647
   43CHL1   C12 3139   2.900   6.506   7.826  0.2785  0.0404 -0.0110
   43CHL1  H12A 3140   2.930   6.592   7.891  0.3387  1.0498 -1.3300
   43CHL1  H12B 3141   2.971   6.425   7.853 -0.3390 -0.8311 -0.9410
   43CHL1   C11 3142   2.928   6.556   7.681  0.1904  0.1553 -0.4468
   43CHL1  H11A 3143   2.894   6.662   7.681 -0.0700  0.3481  4.9554
   43CHL1  H11B 3144   3.038   6.564   7.667  0.0870  2.4845 -0.3836
   43CHL1    C9 3145   2.878   6.461   7.572  0.2759 -0.6207  0.3017
   43CHL1    H9 3146   2.946   6.373   7.573  0.3763 -0.5596  2.1605
   43CHL1   C10 3147   2.901   6.521   7.429  0.7672  0.1478  0.0865
   43CHL1   C19 3148   2.852   6.670   7.419  0.4663 -0.6875  0.4021
   43CHL1  H19A 3149   2.870   6.710   7.316  0.7836  0.0305  0.7306
   43CHL1  H19B 3150   2.745   6.671   7.448  0.2376  0.5499 -0.4112
   43CHL1  H19C 3151   2.919   6.738   7.476  1.0975  0.6401 -1.8001
   43CHL1    C1 3152   3.056   6.519   7.404  0.1460 -0.9480  0.7066
   43CHL1   H1A 3153   3.102   6.594   7.472  0.8274 -0.2559 -0.4838
   43CHL1   H1B 3154   3.096   6.422   7.440  1.5049 -0.0324  1.8168
   43CHL1    C2 3155   3.105   6.537   7.260  0.1028  0.4888  0.2144
   43CHL1   H2A 3156   3.214   6.540   7.240  0.0338  0.1466 -0.2242
   43CHL1   H2B 3157   3.067   6.636   7.228  1.9174  0.3750 -2.6322
   43CHL1   C20 3158   2.701   6.436   8.096  0.6164 -0.5094 -0.1628
   43CHL1   H20 3159   2.607   6.491   8.076  1.1843  0.5753  0.0274
   43CHL1   C21 3160   2.808   6.546   8.128 -0.4085  0.6789  0.3271
   43CHL1  H21A 3161   2.798   6.642   8.072  0.2956  0.4221 -0.2649
   43CHL1  H21B 3162   2.907   6.506   8.095 -0.4542  2.1047 -1.7549
   43CHL1  H21C 3163   2.826   6.552   8.237  1.5069 -0.8871  0.1530
   43CHL1   C22 3164   2.680   6.339   8.213  0.4885  0.3926 -0.4466
   43CHL1  H22A 3165   2.619   6.249   8.190  0.5665  0.1054  0.4280
   43CHL1  H22B 3166   2.782   6.302   8.238 -0.0434  0.0381  1.4315
   43CHL1   C23 3167   2.616   6.400   8.338 -0.4476 -0.1856  0.6700
   43CHL1  H23A 3168   2.671   6.494   8.359 -1.2671  0.2041  1.1188
   43CHL1  H23B 3169   2.506   6.415   8.334 -0.4654 -0.3319  0.6028
   43CHL1   C24 3170   2.649   6.314   8.463  0.2009  0.1703 -0.1536
   43CHL1  H24A 3171   2.673   6.215   8.418  3.5005  1.5050 -1.6468
   43CHL1  H24B 3172   2.740   6.350   8.516 -0.5515  0.3895  1.0391
   43CHL1   C25 3173   2.531   6.307   8.572  0.0324 -0.0060 -0.7980
   43CHL1   H25 3174   2.434   6.284   8.523 -0.3266  0.1594 -0.1743
   43CHL1   C26 3175   2.545   6.185   8.659 -0.7450 -0.3338  0.2606
   43CHL1  H26A 3176   2.442   6.147   8.677 -0.8632 -1.0562 -1.6955
   43CHL1  H26B 3177   2.614   6.113   8.610  1.1744  1.5260  0.1033
   43CHL1  H26C 3178   2.593   6.228   8.749  1.2070  2.0123 -1.7675
   43CHL1   C27 3179   2.509   6.428   8.661 -0.7172 -0.7752 -0.9214
   43CHL1  H27A 3180   2.419   6.412   8.725 -2.3676 -1.7240 -3.3469
   43CHL1  H27B 3181   2.601   6.460   8.715 -0.2162 -0.4213 -1.9548
   43CHL1  H27C 3182   2.511   6.519   8.598  0.5816 -0.3285 -0.2815
   44CHL1    C3 3183   0.878   5.784   6.613  0.3424  0.4407  0.2695
   44CHL1    H3 3184   0.983   5.818   6.624  0.8906 -0.6673 -1.2534
   44CHL1    O3 3185   0.826   5.778   6.482 -0.1710 -0.3024  0.4017
   44CHL1   H3' 3186   0.748   5.722   6.484 -1.1474  1.0009 -0.2370
   44CHL1    C4 3187   0.881   5.639   6.678  0.3617 -0.1502  0.0234
   44CHL1   H4A 3188   0.784   5.587   6.660  0.7133 -0.7272 -0.2644
   44CHL1   H4B 3189   0.961   5.587   6.619  0.7933 -0.0678  0.5319
   44CHL1    C5 3190   0.908   5.642   6.823 -0.3170  0.6357 -0.1406
   44CHL1    C6 3191   1.013   5.576   6.871 -0.8479  0.6019 -0.0339
   44CHL1    H6 3192   1.078   5.510   6.812 -1.2999  0.3349 -0.2392
   44CHL1    C7 3193   1.031   5.561   7.019 -0.5566  0.1378 -0.1535
   44CHL1   H7A 3194   1.034   5.453   7.045 -0.2646 -0.6638 -3.1344
   44CHL1   H7B 3195   1.127   5.608   7.052 -0.7056  0.0250  0.4549
   44CHL1    C8 3196   0.917   5.614   7.111  0.1881  0.1686  0.2975
   44CHL1    H8 3197   0.845   5.529   7.116  0.8723 -0.3266  2.9346
   44CHL1   C14 3198   0.971   5.633   7.247 -0.2175  0.0169 -0.8562
   44CHL1   H14 3199   1.043   5.716   7.232  2.2668 -1.8024  0.1866
   44CHL1   C15 3200   1.053   5.519   7.313  1.0037  0.3227 -0.0465
   44CHL1  H15A 3201   0.991   5.427   7.305 -2.9636  2.8506 -1.4939
   44CHL1  H15B 3202   1.155   5.507   7.270  1.4704  0.5722  0.9821
   44CHL1   C16 3203   1.036   5.548   7.457 -0.3484 -0.5324 -0.7318
   44CHL1  H16A 3204   1.000   5.463   7.519 -0.4651  0.0281 -0.0315
   44CHL1  H16B 3205   1.133   5.569   7.507 -1.2535 -0.3844  1.0382
   44CHL1   C17 3206   0.944   5.674   7.475  0.4452  0.2805 -1.3020
   44CHL1   H17 3207   0.999   5.771   7.465  1.0254  0.1105  0.0402
   44CHL1   C13 3208   0.859   5.676   7.346 -0.2060  0.6076  0.1617
   44CHL1   C18 3209   0.751   5.567   7.349 -0.0099 -0.0648  0.3556
   44CHL1  H18A 3210   0.782   5.460   7.351 -0.0818 -0.0741  1.7623
   44CHL1  H18B 3211   0.688   5.575   7.440 -0.5125 -1.7128  0.1832
   44CHL1  H18C 3212   0.677   5.585   7.268 -1.6902  2.8987  2.3898
   44CHL1   C12 3213   0.806   5.813   7.299 -0.0935  0.2199 -0.0632
   44CHL1  H12A 3214   0.725   5.853   7.363  0.8594  1.1479  0.5919
   44CHL1  H12B 3215   0.896   5.879   7.299  0.2157 -0.0754 -2.8695
   44CHL1   C11 3216   0.752   5.807   7.153  0.1430 -0.0062 -0.4820
   44CHL1  H11A 3217   0.657   5.749   7.155 -0.2081  0.5805  0.5505
   44CHL1  H11B 3218   0.747   5.910   7.112  1.8691  0.4693  0.4489
   44CHL1    C9 3219   0.854   5.740   7.056  0.4950 -0.3409  0.1466
   44CHL1    H9 3220   0.940   5.810   7.060  0.3198 -0.1497  3.2377
   44CHL1   C10 3221   0.805   5.723   6.907  0.2059 -0.3340 -0.4190
   44CHL1   C19 3222   0.674   5.650   6.904  0.2884  0.4246  0.7374
   44CHL1  H19A 3223   0.635   5.656   6.800 -0.3406  0.3472  0.9663
   44CHL1  H19B 3224   0.685   5.542   6.930 -2.4520  0.1173  0.8912
   44CHL1  H19C 3225   0.595   5.690   6.971 -2.1867 -0.9212 -1.1904
   44CHL1    C1 3226   0.798   5.871   6.844  0.1543 -0.2039 -0.0358
   44CHL1   H1A 3227   0.719   5.916   6.907  1.1850  1.9767 -0.2068
   44CHL1   H1B 3228   0.896   5.918   6.867 -1.2870  1.7681  2.6239
   44CHL1    C2 3229   0.778   5.876   6.691  0.4738  0.1944  0.9553
   44CHL1   H2A 3230   0.801   5.981   6.665  0.2169 -0.1814 -1.0002
   44CHL1   H2B 3231   0.669   5.864   6.672  0.7333 -1.1236  0.0863
   44CHL1   C20 3232   0.890   5.684   7.610  0.5902  0.1002  0.4224
   44CHL1   H20 3233   0.838   5.589   7.636 -0.0587 -0.0160 -1.1857
   44CHL1   C21 3234   0.794   5.797   7.622 -0.3634  0.5784  0.2619
   44CHL1  H21A 3235   0.703   5.782   7.561  0.0935 -1.7666  0.0850
   44CHL1  H21B 3236   0.849   5.887   7.585 -0.6691  0.6717  0.0329
   44CHL1  H21C 3237   0.771   5.811   7.730  0.5369  0.6446  0.4597
   44CHL1   C22 3238   1.001   5.706   7.716  0.7497  0.2750 -0.2879
   44CHL1  H22A 3239   1.060   5.612   7.710 -1.3540 -1.2060  0.7325
   44CHL1  H22B 3240   1.048   5.805   7.695 -1.0319  1.1256 -0.4542
   44CHL1   C23 3241   0.949   5.723   7.874 -1.0700 -0.5889  1.2359
   44CHL1  H23A 3242   0.954   5.833   7.893 -1.5180  0.6147 -3.8856
   44CHL1  H23B 3243   0.844   5.690   7.890 -1.2271  0.3996  2.4268
   44CHL1   C24 3244   1.034   5.641   7.970  0.1434  0.1768  0.2240
   44CHL1  H24A 3245   1.041   5.543   7.918 -0.2384  0.1134  0.2885
   44CHL1  H24B 3246   1.139   5.676   7.983  0.1408  0.7834 -1.1951
   44CHL1   C25 3247   0.983   5.622   8.109 -0.2727  0.5127 -0.6048
   44CHL1   H25 3248   0.879   5.584   8.111  0.2854 -1.0826 -0.7134
   44CHL1   C26 3249   1.068   5.516   8.173 -0.9001  0.0449  0.6910
   44CHL1  H26A 3250   1.057   5.420   8.120 -1.1579  0.0232  0.7810
   44CHL1  H26B 3251   1.173   5.550   8.159  0.4773 -2.8601  3.0194
   44CHL1  H26C 3252   1.039   5.494   8.278  0.2704 -0.0373  1.0182
   44CHL1   C27 3253   0.991   5.756   8.181  0.7948 -0.0741  1.0758
   44CHL1  H27A 3254   0.956   5.739   8.285 -2.0525 -0.7106  0.1133
   44CHL1  H27B 3255   1.095   5.794   8.179  0.7414  0.0802 -1.0299
   44CHL1  H27C 3256   0.917   5.820   8.129  0.2132 -1.3470  0.2850
   45CHL1    C3 3257   2.484   2.840   6.800  0.3930 -0.2611  0.2353
   45CHL1    H3 3258   2.554   2.777   6.858 -2.2771 -0.8171  3.0857
   45CHL1    O3 3259   2.490   2.816   6.661  0.0222  0.2654  0.7312
   45CHL1   H3' 3260   2.432   2.741   6.648  1.0523 -0.3258 -0.7883
   45CHL1    C4 3261   2.343   2.807   6.865  0.0155  0.0083 -0.2804
   45CHL1   H4A 3262   2.270   2.853   6.795  0.7806  1.5406 -0.1156
   45CHL1   H4B 3263   2.332   2.696   6.861 -2.8701  0.2443 -0.5739
   45CHL1    C5 3264   2.324   2.858   7.007  0.4831  0.3545 -0.2993
   45CHL1    C6 3265   2.266   2.776   7.102 -0.2179  0.0140  0.2611
   45CHL1    H6 3266   2.244   2.673   7.073 -2.4292 -0.2311  2.5091
   45CHL1    C7 3267   2.239   2.821   7.244 -0.2682  0.0929  0.6006
   45CHL1   H7A 3268   2.135   2.792   7.272 -1.4958  1.3915 -2.2272
   45CHL1   H7B 3269   2.316   2.774   7.307  1.0972 -0.0301 -1.0997
   45CHL1    C8 3270   2.256   2.980   7.266 -0.1910  0.4139  0.9392
   45CHL1    H8 3271   2.169   3.032   7.221 -0.9072 -0.7285  0.9672
   45CHL1   C14 3272   2.272   3.009   7.412 -0.1870 -0.2306 -0.3389
   45CHL1   H14 3273   2.363   2.949   7.436 -0.7529 -1.4355 -1.0924
   45CHL1   C15 3274   2.174   2.940   7.507  0.8367  0.6565  0.5577
   45CHL1  H15A 3275   2.067   2.951   7.478  0.8964 -1.2499 -0.5254
   45CHL1  H15B 3276   2.201   2.833   7.518  1.4049  0.4873 -1.9528
   45CHL1   C16 3277   2.199   3.014   7.644 -0.9007 -0.3299 -0.0076
   45CHL1  H16A 3278   2.099   3.047   7.678 -0.5354  1.9332 -1.0049
   45CHL1  H16B 3279   2.255   2.939   7.705  2.0096  2.0000  0.3860
   45CHL1   C17 3280   2.297   3.132   7.613 -0.1144 -0.2383 -0.9936
   45CHL1   H17 3281   2.400   3.103   7.640  0.1586  1.5560 -0.0008
   45CHL1   C13 3282   2.290   3.157   7.465 -0.1972  0.5123 -0.1214
   45CHL1   C18 3283   2.173   3.249   7.417 -1.0327  0.8525  0.1224
   45CHL1  H18A 3284   2.143   3.232   7.311 -2.1339 -0.2870  0.5820
   45CHL1  H18B 3285   2.079   3.232   7.474 -1.6202  0.2317 -0.9825
   45CHL1  H18C 3286   2.200   3.356   7.430  0.6863  1.3187 -4.8495
   45CHL1   C12 3287   2.414   3.206   7.374  0.2272 -0.5628 -0.2744
   45CHL1  H12A 3288   2.418   3.316   7.382  1.6573 -0.5463 -0.9519
   45CHL1  H12B 3289   2.508   3.165   7.417  0.0218  1.2139  2.0780
   45CHL1   C11 3290   2.395   3.181   7.223 -0.2232 -0.0730  0.2648
   45CHL1  H11A 3291   2.306   3.236   7.186  0.3078  0.8312  0.2976
   45CHL1  H11B 3292   2.475   3.232   7.165 -0.4702  1.0270  0.8683
   45CHL1    C9 3293   2.376   3.034   7.192  0.5862  0.9289  1.1785
   45CHL1    H9 3294   2.464   2.983   7.235  1.4289  0.5561 -0.8369
   45CHL1   C10 3295   2.376   3.003   7.040  1.2057 -0.0102  0.7091
   45CHL1   C19 3296   2.271   3.100   6.968  0.4584 -0.0214 -0.4343
   45CHL1  H19A 3297   2.249   3.076   6.862 -1.5534 -1.4308  0.2295
   45CHL1  H19B 3298   2.175   3.089   7.023  0.8902  0.6024  0.4513
   45CHL1  H19C 3299   2.307   3.204   6.980  0.8345 -0.1644 -0.3084
   45CHL1    C1 3300   2.517   3.019   6.968  0.5126  0.3806 -0.2633
   45CHL1   H1A 3301   2.536   3.127   6.987  1.2373  0.0576  0.9832
   45CHL1   H1B 3302   2.594   2.959   7.022 -0.8808 -0.1902  1.1475
   45CHL1    C2 3303   2.519   2.989   6.818  0.6408  0.2557 -0.2442
   45CHL1   H2A 3304   2.619   3.021   6.783  0.2736  1.7822  0.0303
   45CHL1   H2B 3305   2.445   3.054   6.766 -0.9326 -0.6298  0.7922
   45CHL1   C20 3306   2.271   3.267   7.694  0.1072 -0.3416 -0.6327
   45CHL1   H20 3307   2.179   3.315   7.656 -0.0197 -1.5113 -1.8801
   45CHL1   C21 3308   2.384   3.373   7.676 -0.9957 -0.4455 -0.4383
   45CHL1  H21A 3309   2.339   3.469   7.710 -0.2418  0.6041 -2.2679
   45CHL1  H21B 3310   2.396   3.393   7.567 -2.7502  2.4512 -0.2287
   45CHL1  H21C 3311   2.478   3.353   7.730  0.3180  1.1879 -2.0103
   45CHL1   C22 3312   2.245   3.246   7.844 -0.4642  0.3923 -0.6670
   45CHL1  H22A 3313   2.208   3.341   7.889 -0.1300  0.6191 -0.8620
   45CHL1  H22B 3314   2.159   3.177   7.851  0.0341 -0.2526 -0.7523
   45CHL1   C23 3315   2.360   3.176   7.911 -0.1919  0.7964  0.0703
   45CHL1  H23A 3316   2.377   3.075   7.868  1.2658  1.0926 -0.1058
   45CHL1  H23B 3317   2.457   3.226   7.890  0.2835  0.1325  0.6271
   45CHL1   C24 3318   2.338   3.158   8.062  0.2738  0.0354  0.8461
   45CHL1  H24A 3319   2.303   3.255   8.104 -1.7983 -0.2354 -0.1142
   45CHL1  H24B 3320   2.266   3.074   8.076 -0.5314  0.3921 -0.8950
   45CHL1   C25 3321   2.461   3.113   8.136  0.4980  0.0447 -0.3023
   45CHL1   H25 3322   2.519   3.042   8.073  2.1389  0.9826  0.0993
   45CHL1   C26 3323   2.552   3.229   8.168 -0.2965  0.2966 -0.6456
   45CHL1  H26A 3324   2.639   3.196   8.229 -0.4205  0.3525 -0.4377
   45CHL1  H26B 3325   2.603   3.265   8.077  0.2153 -1.3989 -1.0641
   45CHL1  H26C 3326   2.493   3.309   8.217  0.5237  0.1589  0.6336
   45CHL1   C27 3327   2.416   3.059   8.271 -0.3017 -0.2461 -0.3054
   45CHL1  H27A 3328   2.360   3.137   8.326 -3.2339 -1.6954 -0.9917
   45CHL1  H27B 3329   2.350   2.971   8.251  0.7220 -0.9430 -0.6746
   45CHL1  H27C 3330   2.496   3.020   8.337 -0.6566 -0.3396  0.0780
   46CHL1    C3 3331   0.877   4.006   6.936 -0.0695 -0.5762 -0.1823
   46CHL1    H3 3332   0.881   4.115   6.961  2.9037 -0.7405  0.3376
   46CHL1    O3 3333   0.866   3.983   6.800 -0.2348 -0.3989  0.4970
   46CHL1   H3' 3334   0.773   3.971   6.780 -0.5540  1.4818  0.6916
   46CHL1    C4 3335   1.012   3.948   6.991  0.1819  0.7004  0.5016
   46CHL1   H4A 3336   1.012   3.840   6.964 -3.7287  0.4136  1.0996
   46CHL1   H4B 3337   1.094   4.000   6.937 -0.1959  0.0815 -0.6922
   46CHL1    C5 3338   1.025   3.951   7.142  0.6061 -0.0298 -0.8514
   46CHL1    C6 3339   1.127   4.017   7.199  0.4836  0.0224 -0.2394
   46CHL1    H6 3340   1.207   4.063   7.140  1.4426 -0.9519  0.2673
   46CHL1    C7 3341   1.148   4.015   7.345 -1.2260 -0.1592  0.3176
   46CHL1   H7A 3342   1.250   3.971   7.352 -1.7353 -1.1091  2.8258
   46CHL1   H7B 3343   1.160   4.120   7.380  1.4621  0.0611 -0.9464
   46CHL1    C8 3344   1.061   3.935   7.435  0.8622  0.2527 -0.1770
   46CHL1    H8 3345   1.104   3.832   7.441  0.8425  0.2863  0.7670
   46CHL1   C14 3346   1.042   3.987   7.576 -0.6252 -0.6567  0.3354
   46CHL1   H14 3347   0.998   4.088   7.565  1.3070  0.0501 -1.6638
   46CHL1   C15 3348   1.174   4.029   7.643 -0.1950  0.4096  0.5250
   46CHL1  H15A 3349   1.252   3.950   7.635 -1.5044 -0.8420 -0.5656
   46CHL1  H15B 3350   1.217   4.127   7.611  1.6998 -0.1784  1.1305
   46CHL1   C16 3351   1.133   4.024   7.793 -0.1771  0.6828 -0.1824
   46CHL1  H16A 3352   1.192   3.945   7.844  4.1649  1.6316 -3.1308
   46CHL1  H16B 3353   1.145   4.121   7.847  0.0618 -0.0238  1.0762
   46CHL1   C17 3354   0.985   3.980   7.800 -0.6450  0.0518  0.7953
   46CHL1   H17 3355   0.941   4.082   7.797  0.8096  0.6873  0.0613
   46CHL1   C13 3356   0.959   3.897   7.668  0.4252 -0.9175  0.2255
   46CHL1   C18 3357   1.022   3.751   7.680 -0.2792  0.4552  0.3638
   46CHL1  H18A 3358   1.030   3.693   7.586 -2.0027 -0.0954  0.5252
   46CHL1  H18B 3359   1.124   3.773   7.719  0.2582  0.5505 -1.0620
   46CHL1  H18C 3360   0.970   3.681   7.749 -2.2615 -0.2902 -1.7824
   46CHL1   C12 3361   0.812   3.886   7.617 -0.2910  0.2101 -0.4551
   46CHL1  H12A 3362   0.751   3.812   7.672 -0.0005  1.1241  1.1724
   46CHL1  H12B 3363   0.768   3.988   7.617  2.2057  1.4201 -2.3600
   46CHL1   C11 3364   0.832   3.844   7.468  0.4577  1.4232  0.2649
   46CHL1  H11A 3365   0.867   3.739   7.459  1.8163  1.7288  1.6245
   46CHL1  H11B 3366   0.728   3.849   7.429  0.8097  0.2305 -0.8933
   46CHL1    C9 3367   0.918   3.931   7.380 -0.4745  0.1867 -0.6779
   46CHL1    H9 3368   0.883   4.037   7.387  1.0083  0.6132  3.8351
   46CHL1   C10 3369   0.910   3.891   7.223  0.4885 -0.1819 -0.8782
   46CHL1   C19 3370   0.913   3.739   7.204  0.2417 -0.5681  0.1547
   46CHL1  H19A 3371   0.900   3.724   7.095  0.5277  4.4827 -0.8047
   46CHL1  H19B 3372   1.013   3.703   7.237  0.4104 -1.0226 -0.8160
   46CHL1  H19C 3373   0.825   3.691   7.254 -0.0560 -1.0079 -0.7722
   46CHL1    C1 3374   0.775   3.941   7.168  0.1500 -0.3999  0.7269
   46CHL1   H1A 3375   0.688   3.889   7.214 -0.6048  0.1190 -0.0875
   46CHL1   H1B 3376   0.757   4.045   7.203  0.2111  0.0476 -0.5227
   46CHL1    C2 3377   0.756   3.942   7.013  0.0232 -0.2024 -0.4419
   46CHL1   H2A 3378   0.662   3.999   6.995 -0.1611 -0.8085 -1.4691
   46CHL1   H2B 3379   0.747   3.837   6.977 -0.6895 -0.6020  0.8111
   46CHL1   C20 3380   0.943   3.915   7.933  0.0909  0.5357  0.4193
   46CHL1   H20 3381   0.987   3.814   7.937 -0.6094  0.2038 -0.0259
   46CHL1   C21 3382   0.788   3.893   7.939 -0.6260 -0.2006 -0.3170
   46CHL1  H21A 3383   0.744   3.823   7.865 -0.5371 -1.0936  0.4662
   46CHL1  H21B 3384   0.725   3.984   7.937  1.2684  1.2364  1.2057
   46CHL1  H21C 3385   0.768   3.849   8.039  1.1043  0.2077  0.2477
   46CHL1   C22 3386   0.986   3.993   8.054 -0.3544 -1.1469 -0.3037
   46CHL1  H22A 3387   1.080   4.047   8.031 -0.4545 -1.2420 -0.9538
   46CHL1  H22B 3388   0.915   4.078   8.064 -1.2863 -1.8046 -1.1929
   46CHL1   C23 3389   1.003   3.914   8.185 -0.5294  0.7695 -0.9092
   46CHL1  H23A 3390   1.063   3.980   8.251  0.1642 -0.2800 -0.4752
   46CHL1  H23B 3391   0.903   3.891   8.228 -0.6777  0.7247 -1.2742
   46CHL1   C24 3392   1.070   3.778   8.167 -1.4798  0.3710  0.2721
   46CHL1  H24A 3393   1.000   3.704   8.123  0.2150 -2.0809  1.4596
   46CHL1  H24B 3394   1.159   3.801   8.104 -0.0446 -0.7594  1.8205
   46CHL1   C25 3395   1.131   3.710   8.297 -1.1249 -0.0991  0.9305
   46CHL1   H25 3396   1.050   3.708   8.374 -1.5213  1.4703  0.5713
   46CHL1   C26 3397   1.160   3.561   8.283 -0.0673  0.0052  0.4243
   46CHL1  H26A 3398   1.225   3.549   8.193 -0.3702  1.4812 -0.0131
   46CHL1  H26B 3399   1.210   3.516   8.371  0.0631 -1.4125 -0.3351
   46CHL1  H26C 3400   1.069   3.503   8.256  0.4360  0.0905 -1.6267
   46CHL1   C27 3401   1.259   3.785   8.353  1.3501  0.6677  0.1404
   46CHL1  H27A 3402   1.284   3.737   8.450 -2.7391  0.4060  1.2722
   46CHL1  H27B 3403   1.341   3.776   8.279  0.3359  0.4220 -0.9916
   46CHL1  H27C 3404   1.247   3.893   8.377 -0.2278  0.6296 -0.3893
   47CHL1    C3 3405   1.507   5.068   6.863  0.3956  0.2829 -0.3797
   47CHL1    H3 3406   1.614   5.100   6.857  0.0505  1.2639 -2.9956
   47CHL1    O3 3407   1.481   5.019   6.730  0.0959 -0.0986  0.3156
   47CHL1   H3' 3408   1.429   5.087   6.687  2.1629  0.8140 -0.9378
   47CHL1    C4 3409   1.488   4.942   6.956  0.7205  0.3362 -0.3552
   47CHL1   H4A 3410   1.386   4.910   6.925  0.4732  0.0516  0.6817
   47CHL1   H4B 3411   1.558   4.862   6.922 -0.3220 -0.6410 -0.2641
   47CHL1    C5 3412   1.487   4.981   7.106 -0.1366  0.2175 -0.3178
   47CHL1    C6 3413   1.573   4.915   7.190 -0.1362 -0.3974  0.0382
   47CHL1    H6 3414   1.627   4.832   7.141 -1.2587  0.9728 -3.7884
   47CHL1    C7 3415   1.575   4.930   7.344 -0.0054  0.3615  0.6862
   47CHL1   H7A 3416   1.578   4.831   7.394 -1.6128  0.0431  0.2287
   47CHL1   H7B 3417   1.660   4.988   7.385 -0.5140  1.1772  0.6065
   47CHL1    C8 3418   1.457   5.011   7.392 -0.1517  0.0632  0.4326
   47CHL1    H8 3419   1.374   4.938   7.380  0.2383  0.1618 -5.3122
   47CHL1   C14 3420   1.471   5.051   7.536 -0.1665  0.1612  0.3870
   47CHL1   H14 3421   1.551   5.129   7.534 -2.6969  2.9848 -2.6294
   47CHL1   C15 3422   1.515   4.940   7.635 -0.5962  0.7734 -0.2167
   47CHL1  H15A 3423   1.450   4.851   7.617  2.0255 -1.6795  1.4985
   47CHL1  H15B 3424   1.621   4.916   7.614 -0.1783  2.5634 -0.2708
   47CHL1   C16 3425   1.485   5.006   7.772 -0.2038  0.3436 -0.3484
   47CHL1  H16A 3426   1.419   4.940   7.833  1.2615  0.1254  1.0607
   47CHL1  H16B 3427   1.576   5.030   7.830 -0.6475  2.8439 -0.5739
   47CHL1   C17 3428   1.403   5.134   7.745 -0.0285 -0.0505 -0.1946
   47CHL1   H17 3429   1.481   5.213   7.735 -0.7388  0.5485 -1.1066
   47CHL1   C13 3430   1.350   5.118   7.602 -0.2419 -0.1417  0.8691
   47CHL1   C18 3431   1.231   5.017   7.614  0.0226 -1.3803  0.2422
   47CHL1  H18A 3432   1.145   5.077   7.651 -0.5143 -0.5821 -2.1240
   47CHL1  H18B 3433   1.206   4.977   7.514  2.8558 -1.6687 -0.4227
   47CHL1  H18C 3434   1.238   4.935   7.689  2.6547  1.5327  3.5678
   47CHL1   C12 3435   1.328   5.249   7.518  0.4054 -0.4027  0.3616
   47CHL1  H12A 3436   1.243   5.298   7.571  1.7836 -0.3833  2.6845
   47CHL1  H12B 3437   1.418   5.314   7.529  2.1154 -2.5641 -0.2250
   47CHL1   C11 3438   1.309   5.221   7.367 -0.2792  0.7247  0.2947
   47CHL1  H11A 3439   1.210   5.172   7.375  0.4617 -0.7835  0.8710
   47CHL1  H11B 3440   1.313   5.316   7.309 -2.3772  0.0628 -1.0320
   47CHL1    C9 3441   1.415   5.133   7.296  0.5394  0.1582 -0.0862
   47CHL1    H9 3442   1.505   5.198   7.297  0.2212  0.6275 -1.2363
   47CHL1   C10 3443   1.388   5.092   7.144 -0.1170 -0.8342  0.2917
   47CHL1   C19 3444   1.245   5.023   7.147 -0.7937 -0.0439  0.1379
   47CHL1  H19A 3445   1.237   4.939   7.220  0.3313 -0.6993 -0.4600
   47CHL1  H19B 3446   1.168   5.098   7.174 -1.1756  1.1182 -3.7050
   47CHL1  H19C 3447   1.223   4.987   7.045 -2.6815 -0.9232  0.8050
   47CHL1    C1 3448   1.390   5.218   7.047 -0.9431 -0.9776 -0.0543
   47CHL1   H1A 3449   1.300   5.280   7.066 -1.0346 -1.0680 -0.1915
   47CHL1   H1B 3450   1.484   5.273   7.069 -1.7837  2.1814 -3.4526
   47CHL1    C2 3451   1.399   5.171   6.898 -0.1937 -0.0097 -0.7069
   47CHL1   H2A 3452   1.414   5.263   6.837  0.5828  0.4659  0.1729
   47CHL1   H2B 3453   1.296   5.133   6.887 -0.3553  0.4513 -0.7937
   47CHL1   C20 3454   1.308   5.172   7.866  0.3038 -0.6322  0.0858
   47CHL1   H20 3455   1.212   5.120   7.846 -0.2907  0.4572  0.0283
   47CHL1   C21 3456   1.267   5.326   7.865  0.0055 -0.0431  0.9927
   47CHL1  H21A 3457   1.252   5.358   7.760 -0.8528  0.3241  1.2215
   47CHL1  H21B 3458   1.342   5.389   7.918  0.0776  1.6940 -1.0418
   47CHL1  H21C 3459   1.175   5.344   7.924  0.9818  2.0401  1.9862
   47CHL1   C22 3460   1.352   5.135   8.006  0.2897 -0.3222 -1.1413
   47CHL1  H22A 3461   1.394   5.034   8.020  2.6928  0.8802  1.3247
   47CHL1  H22B 3462   1.434   5.205   8.033 -1.4412  1.1598  0.6486
   47CHL1   C23 3463   1.240   5.152   8.121 -0.2836 -0.4308  0.3892
   47CHL1  H23A 3464   1.221   5.259   8.142 -0.8732 -0.7802  1.7696
   47CHL1  H23B 3465   1.149   5.113   8.070  1.3566  0.1346 -3.3125
   47CHL1   C24 3466   1.279   5.092   8.259  0.7299  0.5279 -0.3287
   47CHL1  H24A 3467   1.280   4.983   8.234  0.1317 -0.1892  2.4519
   47CHL1  H24B 3468   1.369   5.134   8.309  0.2139 -1.7578  2.8138
   47CHL1   C25 3469   1.170   5.109   8.364 -0.0065 -0.6089 -0.2409
   47CHL1   H25 3470   1.176   5.214   8.401 -1.2791 -0.4509 -0.4135
   47CHL1   C26 3471   1.025   5.095   8.306 -0.7310  0.2198 -0.2161
   47CHL1  H26A 3472   1.031   5.000   8.249  1.5355 -0.1373  0.5117
   47CHL1  H26B 3473   0.949   5.092   8.387 -0.9786 -0.2149 -0.4642
   47CHL1  H26C 3474   0.999   5.178   8.238  1.2598 -0.2337 -1.6396
   47CHL1   C27 3475   1.191   5.022   8.491  0.2774  0.4148 -0.3467
   47CHL1  H27A 3476   1.286   5.056   8.537 -0.3546 -0.1146  1.4160
   47CHL1  H27B 3477   1.112   5.041   8.567  1.7769 -0.8249  1.6013
   47CHL1  H27C 3478   1.188   4.913   8.473 -3.2413  0.0894  1.2673
   48CHL1    C3 3479   0.868   1.078   6.523 -0.3849 -0.2922  0.1794
   48CHL1    H3 3480   0.892   1.186   6.534  0.6741 -0.8059  5.0189
   48CHL1    O3 3481   0.879   1.045   6.380 -0.0533 -0.0915 -0.3385
   48CHL1   H3' 3482   0.842   0.957   6.370 -0.0754 -0.0115 -0.9482
   48CHL1    C4 3483   0.962   0.993   6.609 -0.2900 -0.8012 -0.5793
   48CHL1   H4A 3484   0.945   0.884   6.599  3.0779 -1.7285  2.0436
   48CHL1   H4B 3485   1.067   0.993   6.573 -0.0893 -1.2268 -0.0135
   48CHL1    C5 3486   0.950   1.017   6.757  0.1752  0.3887  0.0188
   48CHL1    C6 3487   1.056   1.056   6.829 -0.2319 -0.1874  0.9849
   48CHL1    H6 3488   1.143   1.072   6.764 -2.1689  0.8795 -1.5480
   48CHL1    C7 3489   1.062   1.082   6.981 -0.0767  1.0816 -0.1577
   48CHL1   H7A 3490   1.152   1.036   7.026 -0.6518  0.8478  0.7980
   48CHL1   H7B 3491   1.078   1.190   7.005 -0.2948  1.1844 -0.4675
   48CHL1    C8 3492   0.938   1.009   7.048  0.0717 -0.1278 -0.3812
   48CHL1    H8 3493   0.958   0.901   7.037  1.0590 -0.2797  2.1035
   48CHL1   C14 3494   0.928   1.046   7.198  0.2448 -0.3811 -0.0647
   48CHL1   H14 3495   0.929   1.157   7.191  1.6627 -0.3811 -0.0426
   48CHL1   C15 3496   1.050   1.015   7.294  0.0714  0.4133  0.7144
   48CHL1  H15A 3497   1.089   0.912   7.278  1.2818  0.9150  0.3088
   48CHL1  H15B 3498   1.129   1.091   7.273  0.0665  0.2882  0.2154
   48CHL1   C16 3499   0.981   1.032   7.432 -0.4209 -0.1646 -0.1691
   48CHL1  H16A 3500   0.991   0.942   7.497  0.6852 -0.6941 -1.0355
   48CHL1  H16B 3501   1.027   1.123   7.476 -3.9873  2.3098 -1.1809
   48CHL1   C17 3502   0.827   1.058   7.412 -0.0884 -0.0511  0.3975
   48CHL1   H17 3503   0.816   1.168   7.405 -0.4606 -0.1339 -0.5718
   48CHL1   C13 3504   0.793   1.015   7.261 -0.2061 -0.3367  0.1669
   48CHL1   C18 3505   0.787   0.856   7.257  0.5159 -0.4759  0.6095
   48CHL1  H18A 3506   0.699   0.809   7.305  0.4127 -2.0066 -0.9736
   48CHL1  H18B 3507   0.784   0.824   7.150 -1.9065  0.4021  0.3446
   48CHL1  H18C 3508   0.874   0.807   7.305  1.6245 -0.5707 -1.3648
   48CHL1   C12 3509   0.683   1.095   7.192  0.7367 -0.2676  0.7473
   48CHL1  H12A 3510   0.580   1.073   7.226 -0.8987  2.0780 -2.1777
   48CHL1  H12B 3511   0.709   1.203   7.185 -0.1119 -0.1614 -2.4962
   48CHL1   C11 3512   0.678   1.049   7.039 -0.1566 -0.1768  0.3794
   48CHL1  H11A 3513   0.644   0.945   7.053  1.5491 -0.4076  3.7255
   48CHL1  H11B 3514   0.597   1.089   6.974 -0.8568 -0.4809  1.0496
   48CHL1    C9 3515   0.811   1.050   6.968  0.6986  0.3612  0.4074
   48CHL1    H9 3516   0.825   1.160   6.956 -0.6177  0.5804  0.7143
   48CHL1   C10 3517   0.817   0.997   6.818 -0.4266  0.0623 -0.1306
   48CHL1   C19 3518   0.778   0.842   6.815  0.6361 -0.6846 -0.6980
   48CHL1  H19A 3519   0.853   0.770   6.856 -1.3302 -1.8444  1.0724
   48CHL1  H19B 3520   0.681   0.828   6.866  0.4330 -1.1649 -1.2012
   48CHL1  H19C 3521   0.755   0.815   6.710 -1.8156  3.8148 -1.5599
   48CHL1    C1 3522   0.724   1.089   6.730 -0.6670  0.1009 -0.4336
   48CHL1   H1A 3523   0.622   1.080   6.772 -0.1466 -2.0446  0.4763
   48CHL1   H1B 3524   0.758   1.195   6.740  0.5139 -0.0594 -2.1317
   48CHL1    C2 3525   0.727   1.058   6.573 -0.2388  0.3235 -0.0433
   48CHL1   H2A 3526   0.647   1.110   6.516 -2.6101  0.7586  3.3602
   48CHL1   H2B 3527   0.693   0.952   6.561 -0.2761  0.2309  0.8384
   48CHL1   C20 3528   0.740   1.011   7.525  0.0846 -0.6689 -0.0240
   48CHL1   H20 3529   0.741   0.902   7.549  1.7948 -1.2066 -2.1907
   48CHL1   C21 3530   0.590   1.044   7.495 -0.1268  0.3905 -0.1153
   48CHL1  H21A 3531   0.555   0.988   7.406  1.4352  2.2085 -1.9776
   48CHL1  H21B 3532   0.581   1.153   7.479  3.1693  0.9957  1.2782
   48CHL1  H21C 3533   0.536   1.011   7.586  1.5041 -0.5262  0.5685
   48CHL1   C22 3534   0.788   1.077   7.657 -0.2001  0.3749  0.2887
   48CHL1  H22A 3535   0.886   1.028   7.675 -0.4291  0.4013  1.7590
   48CHL1  H22B 3536   0.802   1.185   7.639 -0.2715  0.4619  0.7296
   48CHL1   C23 3537   0.689   1.055   7.776 -0.1729  0.6296  0.0558
   48CHL1  H23A 3538   0.599   1.119   7.761 -1.6475 -1.6296 -1.4307
   48CHL1  H23B 3539   0.655   0.949   7.771  0.9409  0.3051 -1.0646
   48CHL1   C24 3540   0.765   1.064   7.904  0.0269  0.0271  0.0966
   48CHL1  H24A 3541   0.834   0.977   7.910 -1.5430 -1.3322 -0.7077
   48CHL1  H24B 3542   0.821   1.160   7.912  1.7492 -0.7846 -1.5569
   48CHL1   C25 3543   0.674   1.060   8.035  0.1523 -0.4581  0.3221
   48CHL1   H25 3544   0.598   1.140   8.032  0.6366  0.1281  2.2695
   48CHL1   C26 3545   0.607   0.920   8.045 -0.2658 -0.1912 -0.9823
   48CHL1  H26A 3546   0.680   0.844   8.081  1.0386  1.8053  0.8661
   48CHL1  H26B 3547   0.519   0.916   8.112 -0.3436  4.4029 -0.4927
   48CHL1  H26C 3548   0.575   0.882   7.946  1.1106 -1.4561 -0.9626
   48CHL1   C27 3549   0.755   1.075   8.160 -0.1592 -0.5252  0.2918
   48CHL1  H27A 3550   0.809   0.980   8.180  1.3114 -0.0638 -1.2739
   48CHL1  H27B 3551   0.828   1.158   8.157  0.8152 -1.3163  1.1127
   48CHL1  H27C 3552   0.687   1.099   8.245 -1.2931 -0.6934 -0.5424
   49CHL1    C3 3553   4.728   6.519   6.652  1.3237  0.5995 -0.5299
   49CHL1    H3 3554   4.831   6.559   6.656  1.8872 -0.7880 -0.5421
   49CHL1    O3 3555   4.694   6.509   6.516  0.2967 -0.1608 -0.4358
   49CHL1   H3' 3556   4.624   6.444   6.523 -0.4401  0.3004 -2.4531
   49CHL1    C4 3557   4.721   6.377   6.720 -0.4947  1.3589  0.5928
   49CHL1   H4A 3558   4.615   6.355   6.697  0.2482 -0.8474 -1.0688
   49CHL1   H4B 3559   4.784   6.302   6.667 -3.7645 -0.0610 -1.5596
   49CHL1    C5 3560   4.749   6.394   6.867 -0.1487 -0.3845  0.5639
   49CHL1    C6 3561   4.866   6.339   6.922  1.2682  0.2128  0.2843
   49CHL1    H6 3562   4.931   6.287   6.850 -0.7159  1.2140 -2.4136
   49CHL1    C7 3563   4.896   6.338   7.071 -0.4221  0.5659 -0.3629
   49CHL1   H7A 3564   4.935   6.242   7.111 -0.3521  0.9123  0.4169
   49CHL1   H7B 3565   4.979   6.410   7.086  0.9024 -1.2322  1.4886
   49CHL1    C8 3566   4.776   6.395   7.157  0.3541  0.5087  0.4584
   49CHL1    H8 3567   4.714   6.303   7.167  0.7551  0.2315  0.4132
   49CHL1   C14 3568   4.825   6.437   7.290 -0.2378  0.4122  0.1309
   49CHL1   H14 3569   4.883   6.529   7.267 -0.6689  0.4716 -0.7747
   49CHL1   C15 3570   4.918   6.339   7.372 -0.4697 -0.9540 -0.2806
   49CHL1  H15A 3571   4.887   6.233   7.359  2.0084 -1.6962 -0.6084
   49CHL1  H15B 3572   5.021   6.349   7.333 -0.0004 -0.4944  1.0301
   49CHL1   C16 3573   4.902   6.385   7.513  0.1300 -0.3479  0.3163
   49CHL1  H16A 3574   4.854   6.305   7.575  1.0427 -1.1985 -0.0556
   49CHL1  H16B 3575   4.998   6.412   7.560  0.1472  1.2064 -0.5557
   49CHL1   C17 3576   4.801   6.506   7.507  0.1570  0.2502  0.3689
   49CHL1   H17 3577   4.854   6.603   7.490  2.7077 -0.9175  1.0943
   49CHL1   C13 3578   4.714   6.474   7.389 -0.2324 -0.0836  0.2305
   49CHL1   C18 3579   4.617   6.355   7.424  0.4038 -0.6453 -0.2545
   49CHL1  H18A 3580   4.675   6.264   7.451 -0.0089 -1.2799 -1.4317
   49CHL1  H18B 3581   4.551   6.379   7.510 -0.1774  0.9013 -1.0968
   49CHL1  H18C 3582   4.553   6.334   7.336 -0.9336 -0.9822  0.7548
   49CHL1   C12 3583   4.640   6.589   7.324 -0.2321  0.4475  0.9090
   49CHL1  H12A 3584   4.547   6.627   7.373 -1.1481  1.2933 -1.3744
   49CHL1  H12B 3585   4.713   6.669   7.303  0.3682 -0.7650 -2.0271
   49CHL1   C11 3586   4.579   6.548   7.187 -0.4597 -0.3547  0.2069
   49CHL1  H11A 3587   4.500   6.475   7.211 -0.8525  0.7066  2.3706
   49CHL1  H11B 3588   4.524   6.629   7.134  1.1614  1.5962  1.3660
   49CHL1    C9 3589   4.693   6.503   7.085  0.3630  0.4721 -0.2542
   49CHL1    H9 3590   4.764   6.588   7.085  1.7542 -0.5697 -2.9712
   49CHL1   C10 3591   4.644   6.472   6.933  0.5118 -0.2492  0.0003
   49CHL1   C19 3592   4.512   6.397   6.954 -0.3412 -0.0367  0.1544
   49CHL1  H19A 3593   4.541   6.315   7.023  2.7337  0.9282  0.1643
   49CHL1  H19B 3594   4.430   6.462   6.992 -0.2268 -0.6176  1.4567
   49CHL1  H19C 3595   4.476   6.349   6.861 -0.4625  2.3190 -1.0945
   49CHL1    C1 3596   4.638   6.608   6.857 -0.3419 -0.9878  0.3684
   49CHL1   H1A 3597   4.557   6.666   6.906  0.5002 -1.1418  1.9968
   49CHL1   H1B 3598   4.734   6.653   6.890 -0.0249 -1.2459 -0.1836
   49CHL1    C2 3599   4.629   6.613   6.708 -0.2701 -0.4291  0.4736
   49CHL1   H2A 3600   4.632   6.715   6.663 -1.1688 -0.9307 -0.7549
   49CHL1   H2B 3601   4.530   6.567   6.688 -0.5483 -1.2634  3.3285
   49CHL1   C20 3602   4.735   6.538   7.647  0.1741  0.2733 -0.3315
   49CHL1   H20 3603   4.683   6.443   7.673 -2.5750  1.6878 -0.3285
   49CHL1   C21 3604   4.624   6.647   7.636 -0.2438 -0.0451 -0.0060
   49CHL1  H21A 3605   4.659   6.732   7.573 -0.8611 -0.1677 -0.5252
   49CHL1  H21B 3606   4.622   6.697   7.735  1.6182 -0.6864  0.4015
   49CHL1  H21C 3607   4.530   6.601   7.600  0.1591  0.3914 -1.6781
   49CHL1   C22 3608   4.843   6.558   7.766 -0.5900  0.4033  1.0532
   49CHL1  H22A 3609   4.926   6.485   7.759 -0.3332  0.7116  0.8079
   49CHL1  H22B 3610   4.883   6.656   7.731 -1.0285  0.1421 -0.2227
   49CHL1   C23 3611   4.787   6.565   7.903  0.4741  0.0542  0.1295
   49CHL1  H23A 3612   4.687   6.614   7.909 -0.9325 -2.5776 -0.2121
   49CHL1  H23B 3613   4.768   6.460   7.936 -2.1100  0.8438  1.4164
   49CHL1   C24 3614   4.883   6.629   8.001 -0.4043 -0.4927 -0.1395
   49CHL1  H24A 3615   4.976   6.567   7.998  1.2314  1.7819  0.8218
   49CHL1  H24B 3616   4.920   6.728   7.967  0.5092  0.3594  3.0587
   49CHL1   C25 3617   4.824   6.648   8.140  0.4337  0.2791  0.3973
   49CHL1   H25 3618   4.800   6.543   8.168  0.1444 -0.0265 -0.9454
   49CHL1   C26 3619   4.940   6.704   8.232  0.3058 -0.0853  0.1365
   49CHL1  H26A 3620   5.036   6.649   8.221  1.4499  1.1577  2.9810
   49CHL1  H26B 3621   4.963   6.807   8.197 -3.3646  0.1249 -2.2232
   49CHL1  H26C 3622   4.913   6.696   8.339  0.2000 -1.5839  0.0249
   49CHL1   C27 3623   4.696   6.725   8.145 -0.8233 -0.2462  0.1481
   49CHL1  H27A 3624   4.703   6.828   8.104 -1.4559 -0.3291 -0.1775
   49CHL1  H27B 3625   4.613   6.673   8.092 -0.5652 -0.4912 -0.0146
   49CHL1  H27C 3626   4.676   6.734   8.254 -1.2724  0.2370  0.0311
   50CHL1    C3 3627   6.537   0.918   6.812  0.0309 -1.1677  0.1822
   50CHL1    H3 3628   6.604   0.830   6.820  0.7665 -0.8412 -1.8510
   50CHL1    O3 3629   6.537   0.948   6.676 -0.0426  0.1452 -0.0300
   50CHL1   H3' 3630   6.627   0.971   6.653  0.5479 -1.2366  0.7726
   50CHL1    C4 3631   6.398   0.888   6.862  0.1164  0.0250 -0.5099
   50CHL1   H4A 3632   6.337   0.980   6.852  1.6339  1.1962  0.4111
   50CHL1   H4B 3633   6.353   0.806   6.804  0.2720  1.2813 -2.5076
   50CHL1    C5 3634   6.409   0.846   7.011 -0.1606 -0.9093 -0.5014
   50CHL1    C6 3635   6.363   0.727   7.061 -0.1993  0.3677  0.7822
   50CHL1    H6 3636   6.321   0.651   6.993 -0.3357  1.9460 -0.9902
   50CHL1    C7 3637   6.357   0.692   7.205  0.1874 -0.4519  0.7913
   50CHL1   H7A 3638   6.256   0.650   7.223  0.1523 -0.6634  0.0967
   50CHL1   H7B 3639   6.427   0.612   7.239 -0.5039 -0.7536  1.5560
   50CHL1    C8 3640   6.380   0.817   7.298 -0.0848 -0.2500  0.3127
   50CHL1    H8 3641   6.288   0.877   7.286 -0.5636 -1.3007 -1.6359
   50CHL1   C14 3642   6.403   0.779   7.444 -0.2436  0.1643 -0.3972
   50CHL1   H14 3643   6.498   0.722   7.451 -0.3872 -0.0293  0.0529
   50CHL1   C15 3644   6.296   0.687   7.510  0.2594 -0.7048 -0.0867
   50CHL1  H15A 3645   6.204   0.749   7.495  0.4477 -0.2504  0.5882
   50CHL1  H15B 3646   6.295   0.581   7.477  0.0306 -1.4498  2.1582
   50CHL1   C16 3647   6.334   0.695   7.664  0.1824  0.0886  1.0057
   50CHL1  H16A 3648   6.239   0.709   7.718 -0.7064  1.7552 -0.8894
   50CHL1  H16B 3649   6.383   0.607   7.711 -2.4160 -0.2066  3.3856
   50CHL1   C17 3650   6.433   0.816   7.675 -0.9628 -1.1289  0.4579
   50CHL1   H17 3651   6.535   0.771   7.675 -0.1805  0.4074 -1.9861
   50CHL1   C13 3652   6.427   0.894   7.536  0.8339 -0.5159 -0.3175
   50CHL1   C18 3653   6.306   0.994   7.540  0.1490  0.2522 -0.6436
   50CHL1  H18A 3654   6.270   1.045   7.448 -1.3505  0.0841 -0.1733
   50CHL1  H18B 3655   6.210   0.944   7.567  0.1293  0.3912 -0.4504
   50CHL1  H18C 3656   6.329   1.070   7.618  2.1412  0.2842 -1.2105
   50CHL1   C12 3657   6.558   0.963   7.494  0.4278 -0.5889  0.5510
   50CHL1  H12A 3658   6.574   1.056   7.552  0.3748 -0.2999  0.1098
   50CHL1  H12B 3659   6.645   0.896   7.510  1.9234  0.7658 -1.4215
   50CHL1   C11 3660   6.558   1.006   7.344 -0.2881 -0.2692 -0.2362
   50CHL1  H11A 3661   6.492   1.096   7.345 -0.0703 -0.0976 -0.8029
   50CHL1  H11B 3662   6.659   1.042   7.315  0.2350  1.4873  3.2593
   50CHL1    C9 3663   6.502   0.897   7.250 -0.2079 -0.1788  1.0805
   50CHL1    H9 3664   6.582   0.821   7.236 -0.5755 -0.3222 -0.4992
   50CHL1   C10 3665   6.478   0.951   7.103 -0.6864  0.4347  0.2790
   50CHL1   C19 3666   6.393   1.083   7.110  0.0494  0.8447 -0.2346
   50CHL1  H19A 3667   6.302   1.063   7.170 -0.0318  0.4348 -0.4900
   50CHL1  H19B 3668   6.458   1.165   7.147  2.1232  1.1638 -4.1020
   50CHL1  H19C 3669   6.357   1.114   7.010  1.8081 -1.4579 -1.6842
   50CHL1    C1 3670   6.620   0.987   7.040  0.1771 -0.4311  0.5333
   50CHL1   H1A 3671   6.666   1.065   7.104 -1.6971  0.7701  0.4936
   50CHL1   H1B 3672   6.684   0.896   7.044 -2.2913 -2.3044 -0.2150
   50CHL1    C2 3673   6.603   1.030   6.894  0.3533  0.2509  0.2412
   50CHL1   H2A 3674   6.702   1.055   6.850  0.2226 -2.4839 -1.8864
   50CHL1   H2B 3675   6.543   1.123   6.887  1.8414  1.1183 -3.2500
   50CHL1   C20 3676   6.411   0.902   7.802 -0.6497 -0.1993  0.6739
   50CHL1   H20 3677   6.309   0.943   7.810 -0.8050 -0.7397  1.5188
   50CHL1   C21 3678   6.513   1.021   7.805 -0.2249  0.1647  0.0747
   50CHL1  H21A 3679   6.511   1.087   7.895  1.2325 -1.3327  1.2694
   50CHL1  H21B 3680   6.499   1.099   7.728 -0.5164  2.5041  2.3615
   50CHL1  H21C 3681   6.617   0.983   7.811 -0.3169  0.0163  0.8674
   50CHL1   C22 3682   6.429   0.800   7.921 -0.4728 -0.9977  0.3961
   50CHL1  H22A 3683   6.353   0.719   7.921 -0.2673 -1.2173 -1.1239
   50CHL1  H22B 3684   6.534   0.763   7.913  0.3400  0.2832  3.3903
   50CHL1   C23 3685   6.415   0.881   8.054 -0.3596 -0.5608  0.1959
   50CHL1  H23A 3686   6.496   0.957   8.068  0.2041 -1.0833 -0.1751
   50CHL1  H23B 3687   6.325   0.944   8.041  1.9458  2.7688 -0.9624
   50CHL1   C24 3688   6.405   0.787   8.164 -0.8516 -0.3975 -0.4995
   50CHL1  H24A 3689   6.308   0.737   8.145 -0.7343 -1.1822  0.8339
   50CHL1  H24B 3690   6.488   0.713   8.169  0.2475  0.7592 -1.2054
   50CHL1   C25 3691   6.395   0.851   8.309 -0.5863 -0.7981  0.3800
   50CHL1   H25 3692   6.316   0.928   8.295 -0.0731 -0.7617 -3.8483
   50CHL1   C26 3693   6.357   0.735   8.411 -0.2968 -0.6105 -0.1397
   50CHL1  H26A 3694   6.436   0.657   8.415 -0.9734 -1.2928  4.0671
   50CHL1  H26B 3695   6.342   0.781   8.511 -0.0395 -1.3659  0.2500
   50CHL1  H26C 3696   6.255   0.708   8.376 -0.0273 -1.7836 -0.0551
   50CHL1   C27 3697   6.532   0.923   8.343 -0.0455  0.3158 -0.4175
   50CHL1  H27A 3698   6.520   0.971   8.442 -0.9536  0.7481 -0.7171
   50CHL1  H27B 3699   6.611   0.847   8.360 -0.4010  0.2533  1.0731
   50CHL1  H27C 3700   6.554   0.999   8.265 -1.1000  1.2597  0.1731
   51CHL1    C3 3701   5.071   0.588   7.057  0.2487  0.3731  0.3616
   51CHL1    H3 3702   5.178   0.608   7.075  1.1505 -2.0277 -1.7350
   51CHL1    O3 3703   5.058   0.551   6.917 -0.6071 -0.0945  0.2075
   51CHL1   H3' 3704   4.973   0.509   6.902 -0.0037 -2.0368  1.7994
   51CHL1    C4 3705   5.018   0.472   7.143  0.8475  0.2349 -0.2972
   51CHL1   H4A 3706   4.913   0.441   7.125  0.2179  0.7355  2.1790
   51CHL1   H4B 3707   5.073   0.383   7.106  0.3741 -0.2693  0.2035
   51CHL1    C5 3708   5.036   0.511   7.291  0.3735  0.1016  0.3736
   51CHL1    C6 3709   5.101   0.442   7.386 -0.0193 -0.1764 -0.3107
   51CHL1    H6 3710   5.145   0.349   7.348 -0.4392 -0.2777 -0.5577
   51CHL1    C7 3711   5.099   0.459   7.537  0.2715 -0.4118  0.7165
   51CHL1   H7A 3712   5.091   0.356   7.578 -1.0370 -0.5583  0.1549
   51CHL1   H7B 3713   5.193   0.503   7.577  2.0478 -3.1430 -0.1467
   51CHL1    C8 3714   4.980   0.545   7.571  0.7846 -0.4936  0.1541
   51CHL1    H8 3715   4.884   0.491   7.559  0.0089  0.9174 -0.2544
   51CHL1   C14 3716   4.995   0.595   7.712 -0.1569 -0.0473  0.2195
   51CHL1   H14 3717   5.090   0.651   7.704  0.3576 -0.8857  0.3344
   51CHL1   C15 3718   5.023   0.493   7.832  0.4494  0.0753 -0.2080
   51CHL1  H15A 3719   4.954   0.409   7.811  1.6249 -0.4532 -2.2458
   51CHL1  H15B 3720   5.126   0.452   7.828  0.4484  0.1959 -1.7879
   51CHL1   C16 3721   4.995   0.578   7.956  0.4649 -0.6187 -0.1057
   51CHL1  H16A 3722   4.911   0.534   8.014 -0.6225  2.0530  0.5007
   51CHL1  H16B 3723   5.085   0.595   8.018 -1.1793  3.0409  1.5842
   51CHL1   C17 3724   4.933   0.717   7.906  0.1103  1.0398 -0.1677
   51CHL1   H17 3725   5.019   0.786   7.891  0.3183  0.5893 -1.0810
   51CHL1   C13 3726   4.887   0.692   7.760  0.3962  0.4657 -1.0276
   51CHL1   C18 3727   4.754   0.623   7.769  0.5885  0.9725 -0.6750
   51CHL1  H18A 3728   4.723   0.561   7.682 -1.6322  1.2313 -0.1365
   51CHL1  H18B 3729   4.769   0.560   7.860 -0.2078 -0.5098 -1.5157
   51CHL1  H18C 3730   4.675   0.698   7.789  0.7385  0.8847  0.3170
   51CHL1   C12 3731   4.895   0.816   7.673 -0.1285  0.8091 -0.1184
   51CHL1  H12A 3732   4.815   0.890   7.695 -0.9835 -0.6012  1.8111
   51CHL1  H12B 3733   4.995   0.863   7.682  0.6846 -1.1644  2.4556
   51CHL1   C11 3734   4.866   0.772   7.526 -0.1961  0.1894 -0.9224
   51CHL1  H11A 3735   4.769   0.719   7.536  0.6492 -0.8853  3.3233
   51CHL1  H11B 3736   4.854   0.859   7.458 -1.5899  1.5377  0.9578
   51CHL1    C9 3737   4.970   0.671   7.478 -0.6717 -0.4742  0.8163
   51CHL1    H9 3738   5.066   0.725   7.491 -0.7911  0.0503 -0.4122
   51CHL1   C10 3739   4.952   0.633   7.329 -0.2076  0.4202 -0.3874
   51CHL1   C19 3740   4.798   0.595   7.310 -0.2692  0.0713  0.1561
   51CHL1  H19A 3741   4.779   0.502   7.368  1.9478 -1.2149 -1.0586
   51CHL1  H19B 3742   4.726   0.676   7.335 -1.3060 -0.5415 -0.7540
   51CHL1  H19C 3743   4.770   0.591   7.203 -0.6871  2.6138  0.0918
   51CHL1    C1 3744   4.991   0.755   7.240  0.1299 -0.0325  0.3972
   51CHL1   H1A 3745   4.945   0.855   7.256  2.5788  1.3411 -0.6291
   51CHL1   H1B 3746   5.090   0.792   7.273  0.5482  0.1471 -1.0000
   51CHL1    C2 3747   4.999   0.720   7.084  0.3622 -0.1369 -0.0687
   51CHL1   H2A 3748   5.044   0.802   7.024 -3.3499  0.6087 -2.1144
   51CHL1   H2B 3749   4.897   0.706   7.042  0.4744  0.8971 -0.7153
   51CHL1   C20 3750   4.843   0.783   8.006 -0.7983  0.6510  0.2957
   51CHL1   H20 3751   4.743   0.734   8.004 -0.8232  0.6896 -2.0050
   51CHL1   C21 3752   4.820   0.925   7.969 -0.3585  0.3039 -0.5632
   51CHL1  H21A 3753   4.768   0.971   8.055 -1.4220  0.6253 -1.3670
   51CHL1  H21B 3754   4.748   0.949   7.889  0.0649 -1.5280 -1.5507
   51CHL1  H21C 3755   4.915   0.979   7.947 -1.4434  2.2889 -0.6039
   51CHL1   C22 3756   4.883   0.771   8.156 -0.2997 -0.3335 -0.4639
   51CHL1  H22A 3757   4.809   0.837   8.206 -0.1086 -0.5215  0.0668
   51CHL1  H22B 3758   4.863   0.668   8.190  0.5503 -0.5243 -0.5342
   51CHL1   C23 3759   5.021   0.819   8.206  0.8659  0.1205  0.1840
   51CHL1  H23A 3760   5.106   0.778   8.147  1.1889 -1.2925  1.5537
   51CHL1  H23B 3761   5.022   0.930   8.199 -1.8463  0.2314  0.5473
   51CHL1   C24 3762   5.045   0.794   8.357 -0.8244  0.5561 -0.0372
   51CHL1  H24A 3763   4.959   0.827   8.420  0.7067 -1.5702  3.4638
   51CHL1  H24B 3764   5.065   0.685   8.363  0.2626  0.6580 -1.3435
   51CHL1   C25 3765   5.171   0.869   8.412 -0.9081  0.7112  0.6364
   51CHL1   H25 3766   5.258   0.853   8.346 -0.6171  1.5179  0.8104
   51CHL1   C26 3767   5.150   1.022   8.421  0.9480  0.4678 -0.2846
   51CHL1  H26A 3768   5.240   1.061   8.472  0.3390  0.0383  1.1971
   51CHL1  H26B 3769   5.139   1.073   8.324 -0.1854 -0.1429 -0.4969
   51CHL1  H26C 3770   5.058   1.046   8.479  1.3797  1.1973  0.1088
   51CHL1   C27 3771   5.224   0.807   8.539  0.2182 -0.2009  0.3840
   51CHL1  H27A 3772   5.312   0.863   8.577  0.7245 -0.4010 -0.4662
   51CHL1  H27B 3773   5.152   0.797   8.623 -0.6423 -1.8987 -0.4993
   51CHL1  H27C 3774   5.255   0.701   8.524  0.6177  0.0852 -0.8901
   52CHL1    C3 3775   1.139   0.643   6.923  1.0408  0.2214  0.2513
   52CHL1    H3 3776   1.119   0.752   6.933  1.3497  0.2773  0.2811
   52CHL1    O3 3777   1.157   0.605   6.786  0.4326  0.9605  0.4390
   52CHL1   H3' 3778   1.073   0.621   6.742  0.0103  0.1126  0.9015
   52CHL1    C4 3779   1.271   0.615   7.003 -0.0959  0.0401  0.4759
   52CHL1   H4A 3780   1.305   0.511   6.984  0.9751  0.7572 -2.1104
   52CHL1   H4B 3781   1.350   0.680   6.959  2.4368 -1.3795  2.6528
   52CHL1    C5 3782   1.258   0.616   7.153  0.1640  0.3410 -0.2091
   52CHL1    C6 3783   1.343   0.688   7.223 -0.1536 -0.1535 -0.3564
   52CHL1    H6 3784   1.425   0.732   7.164  0.7221 -1.1482  0.0863
   52CHL1    C7 3785   1.344   0.700   7.367  0.6715 -0.0341 -0.4123
   52CHL1   H7A 3786   1.441   0.664   7.410 -0.2617 -3.6177 -1.0056
   52CHL1   H7B 3787   1.339   0.804   7.405  2.3755 -0.3856  0.9657
   52CHL1    C8 3788   1.242   0.610   7.436  0.4591  0.3534  0.5145
   52CHL1    H8 3789   1.285   0.509   7.452 -1.1731 -0.6424 -0.9912
   52CHL1   C14 3790   1.217   0.659   7.575 -0.3583  0.2579 -0.1968
   52CHL1   H14 3791   1.178   0.763   7.571 -0.0792  0.3656 -0.1705
   52CHL1   C15 3792   1.340   0.684   7.674 -0.5625 -0.0613  0.0345
   52CHL1  H15A 3793   1.404   0.601   7.639 -0.1552  0.6882 -1.0412
   52CHL1  H15B 3794   1.398   0.775   7.648 -1.9989  1.5290  2.0093
   52CHL1   C16 3795   1.272   0.695   7.810  0.1269  0.7896 -0.4703
   52CHL1  H16A 3796   1.319   0.635   7.890 -2.3946  0.1661  0.6456
   52CHL1  H16B 3797   1.274   0.803   7.838  0.4741  0.6621  0.0042
   52CHL1   C17 3798   1.125   0.655   7.790 -0.6227  0.1908 -0.0441
   52CHL1   H17 3799   1.086   0.755   7.763 -1.3587 -0.3557 -1.0787
   52CHL1   C13 3800   1.113   0.581   7.654  0.0697 -0.4998 -0.3947
   52CHL1   C18 3801   1.164   0.441   7.687  0.1405  0.0544 -0.1037
   52CHL1  H18A 3802   1.100   0.392   7.764 -1.4855  0.4607 -1.1321
   52CHL1  H18B 3803   1.165   0.385   7.591  0.1025  0.5433 -0.3897
   52CHL1  H18C 3804   1.268   0.432   7.723  0.6476 -1.5219 -1.8446
   52CHL1   C12 3805   0.977   0.570   7.578 -1.0028 -0.0687 -0.2444
   52CHL1  H12A 3806   0.897   0.515   7.632 -0.9291 -2.4679 -2.4202
   52CHL1  H12B 3807   0.930   0.671   7.566  0.5210  0.6215 -0.5502
   52CHL1   C11 3808   1.000   0.513   7.434  0.0924  0.3458  1.0360
   52CHL1  H11A 3809   1.020   0.404   7.438 -1.0300  0.0034 -0.9340
   52CHL1  H11B 3810   0.911   0.514   7.367  1.2374 -1.2526 -0.6146
   52CHL1    C9 3811   1.111   0.586   7.351  0.3351  0.9847 -0.0651
   52CHL1    H9 3812   1.072   0.689   7.336 -1.4655  0.0958 -2.0529
   52CHL1   C10 3813   1.137   0.536   7.210 -0.6796  0.4216  0.5817
   52CHL1   C19 3814   1.186   0.386   7.210  0.5167 -0.7241 -0.4651
   52CHL1  H19A 3815   1.195   0.351   7.105  0.8708  3.7119 -2.1627
   52CHL1  H19B 3816   1.280   0.375   7.269 -0.0908  1.9866  1.2262
   52CHL1  H19C 3817   1.127   0.325   7.281  2.0598 -1.0028  0.6288
   52CHL1    C1 3818   1.008   0.573   7.128  0.6922  0.6764  0.2016
   52CHL1   H1A 3819   0.920   0.514   7.160  1.0779  0.5978  1.1717
   52CHL1   H1B 3820   0.983   0.681   7.145  0.9177  0.6351  0.8407
   52CHL1    C2 3821   1.023   0.562   6.973  0.5613 -0.3783 -0.6899
   52CHL1   H2A 3822   0.926   0.592   6.929  0.1990 -0.4596  0.0361
   52CHL1   H2B 3823   1.035   0.453   6.953 -0.7910 -0.5250 -0.7884
   52CHL1   C20 3824   1.048   0.593   7.906 -0.4802  0.0707  0.0278
   52CHL1   H20 3825   0.955   0.543   7.871 -0.2621 -1.7442  1.8477
   52CHL1   C21 3826   1.007   0.714   7.989  0.1418 -0.1147 -0.0521
   52CHL1  H21A 3827   0.945   0.680   8.075  0.1456 -0.4932 -0.1948
   52CHL1  H21B 3828   0.965   0.801   7.934  1.4907  1.8527  1.8801
   52CHL1  H21C 3829   1.106   0.750   8.024 -0.3780  3.5682 -1.9777
   52CHL1   C22 3830   1.117   0.500   8.011 -0.3025 -0.1410  0.5076
   52CHL1  H22A 3831   1.199   0.440   7.965 -1.0603 -3.3032  2.9099
   52CHL1  H22B 3832   1.169   0.570   8.079  1.0484  0.4526 -1.0611
   52CHL1   C23 3833   1.024   0.414   8.094 -0.2372 -0.4490  0.0480
   52CHL1  H23A 3834   0.945   0.471   8.148  0.6487  3.1782 -2.1518
   52CHL1  H23B 3835   0.982   0.342   8.021  0.2707 -0.6983  0.0025
   52CHL1   C24 3836   1.115   0.330   8.192 -0.7628 -0.8242 -0.1633
   52CHL1  H24A 3837   1.164   0.243   8.143  1.0396 -0.7748  1.4105
   52CHL1  H24B 3838   1.186   0.396   8.247  0.1749 -0.8655 -1.2902
   52CHL1   C25 3839   1.036   0.255   8.301 -0.2528  0.5008  0.8114
   52CHL1   H25 3840   0.979   0.339   8.345  0.8512  0.7423  1.8362
   52CHL1   C26 3841   0.924   0.156   8.250 -0.5378  0.3081 -0.0182
   52CHL1  H26A 3842   0.978   0.063   8.222  0.5611  1.1646 -0.8520
   52CHL1  H26B 3843   0.849   0.138   8.330  0.4419  0.2804  0.9152
   52CHL1  H26C 3844   0.870   0.173   8.154  1.1280 -0.6124 -1.1610
   52CHL1   C27 3845   1.124   0.190   8.408 -0.1194 -0.1848 -0.5248
   52CHL1  H27A 3846   1.203   0.258   8.447  0.8242 -1.4768 -0.0973
   52CHL1  H27B 3847   1.054   0.165   8.491  0.7415 -1.7492 -0.2103
   52CHL1  H27C 3848   1.172   0.100   8.364  1.8221  0.5258  0.0232
   53CHL1    C3 3849   3.860   5.373   7.129 -0.0946 -0.1229 -0.1266
   53CHL1    H3 3850   3.837   5.269   7.161  0.0750  0.0871  0.6785
   53CHL1    O3 3851   3.830   5.384   6.994 -0.2896  0.3153 -0.0757
   53CHL1   H3' 3852   3.900   5.336   6.948 -0.4120  0.2598 -0.2022
   53CHL1    C4 3853   3.772   5.472   7.203 -0.7848 -0.6492  0.2377
   53CHL1   H4A 3854   3.790   5.573   7.160  0.0950 -0.0723  1.8885
   53CHL1   H4B 3855   3.666   5.454   7.174 -0.2114 -2.1493 -1.1037
   53CHL1    C5 3856   3.791   5.455   7.357  0.9081 -0.8078 -0.4233
   53CHL1    C6 3857   3.689   5.416   7.430 -0.5235  0.4134  0.3017
   53CHL1    H6 3858   3.587   5.405   7.391 -0.7755 -0.4404  1.1595
   53CHL1    C7 3859   3.689   5.392   7.577 -0.2479 -0.0639  0.4611
   53CHL1   H7A 3860   3.609   5.456   7.620  0.5571  3.2717 -2.4985
   53CHL1   H7B 3861   3.666   5.285   7.599 -2.8215  0.6546  1.6458
   53CHL1    C8 3862   3.820   5.437   7.638 -0.0453 -0.2207 -0.3777
   53CHL1    H8 3863   3.810   5.547   7.632  1.8262  0.0533  0.6309
   53CHL1   C14 3864   3.836   5.385   7.785 -0.3249 -0.1901  0.8558
   53CHL1   H14 3865   3.823   5.276   7.770 -0.9097  0.1016 -0.9930
   53CHL1   C15 3866   3.726   5.428   7.886 -0.0259  0.0632  0.1779
   53CHL1  H15A 3867   3.725   5.538   7.875  0.9817  0.0571 -0.1059
   53CHL1  H15B 3868   3.627   5.381   7.870  0.1438  0.1402 -1.2127
   53CHL1   C16 3869   3.792   5.396   8.026  0.6408 -0.1852 -0.1506
   53CHL1  H16A 3870   3.781   5.480   8.097  2.3647 -0.9209  1.0406
   53CHL1  H16B 3871   3.746   5.310   8.080  0.5699 -1.3724 -2.0017
   53CHL1   C17 3872   3.945   5.362   7.989  0.2289  0.1196 -0.0091
   53CHL1   H17 3873   3.933   5.252   7.990 -3.0844  0.2999 -2.2011
   53CHL1   C13 3874   3.970   5.417   7.843  0.4403  0.2047 -0.5936
   53CHL1   C18 3875   3.995   5.572   7.850 -1.0180  0.2072 -0.0905
   53CHL1  H18A 3876   3.925   5.620   7.921  0.7039 -0.3918  2.1510
   53CHL1  H18B 3877   4.103   5.580   7.877 -0.5321 -0.1964 -1.7678
   53CHL1  H18C 3878   3.979   5.614   7.749 -1.6232  2.6431  0.9451
   53CHL1   C12 3879   4.078   5.346   7.764 -0.4203  0.1838  0.3834
   53CHL1  H12A 3880   4.180   5.359   7.808 -0.6087  1.0770  0.5733
   53CHL1  H12B 3881   4.038   5.243   7.761 -1.8228  0.7237 -0.4700
   53CHL1   C11 3882   4.079   5.404   7.616  0.9328  0.6234  0.4571
   53CHL1  H11A 3883   4.127   5.504   7.627  0.8278  0.7518 -0.2331
   53CHL1  H11B 3884   4.149   5.347   7.552 -1.4401 -1.0881 -0.7639
   53CHL1    C9 3885   3.937   5.393   7.549  0.0056 -0.1730  0.2394
   53CHL1    H9 3886   3.924   5.284   7.531 -1.9861  0.4615 -2.8329
   53CHL1   C10 3887   3.934   5.457   7.403 -0.2622  0.2900 -0.4885
   53CHL1   C19 3888   3.977   5.604   7.408  0.1623 -0.2024 -0.4291
   53CHL1  H19A 3889   4.083   5.614   7.440 -0.3133  1.7026  0.6581
   53CHL1  H19B 3890   3.964   5.641   7.304  0.3668  1.3698  0.0884
   53CHL1  H19C 3891   3.912   5.669   7.469 -0.5592  0.1135 -1.5248
   53CHL1    C1 3892   4.033   5.379   7.308  0.0686  0.5266 -0.5141
   53CHL1   H1A 3893   4.134   5.423   7.319  0.3289  0.0736 -1.0883
   53CHL1   H1B 3894   4.025   5.273   7.340 -4.5351  1.2038  1.3863
   53CHL1    C2 3895   4.005   5.398   7.162  0.3449  0.0397  0.0077
   53CHL1   H2A 3896   4.068   5.334   7.096  0.8855  0.5743 -0.0003
   53CHL1   H2B 3897   4.025   5.503   7.132  0.6991 -0.4675 -1.6737
   53CHL1   C20 3898   4.041   5.389   8.104 -0.2114  0.0087  0.8494
   53CHL1   H20 3899   4.043   5.496   8.133  1.4836 -0.3578  2.2678
   53CHL1   C21 3900   4.185   5.354   8.071 -0.1309 -0.3397 -0.1794
   53CHL1  H21A 3901   4.230   5.412   7.988 -1.7384  0.1993 -0.7069
   53CHL1  H21B 3902   4.204   5.249   8.040 -0.1513  0.1611 -2.0137
   53CHL1  H21C 3903   4.247   5.366   8.163  0.3065 -0.8012 -0.4060
   53CHL1   C22 3904   3.999   5.320   8.235  0.0751  0.0042  0.6241
   53CHL1  H22A 3905   4.048   5.376   8.318  0.7566 -1.2059  1.0676
   53CHL1  H22B 3906   3.891   5.324   8.261  0.3919  0.1828  1.9952
   53CHL1   C23 3907   4.032   5.169   8.257 -0.2331  0.1405 -0.4602
   53CHL1  H23A 3908   4.012   5.109   8.166 -0.4828  0.0425 -0.3429
   53CHL1  H23B 3909   4.141   5.158   8.274 -0.5748 -0.1098  2.0259
   53CHL1   C24 3910   3.949   5.106   8.366  0.3215 -0.0836 -0.1927
   53CHL1  H24A 3911   3.956   5.160   8.463 -3.0604 -0.4597  0.3973
   53CHL1  H24B 3912   3.848   5.124   8.322 -0.9453  1.0082  2.8503
   53CHL1   C25 3913   3.965   4.957   8.404  0.3295  0.3155 -0.3916
   53CHL1   H25 3914   4.064   4.942   8.453  0.2843 -2.1821 -0.9143
   53CHL1   C26 3915   3.872   4.916   8.518  0.2247 -0.3182  0.5082
   53CHL1  H26A 3916   3.878   4.991   8.600 -2.0243  0.4045  0.0586
   53CHL1  H26B 3917   3.766   4.920   8.488 -0.2699 -1.0347  2.0234
   53CHL1  H26C 3918   3.888   4.812   8.556 -0.7906 -0.0762  1.6213
   53CHL1   C27 3919   3.944   4.865   8.286  0.3448  0.2944  0.4091
   53CHL1  H27A 3920   4.010   4.891   8.201 -0.5385 -2.2628 -1.1644
   53CHL1  H27B 3921   3.961   4.764   8.329 -0.4419 -0.6520 -1.4041
   53CHL1  H27C 3922   3.843   4.865   8.241  0.6687  1.1264 -0.3413
   54CHL1    C3 3923   2.761   3.388   6.972  0.5752  0.6538 -0.4103
   54CHL1    H3 3924   2.681   3.316   7.000  0.6240  1.0471  0.8023
   54CHL1    O3 3925   2.748   3.392   6.827 -0.1337  0.0015 -0.1350
   54CHL1   H3' 3926   2.790   3.476   6.805 -1.9978  0.8615 -0.6188
   54CHL1    C4 3927   2.724   3.523   7.039  0.0776 -0.3164 -0.0161
   54CHL1   H4A 3928   2.793   3.600   7.000 -0.0239  1.1510  2.4916
   54CHL1   H4B 3929   2.627   3.552   6.994  0.5713  0.7982 -0.3877
   54CHL1    C5 3930   2.743   3.519   7.191  0.4638 -0.3236 -0.3338
   54CHL1    C6 3931   2.649   3.560   7.279 -0.6213 -0.0575 -0.2367
   54CHL1    H6 3932   2.559   3.603   7.232 -0.1671  0.4506 -0.6434
   54CHL1    C7 3933   2.658   3.546   7.431  0.0194 -0.4903 -0.0242
   54CHL1   H7A 3934   2.618   3.627   7.496 -0.5371  0.2223 -1.2203
   54CHL1   H7B 3935   2.602   3.452   7.452 -0.3989 -0.5333 -1.2600
   54CHL1    C8 3936   2.806   3.530   7.479  0.2444  0.1684 -0.1597
   54CHL1    H8 3937   2.856   3.627   7.459 -2.4888  2.1305  1.7358
   54CHL1   C14 3938   2.824   3.487   7.626 -0.0253 -0.1249 -0.3175
   54CHL1   H14 3939   2.791   3.383   7.645  1.1957 -0.4850 -0.0592
   54CHL1   C15 3940   2.740   3.563   7.724  0.0515 -0.3617  0.1869
   54CHL1  H15A 3941   2.714   3.668   7.698 -0.1393 -0.2189  0.9627
   54CHL1  H15B 3942   2.645   3.510   7.744 -0.5986  1.4617  2.2375
   54CHL1   C16 3943   2.812   3.558   7.848  0.1407  0.1756 -0.6845
   54CHL1  H16A 3944   2.846   3.660   7.874  0.4465 -0.0488 -0.1822
   54CHL1  H16B 3945   2.761   3.507   7.933  2.5442  1.9446  1.9791
   54CHL1   C17 3946   2.937   3.466   7.829 -0.4768 -0.0423  0.1196
   54CHL1   H17 3947   2.908   3.359   7.837 -0.4410 -0.0352  0.3428
   54CHL1   C13 3948   2.965   3.490   7.678  0.1814  0.1786 -0.0012
   54CHL1   C18 3949   3.027   3.621   7.657  0.0182 -0.2821 -0.2742
   54CHL1  H18A 3950   3.129   3.610   7.698  0.6595 -1.4550 -2.0626
   54CHL1  H18B 3951   3.029   3.664   7.554  0.5864 -1.7972 -0.9143
   54CHL1  H18C 3952   2.984   3.697   7.726 -3.8475  0.0449 -2.6997
   54CHL1   C12 3953   3.040   3.378   7.605 -0.6870  0.3618 -0.1246
   54CHL1  H12A 3954   3.148   3.379   7.634 -0.9547  0.8779  0.9041
   54CHL1  H12B 3955   2.998   3.278   7.630  0.6162  0.7408  4.6099
   54CHL1   C11 3956   3.027   3.409   7.456 -0.2001 -0.1290 -0.0700
   54CHL1  H11A 3957   3.084   3.498   7.421 -3.4378  1.8593 -0.7725
   54CHL1  H11B 3958   3.074   3.327   7.398  0.3691 -0.1873  0.4764
   54CHL1    C9 3959   2.883   3.432   7.394  0.3827  0.8921 -0.3405
   54CHL1    H9 3960   2.829   3.337   7.414 -0.7981  1.7509  0.7393
   54CHL1   C10 3961   2.874   3.457   7.240  0.0485 -0.0878 -0.2726
   54CHL1   C19 3962   2.985   3.558   7.216 -0.9390 -0.2132 -0.0491
   54CHL1  H19A 3963   3.081   3.502   7.211 -1.0321 -0.5075  1.1123
   54CHL1  H19B 3964   2.974   3.604   7.116  2.5371 -2.1586 -1.4964
   54CHL1  H19C 3965   3.002   3.637   7.292 -0.4175 -0.9296  0.5983
   54CHL1    C1 3966   2.910   3.326   7.166 -0.0967 -0.0337  0.2600
   54CHL1   H1A 3967   3.013   3.295   7.192  0.3400 -0.5151 -1.8673
   54CHL1   H1B 3968   2.831   3.251   7.188  2.6069 -2.2082  3.2869
   54CHL1    C2 3969   2.906   3.347   7.015 -0.5989  0.6863 -0.1269
   54CHL1   H2A 3970   2.934   3.255   6.958 -1.3290  0.4190 -0.0729
   54CHL1   H2B 3971   2.970   3.430   6.978  0.0366  0.8893  1.3631
   54CHL1   C20 3972   3.054   3.494   7.929  0.1837  0.3241 -0.7136
   54CHL1   H20 3973   3.085   3.597   7.899  0.7291  0.1322 -0.8324
   54CHL1   C21 3974   3.166   3.388   7.922 -0.4374 -0.0546  0.2327
   54CHL1  H21A 3975   3.228   3.400   7.831  3.3522 -0.2845  2.5602
   54CHL1  H21B 3976   3.124   3.285   7.913  1.0753 -1.0846  3.2635
   54CHL1  H21C 3977   3.237   3.379   8.007  1.1389 -2.7598 -1.2065
   54CHL1   C22 3978   2.994   3.494   8.073 -1.1270  1.1044  0.5908
   54CHL1  H22A 3979   3.078   3.530   8.137  0.0532  0.7805 -0.7178
   54CHL1  H22B 3980   2.912   3.569   8.070 -0.4403  1.8686  0.5459
   54CHL1   C23 3981   2.950   3.364   8.139  0.8188  0.5641  0.7718
   54CHL1  H23A 3982   2.860   3.336   8.079  1.1458  0.0660  0.5114
   54CHL1  H23B 3983   3.026   3.285   8.125 -1.3971 -1.6332  0.4693
   54CHL1   C24 3984   2.912   3.363   8.289  0.6145  0.6874  0.5258
   54CHL1  H24A 3985   2.847   3.452   8.305  0.6405  0.7131  0.4871
   54CHL1  H24B 3986   2.838   3.281   8.302  1.1274  0.0978 -0.2824
   54CHL1   C25 3987   3.027   3.345   8.392  0.2893  0.1372  0.7104
   54CHL1   H25 3988   3.101   3.424   8.368 -1.8490  1.7228 -1.0991
   54CHL1   C26 3989   2.978   3.367   8.537 -0.2660  0.5569  0.0801
   54CHL1  H26A 3990   2.923   3.463   8.535  1.4844  1.5767 -0.5613
   54CHL1  H26B 3991   2.907   3.283   8.554  1.1908 -1.1793 -1.8654
   54CHL1  H26C 3992   3.066   3.376   8.605 -0.8564  3.0420  0.5974
   54CHL1   C27 3993   3.082   3.205   8.379 -0.0546 -0.1649  0.4915
   54CHL1  H27A 3994   3.169   3.189   8.447  0.1209 -1.6432 -0.0552
   54CHL1  H27B 3995   3.002   3.131   8.403 -0.4175  0.0048 -0.1804
   54CHL1  H27C 3996   3.118   3.196   8.275  1.9627 -0.1652  1.1457
   55CHL1    C3 3997   0.959   4.553   6.941 -0.1707  0.0245  0.0848
   55CHL1    H3 3998   1.064   4.518   6.940 -0.4166 -0.8396  1.5680
   55CHL1    O3 3999   0.909   4.556   6.809 -0.3252 -0.5058  0.3470
   55CHL1   H3' 4000   0.858   4.475   6.805  0.3815 -1.2847  3.7622
   55CHL1    C4 4001   0.865   4.469   7.020  0.3127 -0.4829 -0.1400
   55CHL1   H4A 4002   0.762   4.507   7.012  0.5977  0.5842  0.9840
   55CHL1   H4B 4003   0.870   4.365   6.981 -0.1986 -1.0303  1.1970
   55CHL1    C5 4004   0.910   4.464   7.162 -0.3060 -0.2948 -0.0400
   55CHL1    C6 4005   0.945   4.352   7.230  0.3912  0.2937  0.6886
   55CHL1    H6 4006   0.937   4.249   7.192 -1.6327  0.5410  0.3040
   55CHL1    C7 4007   0.984   4.344   7.379 -0.5189 -0.5791  0.6630
   55CHL1   H7A 4008   0.920   4.268   7.428 -1.5034 -2.0822 -2.6485
   55CHL1   H7B 4009   1.090   4.311   7.386 -0.9758 -2.8125 -1.3946
   55CHL1    C8 4010   0.946   4.480   7.451 -0.7040  0.0160  0.1427
   55CHL1    H8 4011   0.836   4.474   7.469 -0.6597 -1.8484  0.0082
   55CHL1   C14 4012   1.008   4.489   7.585  0.1335 -0.5642 -0.4091
   55CHL1   H14 4013   1.118   4.483   7.566  0.4900  3.3312 -0.4044
   55CHL1   C15 4014   0.989   4.363   7.677 -0.1250 -0.2381  0.6091
   55CHL1  H15A 4015   0.885   4.326   7.683  0.7399 -2.6964  2.0237
   55CHL1  H15B 4016   1.046   4.273   7.643 -1.8081 -1.2506  0.3534
   55CHL1   C16 4017   1.035   4.412   7.814 -0.6829 -0.2764  0.0477
   55CHL1  H16A 4018   0.962   4.388   7.895  1.6985  2.6299  3.3659
   55CHL1  H16B 4019   1.130   4.363   7.845 -0.5135  0.1355  0.1772
   55CHL1   C17 4020   1.059   4.565   7.801 -0.0500  0.0041  0.9180
   55CHL1   H17 4021   1.167   4.580   7.782  0.1711 -1.3785  0.9828
   55CHL1   C13 4022   0.982   4.609   7.669 -0.5968 -0.1566 -0.5776
   55CHL1   C18 4023   0.830   4.616   7.719  0.2083 -0.6705  0.7973
   55CHL1  H18A 4024   0.821   4.699   7.792 -0.8744 -0.2736  0.2367
   55CHL1  H18B 4025   0.764   4.656   7.639  1.4243 -0.8258 -0.3189
   55CHL1  H18C 4026   0.787   4.529   7.773 -2.2720  1.3615  2.3560
   55CHL1   C12 4027   1.026   4.734   7.590 -0.1060  0.5769 -0.4609
   55CHL1  H12A 4028   0.991   4.829   7.636 -2.3904 -1.0439  1.3389
   55CHL1  H12B 4029   1.137   4.739   7.584 -0.1579  1.1254 -1.0897
   55CHL1   C11 4030   0.961   4.735   7.450 -0.7780 -0.7824  0.7861
   55CHL1  H11A 4031   0.854   4.753   7.476 -1.2498 -0.5141 -1.1957
   55CHL1  H11B 4032   0.996   4.822   7.390  2.4545 -0.9838  2.1678
   55CHL1    C9 4033   0.981   4.606   7.369 -0.2338 -0.1464  0.2430
   55CHL1    H9 4034   1.090   4.609   7.352 -0.3479  2.9234 -0.4237
   55CHL1   C10 4035   0.914   4.608   7.229  0.1220  0.2979 -0.4241
   55CHL1   C19 4036   0.764   4.644   7.234  0.1015  0.0311 -0.7641
   55CHL1  H19A 4037   0.708   4.572   7.297  1.8499 -0.1649  0.6412
   55CHL1  H19B 4038   0.759   4.747   7.274  1.6809  0.9491 -2.7305
   55CHL1  H19C 4039   0.708   4.649   7.138  0.2206  0.7891 -0.7949
   55CHL1    C1 4040   0.992   4.704   7.140  0.5943 -0.4431  0.0683
   55CHL1   H1A 4041   0.973   4.806   7.179 -2.2541 -1.4240  1.5048
   55CHL1   H1B 4042   1.097   4.670   7.144  0.6369 -0.3236 -0.0175
   55CHL1    C2 4043   0.956   4.698   6.992 -0.1876  0.7195  0.1286
   55CHL1   H2A 4044   1.025   4.770   6.943  1.6376 -1.5829 -0.9322
   55CHL1   H2B 4045   0.854   4.741   6.984 -0.8796 -0.7534  0.5420
   55CHL1   C20 4046   1.040   4.651   7.930 -0.8132 -0.1837 -0.0191
   55CHL1   H20 4047   0.934   4.634   7.955 -0.0114 -0.4873  3.6510
   55CHL1   C21 4048   1.065   4.797   7.915  1.1145 -0.2501 -0.4292
   55CHL1  H21A 4049   1.156   4.824   7.857  0.8219 -0.0772 -0.8116
   55CHL1  H21B 4050   1.063   4.846   8.014  0.3983  2.7232 -1.7732
   55CHL1  H21C 4051   0.985   4.844   7.854  2.0581 -0.5255 -1.9604
   55CHL1   C22 4052   1.126   4.594   8.049  0.1571 -0.7610  0.3792
   55CHL1  H22A 4053   1.148   4.486   8.038  2.9035 -0.4761  2.1054
   55CHL1  H22B 4054   1.225   4.644   8.044 -0.5366  0.5659 -0.9375
   55CHL1   C23 4055   1.068   4.621   8.187  0.6376 -0.1645 -0.3831
   55CHL1  H23A 4056   1.017   4.720   8.196 -0.1650 -0.3470 -2.3933
   55CHL1  H23B 4057   0.981   4.552   8.191  1.4401 -1.4091 -2.6712
   55CHL1   C24 4058   1.167   4.608   8.297  0.3217  0.0132  0.3511
   55CHL1  H24A 4059   1.245   4.682   8.270  0.5992 -0.5468 -0.4357
   55CHL1  H24B 4060   1.124   4.647   8.391 -0.7321  2.3472 -1.0219
   55CHL1   C25 4061   1.211   4.465   8.333  0.5617 -1.0782 -0.2136
   55CHL1   H25 4062   1.232   4.408   8.239 -0.3512  0.7364 -1.5876
   55CHL1   C26 4063   1.347   4.469   8.409  0.2727  0.4056  0.4629
   55CHL1  H26A 4064   1.378   4.364   8.429  1.8137  0.8805  0.6859
   55CHL1  H26B 4065   1.423   4.517   8.343  0.3668 -0.9147 -0.4267
   55CHL1  H26C 4066   1.329   4.531   8.499 -2.0165  0.3723  0.0668
   55CHL1   C27 4067   1.108   4.393   8.422  0.6762 -0.9353  0.6246
   55CHL1  H27A 4068   1.138   4.296   8.465  1.2423 -0.6934  0.7764
   55CHL1  H27B 4069   1.077   4.445   8.516  1.0992 -0.7432  0.6578
   55CHL1  H27C 4070   1.022   4.367   8.356  2.6610 -1.7639 -1.7592
   56CHL1    C3 4071   3.607   0.324   6.855  1.2888  0.2335  0.1532
   56CHL1    H3 4072   3.504   0.355   6.884  0.4778 -0.6428 -1.6473
   56CHL1    O3 4073   3.628   0.352   6.717  0.1055 -0.5944 -0.1133
   56CHL1   H3' 4074   3.723   0.364   6.722  0.1961 -1.6044  1.2660
   56CHL1    C4 4075   3.708   0.398   6.940 -0.1398 -1.0168  0.0843
   56CHL1   H4A 4076   3.811   0.370   6.908  0.1233 -1.4432  1.2354
   56CHL1   H4B 4077   3.694   0.506   6.921 -1.0606 -1.5232 -2.5529
   56CHL1    C5 4078   3.683   0.362   7.087 -0.2086 -0.1356  0.6805
   56CHL1    C6 4079   3.648   0.456   7.179  0.2481  0.6647  0.2075
   56CHL1    H6 4080   3.633   0.562   7.152  0.9754  0.5203 -0.8383
   56CHL1    C7 4081   3.621   0.428   7.325 -0.7212 -0.4981 -0.1130
   56CHL1   H7A 4082   3.662   0.512   7.385 -1.0014  0.5102 -1.2975
   56CHL1   H7B 4083   3.511   0.431   7.343 -0.4598 -2.2953  2.2540
   56CHL1    C8 4084   3.663   0.283   7.366 -0.4295  0.5703  0.5809
   56CHL1    H8 4085   3.772   0.279   7.383 -0.3837 -3.6474  0.4360
   56CHL1   C14 4086   3.598   0.252   7.498 -0.5272  0.5096  0.4092
   56CHL1   H14 4087   3.490   0.256   7.472 -0.0196 -1.9704 -2.5999
   56CHL1   C15 4088   3.624   0.349   7.614  0.2427  0.0339  0.3374
   56CHL1  H15A 4089   3.731   0.378   7.616  0.0170  0.9669 -0.2568
   56CHL1  H15B 4090   3.570   0.446   7.604  0.7452  0.1811 -1.2662
   56CHL1   C16 4091   3.590   0.258   7.738  0.7825 -0.1450 -0.7477
   56CHL1  H16A 4092   3.686   0.246   7.792  0.1696  2.0004  0.9928
   56CHL1  H16B 4093   3.521   0.316   7.803  0.6887  1.3934 -2.1571
   56CHL1   C17 4094   3.550   0.125   7.689 -0.8851 -0.5530 -0.4455
   56CHL1   H17 4095   3.441   0.134   7.672 -0.9292  0.1642  0.1540
   56CHL1   C13 4096   3.617   0.112   7.553  0.8075  0.0245  0.7987
   56CHL1   C18 4097   3.774   0.083   7.562  0.0610 -0.5625  0.2405
   56CHL1  H18A 4098   3.829   0.107   7.469  0.0663  0.6480  0.5355
   56CHL1  H18B 4099   3.822   0.135   7.648 -1.0819 -1.0118  1.1860
   56CHL1  H18C 4100   3.788  -0.025   7.584 -0.3068 -0.7238 -0.2887
   56CHL1   C12 4101   3.558   0.010   7.450 -0.2510 -0.7442 -0.3388
   56CHL1  H12A 4102   3.571  -0.096   7.483 -0.4898 -0.8116 -0.4614
   56CHL1  H12B 4103   3.451   0.038   7.444  0.1781  1.6483  1.5150
   56CHL1   C11 4104   3.620   0.028   7.308  0.2786 -0.4050 -0.4203
   56CHL1  H11A 4105   3.725  -0.008   7.305  0.0115 -1.2234 -0.2101
   56CHL1  H11B 4106   3.571  -0.042   7.237 -3.3084  1.1701  0.3072
   56CHL1    C9 4107   3.617   0.176   7.260  0.0667  0.6679 -0.0642
   56CHL1    H9 4108   3.508   0.200   7.254 -0.1485 -0.5222 -1.4872
   56CHL1   C10 4109   3.678   0.207   7.120 -0.0141 -0.0887 -0.4295
   56CHL1   C19 4110   3.827   0.164   7.119 -0.2912 -0.0750 -0.3796
   56CHL1  H19A 4111   3.884   0.196   7.209 -0.2980  0.7090 -0.6465
   56CHL1  H19B 4112   3.839   0.054   7.109 -0.5472 -0.0945 -0.4695
   56CHL1  H19C 4113   3.868   0.198   7.022 -1.8530 -2.8433 -2.1305
   56CHL1    C1 4114   3.599   0.117   7.019  0.2865 -0.2159 -0.1223
   56CHL1   H1A 4115   3.623   0.009   7.026  0.3727 -0.2811 -1.2877
   56CHL1   H1B 4116   3.494   0.125   7.054  0.0142 -1.9609 -0.4534
   56CHL1    C2 4117   3.617   0.170   6.877  0.0266  0.1394  0.0299
   56CHL1   H2A 4118   3.547   0.118   6.808 -0.3130  1.2890 -0.5280
   56CHL1   H2B 4119   3.715   0.141   6.834 -0.5007  0.3224 -1.3693
   56CHL1   C20 4120   3.566   0.008   7.796  0.0575 -0.6482 -0.1370
   56CHL1   H20 4121   3.675  -0.003   7.813  0.2411  1.5488  0.4285
   56CHL1   C21 4122   3.495  -0.116   7.740 -0.5015 -0.6624 -0.5355
   56CHL1  H21A 4123   3.407  -0.089   7.677  1.0475  0.7885 -2.1944
   56CHL1  H21B 4124   3.456  -0.183   7.820 -0.7014  0.5003  0.3678
   56CHL1  H21C 4125   3.560  -0.177   7.673 -2.3671 -0.4203 -2.7076
   56CHL1   C22 4126   3.524   0.057   7.941 -0.1273  0.7019 -0.2124
   56CHL1  H22A 4127   3.540  -0.024   8.016  0.8291  1.4493  0.4113
   56CHL1  H22B 4128   3.593   0.140   7.970 -0.1626  1.3679 -1.9515
   56CHL1   C23 4129   3.378   0.095   7.948  0.4746 -0.4813 -0.0302
   56CHL1  H23A 4130   3.347   0.177   7.879  1.2784  0.9178  1.2060
   56CHL1  H23B 4131   3.308   0.010   7.935  1.6042 -1.4667  0.2117
   56CHL1   C24 4132   3.339   0.155   8.080  0.3414  0.0592  0.0839
   56CHL1  H24A 4133   3.408   0.236   8.112  1.4005 -0.5445 -0.6224
   56CHL1  H24B 4134   3.244   0.212   8.068  2.0032  2.5953 -2.1707
   56CHL1   C25 4135   3.327   0.055   8.201 -0.6940 -0.3017  0.3947
   56CHL1   H25 4136   3.423  -0.001   8.210 -0.3516  0.2636  0.2977
   56CHL1   C26 4137   3.330   0.141   8.323 -0.4114  0.0701 -0.4539
   56CHL1  H26A 4138   3.244   0.211   8.328 -0.1046  0.4103  0.1602
   56CHL1  H26B 4139   3.419   0.207   8.333 -0.8234  0.3167  2.1984
   56CHL1  H26C 4140   3.340   0.069   8.407 -1.1047 -1.1297 -1.3788
   56CHL1   C27 4141   3.208  -0.042   8.193  0.0073 -0.1136  0.3100
   56CHL1  H27A 4142   3.214  -0.091   8.094 -1.3330 -1.4728  0.8506
   56CHL1  H27B 4143   3.207  -0.115   8.277 -0.4795 -1.5351 -0.8821
   56CHL1  H27C 4144   3.116   0.020   8.187  1.5681  2.2279 -5.2267
   57SAPC     N 4145   4.893   2.939  11.001  0.4616 -0.7699  0.0054
   57SAPC   C12 4146   4.961   2.798  11.011  0.7397 -0.3410 -0.1946
   57SAPC  H12A 4147   4.880   2.728  11.020 -0.3478  0.5185 -2.4051
   57SAPC  H12B 4148   5.015   2.788  11.104 -0.8822  1.9256  1.0814
   57SAPC   C13 4149   4.814   2.956  10.872 -0.5839 -0.7799  0.7982
   57SAPC  H13A 4150   4.750   2.872  10.851 -3.1142  1.3650 -0.6865
   57SAPC  H13B 4151   4.750   3.043  10.879 -2.0591 -1.8433  1.0417
   57SAPC  H13C 4152   4.882   2.980  10.792 -1.9646 -0.2869 -0.2897
   57SAPC   C14 4153   4.798   2.955  11.112 -0.1867  0.1991 -0.0290
   57SAPC  H14A 4154   4.726   2.874  11.104 -0.2112  0.2265 -0.0891
   57SAPC  H14B 4155   4.851   2.963  11.205  0.9524 -0.2800 -0.6209
   57SAPC  H14C 4156   4.736   3.043  11.100  0.5079  0.5522 -1.2053
   57SAPC   C15 4157   4.989   3.040  11.007 -0.3884  0.7406 -1.1220
   57SAPC  H15A 4158   4.946   3.139  10.997  0.2694  0.9742 -1.6891
   57SAPC  H15B 4159   5.026   3.033  11.108 -2.0045  0.7043 -0.4942
   57SAPC  H15C 4160   5.066   3.021  10.934 -1.2811 -2.4570 -1.3909
   57SAPC   C11 4161   5.068   2.763  10.903  0.2008  0.1702  0.3188
   57SAPC  H11A 4162   5.019   2.786  10.806  1.1643  0.9104 -0.0079
   57SAPC  H11B 4163   5.101   2.657  10.914  0.7418  0.2068 -0.8519
   57SAPC     P 4164   5.276   2.889  10.808 -0.3385  0.0332  0.0922
   57SAPC   O13 4165   5.296   3.033  10.803 -0.8929  0.2160 -0.0685
   57SAPC   O14 4166   5.398   2.806  10.826  0.1049 -0.3568 -0.0030
   57SAPC   O12 4167   5.183   2.853  10.928 -0.0588  0.7579  0.5025
   57SAPC   O11 4168   5.200   2.861  10.674  0.1972  0.3208  0.2547
   57SAPC    C1 4169   5.263   2.764  10.578  0.2916  0.2018 -0.2450
   57SAPC    HA 4170   5.352   2.815  10.535 -0.0369  0.3013 -0.8286
   57SAPC    HB 4171   5.306   2.676  10.629  0.8569 -0.3164 -1.5571
   57SAPC    C2 4172   5.164   2.722  10.465 -0.3388  0.0148  0.9807
   57SAPC    HS 4173   5.213   2.644  10.403  1.3300  0.2408  1.9615
   57SAPC   O21 4174   5.138   2.835  10.384  0.2019 -0.0640 -0.0271
   57SAPC   C21 4175   5.233   2.864  10.297  0.0991 -0.2561 -0.5601
   57SAPC   O22 4176   5.344   2.809  10.286  0.5310  0.9169  0.1773
   57SAPC   C22 4177   5.170   2.966  10.206  0.3738 -0.1898  0.4837
   57SAPC   H2R 4178   5.059   2.956  10.203  0.4727 -1.2863 -0.0113
   57SAPC   H2S 4179   5.200   3.065  10.245 -0.6865  0.4846 -0.3500
   57SAPC    C3 4180   5.032   2.653  10.500  0.0329  0.0305 -1.0346
   57SAPC    HX 4181   4.970   2.739  10.533  1.4460  0.2562  1.2137
   57SAPC    HY 4182   5.047   2.585  10.586 -1.4907 -1.1282 -1.6400
   57SAPC   O31 4183   4.974   2.576  10.389  0.1039 -0.4737 -0.0442
   57SAPC   C31 4184   4.888   2.639  10.308 -0.8087 -0.0059  0.0214
   57SAPC   O32 4185   4.837   2.749  10.327 -0.2174  0.5191  0.4513
   57SAPC   C32 4186   4.861   2.558  10.188 -0.5446  0.9589  0.1564
   57SAPC   H2X 4187   4.783   2.484  10.217  0.5286  0.0204  0.7531
   57SAPC   H2Y 4188   4.941   2.485  10.162  0.4378  1.6774  1.0699
   57SAPC   C23 4189   5.209   2.951  10.055  0.9673  0.7285  0.1855
   57SAPC   H3R 4190   5.129   3.003   9.999  1.3668  0.7801 -0.3478
   57SAPC   H3S 4191   5.205   2.842  10.038  2.3453  0.6341  0.3150
   57SAPC   C24 4192   5.351   2.998  10.026  0.5688  0.3777  0.4091
   57SAPC   H4R 4193   5.422   2.917  10.055 -1.7846 -1.6900  0.7683
   57SAPC   H4S 4194   5.366   3.078  10.101  1.6122 -1.5385  2.3765
   57SAPC   C25 4195   5.366   3.043   9.877  0.1875  0.1501 -0.2993
   57SAPC   H5R 4196   5.381   3.150   9.853 -0.4100 -0.0784 -1.8482
   57SAPC   C26 4197   5.357   2.965   9.772 -0.3070 -0.4143 -0.1958
   57SAPC   H6R 4198   5.373   3.002   9.670 -1.2364 -2.0497 -0.9825
   57SAPC   C27 4199   5.342   2.816   9.779 -0.2650 -0.1025 -0.5701
   57SAPC   H7R 4200   5.317   2.779   9.881  2.5012 -2.0301 -0.4754
   57SAPC   H7S 4201   5.442   2.770   9.764 -0.7417 -1.4202  0.0846
   57SAPC   C28 4202   5.229   2.781   9.679 -0.2333  0.1948 -0.0920
   57SAPC   H8R 4203   5.129   2.778   9.724 -0.7248  0.1750 -1.1578
   57SAPC   C29 4204   5.246   2.751   9.554  0.0441 -0.0562  0.4366
   57SAPC   H9R 4205   5.156   2.728   9.494  0.3877  2.6174 -1.2935
   57SAPC  C210 4206   5.376   2.742   9.479 -0.9440  0.2258  0.3840
   57SAPC  H10R 4207   5.426   2.644   9.495  0.0508  0.5241 -0.7304
   57SAPC  H10S 4208   5.456   2.805   9.524 -0.7703 -0.7351  1.4699
   57SAPC  C211 4209   5.353   2.763   9.325 -0.5274 -0.0854  0.0961
   57SAPC  H11R 4210   5.387   2.859   9.283 -1.9077  0.5273  0.3123
   57SAPC  C212 4211   5.297   2.667   9.243  0.2580 -0.8342 -0.2752
   57SAPC  H12R 4212   5.278   2.700   9.140  0.7129  0.6336  0.0818
   57SAPC  C213 4213   5.233   2.536   9.275 -0.6071 -0.2887 -0.3562
   57SAPC  H13R 4214   5.165   2.513   9.191  0.0491 -2.7851 -0.2912
   57SAPC  H13S 4215   5.165   2.548   9.362 -0.0286  1.5420 -0.1090
   57SAPC  C214 4216   5.331   2.417   9.282 -0.7440 -1.6414 -0.0850
   57SAPC  H14R 4217   5.388   2.394   9.191  0.1590 -0.2834  0.1065
   57SAPC  C215 4218   5.348   2.331   9.390  0.0410  0.0891  0.4623
   57SAPC  H15R 4219   5.428   2.255   9.383  0.0104  0.1293 -0.3763
   57SAPC  C216 4220   5.276   2.323   9.527 -0.1735 -0.3687 -0.3517
   57SAPC  H16R 4221   5.246   2.218   9.549  2.6329 -0.5094  3.9897
   57SAPC  H16S 4222   5.185   2.386   9.537 -1.2149 -2.0722  2.1310
   57SAPC  C217 4223   5.371   2.372   9.641  0.2166  0.9411 -1.1784
   57SAPC  H17R 4224   5.401   2.478   9.623 -2.5878  2.0954  0.2599
   57SAPC  H17S 4225   5.470   2.321   9.644  1.0373  2.5174  0.3974
   57SAPC  C218 4226   5.304   2.363   9.783 -0.0291  0.0356 -0.2043
   57SAPC  H18R 4227   5.284   2.255   9.799  3.0509 -0.6608 -0.3271
   57SAPC  H18S 4228   5.220   2.433   9.766 -0.6059 -0.1492  1.7312
   57SAPC  C219 4229   5.386   2.405   9.909 -0.4909 -0.9420 -0.3270
   57SAPC  H19R 4230   5.434   2.504   9.894 -0.0934 -0.7326  1.9727
   57SAPC  H19S 4231   5.461   2.325   9.928 -0.0855 -0.5237 -0.1468
   57SAPC  C220 4232   5.308   2.417  10.042 -0.0704 -0.0593  0.6497
   57SAPC  H20R 4233   5.257   2.321  10.063  0.3692 -0.4992 -0.2253
   57SAPC  H20S 4234   5.231   2.497  10.040 -1.3611 -1.2560  1.0500
   57SAPC  H20T 4235   5.383   2.442  10.119  0.0522  1.7893 -0.0145
   57SAPC   C33 4236   4.825   2.645  10.065  0.4096  0.3474 -0.1366
   57SAPC   H3X 4237   4.884   2.739  10.063  0.4583  0.3777  1.4092
   57SAPC   H3Y 4238   4.721   2.680  10.083  0.4700 -0.9784  3.6365
   57SAPC   C34 4239   4.836   2.557   9.944  0.8613  0.1676  0.0040
   57SAPC   H4X 4240   4.752   2.483   9.942  0.1369  0.8446  2.3225
   57SAPC   H4Y 4241   4.931   2.501   9.939  1.9194  1.9711 -0.9758
   57SAPC   C35 4242   4.815   2.647   9.822 -0.6401 -0.2203 -0.2492
   57SAPC   H5X 4243   4.900   2.716   9.811 -1.5991  0.8279 -1.3367
   57SAPC   H5Y 4244   4.720   2.703   9.810  0.3761  1.1773 -2.3637
   57SAPC   C36 4245   4.810   2.568   9.691 -0.4475 -0.8087 -0.3540
   57SAPC   H6X 4246   4.728   2.495   9.704  0.6738 -1.8252  1.3286
   57SAPC   H6Y 4247   4.904   2.512   9.675  1.1502  0.8730  2.4200
   57SAPC   C37 4248   4.780   2.651   9.573 -0.1148 -0.2273 -0.5143
   57SAPC   H7X 4249   4.865   2.719   9.555  0.0008 -1.0213 -3.5357
   57SAPC   H7Y 4250   4.687   2.711   9.586 -1.1045 -1.6435 -0.7111
   57SAPC   C38 4251   4.758   2.574   9.443 -0.5702  0.2986 -0.0405
   57SAPC   H8X 4252   4.746   2.467   9.471  0.9784 -0.0236 -0.4849
   57SAPC   H8Y 4253   4.852   2.579   9.384  0.2938  1.2931  1.3482
   57SAPC   C39 4254   4.640   2.647   9.363 -0.1714 -0.1819  0.2843
   57SAPC   H9X 4255   4.555   2.665   9.433  1.7337 -0.3415  2.7766
   57SAPC   H9Y 4256   4.598   2.588   9.278  0.8234  1.3705 -1.3686
   57SAPC  C310 4257   4.680   2.782   9.299  0.0220 -0.3537 -0.2147
   57SAPC  H10X 4258   4.711   2.854   9.377 -3.1694  1.5810 -0.5476
   57SAPC  H10Y 4259   4.592   2.822   9.245  0.3320  0.3735 -0.1845
   57SAPC  C311 4260   4.794   2.759   9.203 -0.3007 -0.3893  0.3004
   57SAPC  H11X 4261   4.763   2.674   9.138 -1.9208  0.3007  0.1468
   57SAPC  H11Y 4262   4.883   2.726   9.261 -0.1106  0.2556  0.3859
   57SAPC  C312 4263   4.833   2.882   9.123 -0.9960 -0.1233  0.1264
   57SAPC  H12X 4264   4.861   2.969   9.186  0.0390 -1.0193  0.9380
   57SAPC  H12Y 4265   4.744   2.902   9.060 -1.1948 -1.3357 -0.0138
   57SAPC  C313 4266   4.944   2.852   9.017  0.0164  0.2315 -0.5816
   57SAPC  H13X 4267   4.938   2.745   8.988  2.5664 -0.9162  2.5385
   57SAPC  H13Y 4268   5.044   2.855   9.065 -0.9356 -2.3728  1.8545
   57SAPC  C314 4269   4.926   2.940   8.900 -0.5178 -0.0690  0.9228
   57SAPC  H14X 4270   4.822   2.917   8.868  0.3372  0.1247 -2.3287
   57SAPC  H14Y 4271   4.995   2.910   8.818 -0.3250  2.4377  0.0779
   57SAPC  C315 4272   4.956   3.086   8.929  0.0084 -0.0844 -0.6481
   57SAPC  H15X 4273   5.064   3.092   8.954 -0.3144 -0.1519  0.8502
   57SAPC  H15Y 4274   4.888   3.122   9.008  0.6804 -2.0253  0.9084
   57SAPC  C316 4275   4.926   3.191   8.816  0.2061  0.6218 -0.1706
   57SAPC  H16X 4276   4.933   3.295   8.854 -0.6258  1.4601 -2.1737
   57SAPC  H16Y 4277   4.820   3.177   8.785  0.4676 -1.0211 -0.4095
   57SAPC  C317 4278   5.019   3.184   8.685  0.4671  0.0183 -0.1107
   57SAPC  H17X 4279   4.995   3.277   8.631 -1.5911  0.1091  0.8728
   57SAPC  H17Y 4280   4.981   3.095   8.630 -0.4960  0.0985  0.4100
   57SAPC  C318 4281   5.166   3.174   8.722  0.4381  0.5955 -0.2594
   57SAPC  H18X 4282   5.182   3.088   8.791  1.9086  1.8574  1.0450
   57SAPC  H18Y 4283   5.200   3.266   8.773  1.8785 -0.3071  0.4824
   57SAPC  H18Z 4284   5.225   3.150   8.631 -0.6443 -0.9483 -0.6099
   58SAPC     N 4285   2.279   2.049  10.754  0.8556 -0.8786 -0.2992
   58SAPC   C12 4286   2.224   2.185  10.792 -0.6049  0.7701  0.3090
   58SAPC  H12A 4287   2.293   2.266  10.772 -0.9775  0.7628 -1.0944
   58SAPC  H12B 4288   2.230   2.195  10.899  0.2536 -2.1209  0.6051
   58SAPC   C13 4289   2.256   2.020  10.613 -0.3066  0.0110  0.2817
   58SAPC  H13A 4290   2.337   2.067  10.560 -0.4928  3.3506  2.6878
   58SAPC  H13B 4291   2.265   1.916  10.586  2.7255  0.4387 -0.6958
   58SAPC  H13C 4292   2.161   2.057  10.576 -1.0859  1.8289  3.6719
   58SAPC   C14 4293   2.426   2.062  10.787 -0.1415  0.6657  0.6835
   58SAPC  H14A 4294   2.474   1.965  10.787  2.1153  1.7364  0.4413
   58SAPC  H14B 4295   2.481   2.122  10.717  1.3738  0.5589  1.7382
   58SAPC  H14C 4296   2.431   2.094  10.890 -1.7208 -2.3756  1.8525
   58SAPC   C15 4297   2.206   1.954  10.836  0.4175  1.0268 -0.0560
   58SAPC  H15A 4298   2.224   1.852  10.803 -0.7313  1.0997 -0.9751
   58SAPC  H15B 4299   2.229   1.961  10.941  0.4285 -0.0028  0.0221
   58SAPC  H15C 4300   2.099   1.965  10.827  0.4527  2.1067  0.7693
   58SAPC   C11 4301   2.075   2.237  10.753 -0.7865  0.6445  0.1197
   58SAPC  H11A 4302   2.065   2.225  10.643 -3.9345  1.5733  0.2129
   58SAPC  H11B 4303   2.065   2.346  10.776  0.8249  1.1713 -1.4652
   58SAPC     P 4304   1.845   2.124  10.751 -0.1863 -0.2282 -0.3943
   58SAPC   O13 4305   1.858   2.014  10.653  0.1343 -0.1411  0.1984
   58SAPC   O14 4306   1.745   2.106  10.856 -0.4491 -0.5165  0.0412
   58SAPC   O12 4307   1.979   2.159  10.820 -0.6853 -0.3065  0.2254
   58SAPC   O11 4308   1.816   2.263  10.675  0.6600  0.5215  0.5406
   58SAPC    C1 4309   1.692   2.283  10.610 -0.2427  0.3328 -0.9672
   58SAPC    HA 4310   1.615   2.216  10.653  0.4519 -0.0259 -0.2557
   58SAPC    HB 4311   1.653   2.385  10.627 -1.6524 -0.3910  0.3587
   58SAPC    C2 4312   1.719   2.263  10.460 -0.0123 -0.1463  1.1611
   58SAPC    HS 4313   1.767   2.164  10.447 -0.3603 -0.1563 -0.1796
   58SAPC   O21 4314   1.794   2.378  10.420  0.2641  0.3382  0.2495
   58SAPC   C21 4315   1.884   2.349  10.322  1.0368  0.2648 -0.6904
   58SAPC   O22 4316   1.914   2.235  10.291 -0.2917 -0.1015  0.7291
   58SAPC   C22 4317   1.959   2.478  10.296 -1.4394  0.4549  0.0038
   58SAPC   H2R 4318   1.903   2.565  10.335 -2.2862  0.2756 -0.7848
   58SAPC   H2S 4319   2.043   2.470  10.369 -3.3869 -1.3879  2.2039
   58SAPC    C3 4320   1.585   2.257  10.382 -0.3109 -0.4498 -0.6866
   58SAPC    HX 4321   1.528   2.352  10.388  1.4722  0.8863 -3.1904
   58SAPC    HY 4322   1.520   2.179  10.429 -0.0380  0.4704  1.3183
   58SAPC   O31 4323   1.612   2.237  10.241 -0.3046  0.3973  0.1384
   58SAPC   C31 4324   1.636   2.110  10.206 -0.3652  0.3706 -0.0998
   58SAPC   O32 4325   1.623   2.013  10.279 -0.4167  0.3863 -0.0957
   58SAPC   C32 4326   1.679   2.104  10.058 -0.2657  0.9187  0.0848
   58SAPC   H2X 4327   1.789   2.118  10.051  0.0301 -1.4768 -0.9222
   58SAPC   H2Y 4328   1.616   2.171   9.996  0.7519  2.2469  0.4296
   58SAPC   C23 4329   2.002   2.484  10.152  0.8464 -0.7301 -0.6185
   58SAPC   H3R 4330   2.026   2.381  10.117 -0.2573 -1.2226 -0.0046
   58SAPC   H3S 4331   2.096   2.542  10.144  0.7055 -0.3802  0.1407
   58SAPC   C24 4332   1.899   2.545  10.055  0.2007 -0.3450  0.2470
   58SAPC   H4R 4333   1.948   2.605   9.976 -0.2817 -0.3905 -0.0921
   58SAPC   H4S 4334   1.848   2.624  10.114 -1.2360 -0.5130 -0.7147
   58SAPC   C25 4335   1.793   2.459  10.002  0.5117  0.1981  0.1488
   58SAPC   H5R 4336   1.710   2.442  10.072 -0.0299  1.8330 -0.0459
   58SAPC   C26 4337   1.812   2.384   9.895  0.4461  0.9884  0.3073
   58SAPC   H6R 4338   1.735   2.314   9.859  0.9000  0.9595 -0.6491
   58SAPC   C27 4339   1.935   2.377   9.816 -0.8718 -0.0843  0.8201
   58SAPC   H7R 4340   2.030   2.396   9.869  0.2960  2.3924 -1.8828
   58SAPC   H7S 4341   1.928   2.453   9.735  1.5670  0.5617  1.1281
   58SAPC   C28 4342   1.963   2.241   9.747 -0.0256 -0.6747 -0.5217
   58SAPC   H8R 4343   2.001   2.166   9.818  2.4062 -0.3616 -1.3958
   58SAPC   C29 4344   1.940   2.205   9.620 -0.0674 -0.0755  1.2235
   58SAPC   H9R 4345   1.952   2.098   9.595 -1.4175  0.2214 -0.8857
   58SAPC  C210 4346   1.868   2.282   9.515  0.2579 -0.7698  0.3810
   58SAPC  H10R 4347   1.798   2.349   9.569  0.4763 -0.0634 -0.1946
   58SAPC  H10S 4348   1.808   2.202   9.468  0.2650  0.0038 -0.9863
   58SAPC  C211 4349   1.953   2.364   9.426 -0.3433 -0.1193  0.2007
   58SAPC  H11R 4350   2.035   2.416   9.477 -0.1430  0.9178 -1.0994
   58SAPC  C212 4351   1.950   2.373   9.291 -0.1532  0.3743 -0.1594
   58SAPC  H12R 4352   2.032   2.431   9.246  2.1273 -0.0908  3.0533
   58SAPC  C213 4353   1.863   2.288   9.197 -0.4093 -0.5259  0.8532
   58SAPC  H13R 4354   1.819   2.362   9.126 -0.0054  0.1404  1.2849
   58SAPC  H13S 4355   1.783   2.241   9.259  0.7086  0.5194  3.2185
   58SAPC  C214 4356   1.946   2.176   9.128 -0.0832  0.4448  0.1273
   58SAPC  H14R 4357   2.023   2.132   9.193 -0.8966 -1.7659 -0.3293
   58SAPC  C215 4358   1.931   2.129   9.002 -0.3183 -0.1259  0.3074
   58SAPC  H15R 4359   1.984   2.042   8.962  1.6197  1.4273 -0.6809
   58SAPC  C216 4360   1.826   2.176   8.920  0.8061 -0.5948  0.5911
   58SAPC  H16R 4361   1.772   2.264   8.963 -0.4484  0.3697 -2.7003
   58SAPC  H16S 4362   1.750   2.096   8.920 -0.4885  0.4609  3.7039
   58SAPC  C217 4363   1.868   2.211   8.776 -0.3804  0.6205 -0.6010
   58SAPC  H17R 4364   1.774   2.219   8.718  0.1708 -0.9425 -1.7770
   58SAPC  H17S 4365   1.926   2.124   8.739  0.5689  0.2417  1.5998
   58SAPC  C218 4366   1.966   2.332   8.772  0.4685 -0.2300  0.1079
   58SAPC  H18R 4367   2.036   2.326   8.686 -0.0779  1.7284 -0.5241
   58SAPC  H18S 4368   2.046   2.327   8.849  0.9837 -1.4861 -0.4682
   58SAPC  C219 4369   1.901   2.473   8.753  0.4278 -0.0720 -0.0830
   58SAPC  H19R 4370   1.967   2.555   8.789  0.8386 -0.6221  0.4257
   58SAPC  H19S 4371   1.810   2.471   8.816 -0.8386  1.2631 -1.7756
   58SAPC  C220 4372   1.857   2.498   8.611 -0.2979  0.3229  0.3165
   58SAPC  H20R 4373   1.807   2.594   8.589  1.1654  1.3510  1.2577
   58SAPC  H20S 4374   1.798   2.416   8.565  0.8506  0.6415 -1.8699
   58SAPC  H20T 4375   1.940   2.489   8.537 -2.3887  2.9069 -2.5767
   58SAPC   C33 4376   1.669   1.965  10.006 -0.2585  0.8957 -0.5966
   58SAPC   H3X 4377   1.560   1.944  10.011 -0.0734 -0.3109 -1.2841
   58SAPC   H3Y 4378   1.724   1.889  10.066  1.5803  1.6080 -1.2932
   58SAPC   C34 4379   1.725   1.948   9.866 -0.5766  0.3173 -0.7709
   58SAPC   H4X 4380   1.731   1.837   9.855 -0.9936  0.1647  0.3768
   58SAPC   H4Y 4381   1.825   1.994   9.848  0.4596 -2.0350 -1.4286
   58SAPC   C35 4382   1.622   2.001   9.765  0.1182  0.4325  0.7686
   58SAPC   H5X 4383   1.618   2.112   9.775  1.8707  0.3751  2.5943
   58SAPC   H5Y 4384   1.518   1.973   9.792 -0.7856  3.3403  0.6849
   58SAPC   C36 4385   1.644   1.947   9.625  0.2257 -0.0930  0.1753
   58SAPC   H6X 4386   1.617   1.839   9.623  0.5351 -0.1731 -1.6300
   58SAPC   H6Y 4387   1.752   1.940   9.602  0.4158 -1.6514  1.4463
   58SAPC   C37 4388   1.556   2.008   9.513  0.0307 -0.2112 -0.2894
   58SAPC   H7X 4389   1.560   2.119   9.508 -0.0613 -0.1758  0.3509
   58SAPC   H7Y 4390   1.449   1.990   9.537  0.1866 -0.0226  0.5768
   58SAPC   C38 4391   1.584   1.952   9.377 -0.1959  0.4055 -0.8288
   58SAPC   H8X 4392   1.574   1.842   9.381  2.1818  0.1357 -0.7703
   58SAPC   H8Y 4393   1.691   1.974   9.354 -0.7666  1.9395 -2.2521
   58SAPC   C39 4394   1.505   2.008   9.261  0.5975 -0.4096 -0.0771
   58SAPC   H9X 4395   1.533   2.116   9.261 -0.6165 -0.0802 -0.3979
   58SAPC   H9Y 4396   1.395   2.005   9.278  0.0319  2.1165 -2.4976
   58SAPC  C310 4397   1.536   1.957   9.118  0.3811 -0.0374 -0.3582
   58SAPC  H10X 4398   1.523   1.847   9.111  0.0708 -0.0017 -0.3669
   58SAPC  H10Y 4399   1.641   1.982   9.091  0.8978  4.1327  4.2298
   58SAPC  C311 4400   1.438   2.012   9.015 -0.0852  0.0331  0.2680
   58SAPC  H11X 4401   1.449   2.121   8.996  1.1483 -0.1372 -0.1008
   58SAPC  H11Y 4402   1.339   1.987   9.058 -0.5196  1.2945  0.0476
   58SAPC  C312 4403   1.457   1.955   8.872  0.5664  0.6412  0.4708
   58SAPC  H12X 4404   1.476   1.847   8.888 -2.2320  0.0124  0.1320
   58SAPC  H12Y 4405   1.537   2.015   8.823  0.8669 -0.7639 -0.8326
   58SAPC  C313 4406   1.328   1.977   8.784  0.2658 -0.9420 -0.0167
   58SAPC  H13X 4407   1.246   1.917   8.830  0.8127 -4.2076 -2.8894
   58SAPC  H13Y 4408   1.339   1.938   8.680 -1.5786 -0.0818 -0.5796
   58SAPC  C314 4409   1.273   2.121   8.763  0.0785  0.0391 -0.0930
   58SAPC  H14X 4410   1.355   2.162   8.701 -0.2368 -2.2824 -2.2194
   58SAPC  H14Y 4411   1.267   2.159   8.867  0.5603 -1.1390  0.3844
   58SAPC  C315 4412   1.136   2.130   8.697 -1.0326  0.4625  0.4506
   58SAPC  H15X 4413   1.145   2.088   8.595 -2.2262 -1.3663  1.0533
   58SAPC  H15Y 4414   1.123   2.240   8.685 -1.2058  0.3006 -0.9178
   58SAPC  C316 4415   1.013   2.069   8.768 -0.1371 -0.4048  0.1731
   58SAPC  H16X 4416   0.977   2.114   8.862 -1.7672  0.0855 -0.6421
   58SAPC  H16Y 4417   1.026   1.958   8.773  1.2044 -0.2890 -0.4652
   58SAPC  C317 4418   0.886   2.088   8.686 -0.5397 -0.7120 -0.6978
   58SAPC  H17X 4419   0.895   2.018   8.600 -0.7004 -2.2705  0.5225
   58SAPC  H17Y 4420   0.879   2.186   8.635 -1.8167 -0.5868 -0.3095
   58SAPC  C318 4421   0.766   2.048   8.773 -0.2377  0.1731 -0.2713
   58SAPC  H18X 4422   0.671   2.086   8.728 -0.4119 -1.2018 -1.1168
   58SAPC  H18Y 4423   0.775   2.091   8.875 -1.3804 -1.9389  0.7837
   58SAPC  H18Z 4424   0.753   1.938   8.781 -1.2311  0.1606 -1.5889
   59SAPC     N 4425   1.605   2.730  11.257 -0.6110  0.8773  0.1259
   59SAPC   C12 4426   1.701   2.722  11.138  0.1195 -0.6313 -0.1595
   59SAPC  H12A 4427   1.678   2.622  11.105  0.5106 -0.5541 -0.6724
   59SAPC  H12B 4428   1.804   2.715  11.170 -0.2977 -0.9430  1.1992
   59SAPC   C13 4429   1.655   2.830  11.346  0.1406 -0.1108  0.0709
   59SAPC  H13A 4430   1.762   2.818  11.351  0.1512 -0.6152 -1.0510
   59SAPC  H13B 4431   1.635   2.927  11.303  0.8309  0.1995  0.4372
   59SAPC  H13C 4432   1.616   2.830  11.447 -1.4318  1.9753 -0.4586
   59SAPC   C14 4433   1.461   2.763  11.225  0.0917 -0.4183 -0.8250
   59SAPC  H14A 4434   1.415   2.785  11.320  1.4162  2.3858 -0.7276
   59SAPC  H14B 4435   1.448   2.861  11.181  1.4234  2.4103  4.1937
   59SAPC  H14C 4436   1.420   2.680  11.170 -1.0038  0.2079 -0.9614
   59SAPC   C15 4437   1.601   2.608  11.343 -0.3460 -0.7709  0.2423
   59SAPC  H15A 4438   1.531   2.627  11.423  2.5499  0.0995  2.7423
   59SAPC  H15B 4439   1.569   2.528  11.278  0.2021 -0.4414 -0.4475
   59SAPC  H15C 4440   1.700   2.589  11.382  0.3429 -0.1556 -1.1154
   59SAPC   C11 4441   1.705   2.844  11.041  0.1065 -0.0494  0.2294
   59SAPC  H11A 4442   1.616   2.879  10.984  0.6464  0.6490 -0.2169
   59SAPC  H11B 4443   1.757   2.823  10.945 -1.0058  0.7667 -0.5747
   59SAPC     P 4444   1.915   2.979  11.114 -0.3407 -0.2024  0.1277
   59SAPC   O13 4445   1.943   3.118  11.073 -0.0150  0.5720  0.1846
   59SAPC   O14 4446   1.970   2.936  11.245  0.8792 -0.1360  0.2749
   59SAPC   O12 4447   1.760   2.956  11.111 -0.4953  0.2218  0.4019
   59SAPC   O11 4448   1.973   2.885  11.008  0.4403  0.7226  0.1878
   59SAPC    C1 4449   2.023   2.937  10.886  0.5783  0.2045  0.5715
   59SAPC    HA 4450   2.083   3.028  10.906 -1.9049  2.0079  0.2373
   59SAPC    HB 4451   2.089   2.860  10.840  1.4730  1.0151  0.4543
   59SAPC    C2 4452   1.909   2.973  10.789 -0.3979 -0.7153  0.6783
   59SAPC    HS 4453   1.837   3.043  10.835 -1.2883 -0.3501 -1.1607
   59SAPC   O21 4454   1.845   2.850  10.741  0.0769 -0.4343 -0.3684
   59SAPC   C21 4455   1.725   2.875  10.688  0.0169 -0.3441  0.5292
   59SAPC   O22 4456   1.661   2.982  10.698 -0.1523  1.1153 -0.1279
   59SAPC   C22 4457   1.683   2.753  10.607  0.4959  0.4927 -0.3627
   59SAPC   H2R 4458   1.767   2.713  10.547  0.0309 -1.0821 -0.0026
   59SAPC   H2S 4459   1.656   2.681  10.687  3.0418  0.2417  0.3356
   59SAPC    C3 4460   1.982   3.035  10.670  0.1870 -0.2354  0.4386
   59SAPC    HX 4461   2.037   3.123  10.711 -0.4453  0.0951  0.5977
   59SAPC    HY 4462   1.913   3.077  10.593  0.8390 -0.7076 -0.4222
   59SAPC   O31 4463   2.076   2.942  10.614  0.2462  0.7636 -0.0847
   59SAPC   C31 4464   2.035   2.885  10.498 -0.2467 -0.4045  0.1381
   59SAPC   O32 4465   1.927   2.904  10.442 -0.0868 -0.1341 -0.8887
   59SAPC   C32 4466   2.158   2.806  10.446  0.3130  0.2699 -0.1437
   59SAPC   H2X 4467   2.150   2.699  10.477  1.6362 -0.5735 -2.4332
   59SAPC   H2Y 4468   2.257   2.848  10.476 -0.7522  3.1634 -0.3949
   59SAPC   C23 4469   1.560   2.793  10.520 -0.4911  0.1146  0.8811
   59SAPC   H3R 4470   1.569   2.891  10.470 -0.2631  0.6884  2.0198
   59SAPC   H3S 4471   1.467   2.802  10.581 -0.4977  0.3080  0.8428
   59SAPC   C24 4472   1.529   2.692  10.407 -0.0856 -0.1770 -0.4464
   59SAPC   H4R 4473   1.526   2.588  10.447 -0.8294 -0.0888 -0.2449
   59SAPC   H4S 4474   1.618   2.711  10.343  0.1069 -1.2507 -0.5119
   59SAPC   C25 4475   1.399   2.717  10.339  0.7891  0.1084  0.0926
   59SAPC   H5R 4476   1.320   2.770  10.394  1.5562  0.4477  0.8799
   59SAPC   C26 4477   1.373   2.693  10.206 -0.0426  0.1985  0.1629
   59SAPC   H6R 4478   1.275   2.708  10.158  1.0207  1.3024 -1.8003
   59SAPC   C27 4479   1.456   2.617  10.104  0.2102  0.5344  0.2037
   59SAPC   H7R 4480   1.560   2.602  10.138 -0.6159 -5.4267  1.1001
   59SAPC   H7S 4481   1.448   2.664  10.003  2.2288 -0.4706 -0.4681
   59SAPC   C28 4482   1.403   2.477  10.104  0.1434  0.5404 -0.1383
   59SAPC   H8R 4483   1.368   2.437  10.201 -0.8750 -1.1501 -1.1393
   59SAPC   C29 4484   1.386   2.393   9.998  1.0345  0.0370  0.2213
   59SAPC   H9R 4485   1.353   2.290  10.014 -2.4191  0.2408 -3.8502
   59SAPC  C210 4486   1.429   2.420   9.852  0.3424 -0.1816 -0.1367
   59SAPC  H10R 4487   1.537   2.395   9.861 -0.2141 -2.4376  0.7318
   59SAPC  H10S 4488   1.401   2.525   9.826 -2.9956 -0.9294  0.0132
   59SAPC  C211 4489   1.379   2.326   9.753  0.7717  0.5381 -0.3621
   59SAPC  H11R 4490   1.337   2.229   9.784  0.2676  0.5730 -0.9230
   59SAPC  C212 4491   1.379   2.341   9.621 -0.7467  0.0455 -0.4731
   59SAPC  H12R 4492   1.364   2.253   9.557  2.2238 -1.2868  0.5022
   59SAPC  C213 4493   1.436   2.462   9.547  0.4384 -0.0270  0.1937
   59SAPC  H13R 4494   1.504   2.512   9.619 -0.6958  0.2855  1.0968
   59SAPC  H13S 4495   1.350   2.530   9.527  0.7347 -0.0732 -1.3646
   59SAPC  C214 4496   1.521   2.426   9.424  0.1460  0.1393  0.5063
   59SAPC  H14R 4497   1.630   2.421   9.439  0.3275 -0.1969 -0.8336
   59SAPC  C215 4498   1.472   2.404   9.297  0.7888  0.0906 -0.0775
   59SAPC  H15R 4499   1.550   2.388   9.222  1.7084 -0.0696  0.8841
   59SAPC  C216 4500   1.328   2.421   9.259 -1.0514 -0.4496  0.2728
   59SAPC  H16R 4501   1.321   2.520   9.208  1.6835  0.1124  0.8344
   59SAPC  H16S 4502   1.259   2.433   9.346  0.5064 -2.0405  1.8084
   59SAPC  C217 4503   1.271   2.301   9.173 -1.1595 -0.6150  0.8808
   59SAPC  H17R 4504   1.267   2.208   9.233 -1.7954 -0.5459  0.9494
   59SAPC  H17S 4505   1.341   2.270   9.092  1.8675  0.5806  2.8343
   59SAPC  C218 4506   1.130   2.318   9.109 -0.2346 -0.6090  0.3593
   59SAPC  H18R 4507   1.062   2.334   9.195  1.4068 -0.4888  1.6795
   59SAPC  H18S 4508   1.100   2.228   9.052  1.4831  0.0476 -1.7137
   59SAPC  C219 4509   1.124   2.430   9.001  0.5425 -0.1989 -0.6447
   59SAPC  H19R 4510   1.211   2.409   8.936  3.1791  0.9468  2.2634
   59SAPC  H19S 4511   1.138   2.529   9.049  0.1557 -1.3381  2.0379
   59SAPC  C220 4512   1.000   2.422   8.914 -0.2471 -0.3082  0.1669
   59SAPC  H20R 4513   0.970   2.322   8.875  0.5983  0.2018 -1.8983
   59SAPC  H20S 4514   1.009   2.487   8.825  1.3981  1.5887  1.6281
   59SAPC  H20T 4515   0.916   2.465   8.972  0.2355  0.6887  0.1460
   59SAPC   C33 4516   2.154   2.793  10.290 -0.4236  0.1028  0.8657
   59SAPC   H3X 4517   2.054   2.767  10.251  0.7838  0.6471 -2.9965
   59SAPC   H3Y 4518   2.227   2.713  10.264  0.1945  0.0054  2.7105
   59SAPC   C34 4519   2.207   2.927  10.231 -0.9176 -0.2640  0.0486
   59SAPC   H4X 4520   2.299   2.950  10.288  1.1187  0.9688 -3.4234
   59SAPC   H4Y 4521   2.130   3.007  10.244  0.0686  0.6482  0.4356
   59SAPC   C35 4522   2.250   2.906  10.088 -0.7888 -0.5020 -0.4774
   59SAPC   H5X 4523   2.338   2.839  10.094  0.0603  0.6446  0.2153
   59SAPC   H5Y 4524   2.292   2.996  10.039 -1.2268 -0.0009  0.0573
   59SAPC   C36 4525   2.149   2.858   9.985 -0.4745 -0.6005 -1.0874
   59SAPC   H6X 4526   2.051   2.908  10.001 -0.7482 -1.3432 -0.2739
   59SAPC   H6Y 4527   2.118   2.752  10.000 -0.3539 -0.6923 -1.4807
   59SAPC   C37 4528   2.201   2.884   9.849  1.0285 -0.7191  0.0621
   59SAPC   H7X 4529   2.296   2.829   9.839  1.6434  0.4362 -0.7302
   59SAPC   H7Y 4530   2.229   2.990   9.833 -0.2250 -0.2682  0.6976
   59SAPC   C38 4531   2.114   2.858   9.723  0.9338  0.8150  0.0876
   59SAPC   H8X 4532   2.038   2.939   9.729  0.8744  0.8512 -0.9297
   59SAPC   H8Y 4533   2.062   2.761   9.740  1.2942  0.7905  1.0845
   59SAPC   C39 4534   2.179   2.852   9.581 -0.1302 -0.6685  0.2696
   59SAPC   H9X 4535   2.264   2.780   9.588  0.1123 -0.3236  0.9604
   59SAPC   H9Y 4536   2.217   2.950   9.546  1.0260 -1.3580 -0.4617
   59SAPC  C310 4537   2.089   2.794   9.467  0.1543  0.3764 -1.0306
   59SAPC  H10X 4538   1.996   2.855   9.465  0.0187  0.3678  1.4033
   59SAPC  H10Y 4539   2.053   2.692   9.494 -1.0881  0.8967 -0.5989
   59SAPC  C311 4540   2.166   2.787   9.339  0.2633  0.4534  0.1646
   59SAPC  H11X 4541   2.240   2.705   9.356 -1.2758 -0.8901  0.6168
   59SAPC  H11Y 4542   2.222   2.883   9.333  1.5414 -0.3112 -0.7992
   59SAPC  C312 4543   2.084   2.754   9.210 -0.4829 -0.1373  0.3360
   59SAPC  H12X 4544   1.993   2.816   9.223  0.1446  0.4456  2.3524
   59SAPC  H12Y 4545   2.060   2.646   9.200 -2.8944  0.3291  0.5194
   59SAPC  C313 4546   2.148   2.802   9.076  0.1771  1.1569 -0.0276
   59SAPC  H13X 4547   2.231   2.729   9.061 -0.8227 -0.1864  0.7416
   59SAPC  H13Y 4548   2.190   2.902   9.098  0.8621  0.6081  1.2516
   59SAPC  C314 4549   2.045   2.815   8.960 -0.1631  0.2494 -0.1597
   59SAPC  H14X 4550   1.978   2.899   8.987  1.4602  1.5690 -0.0831
   59SAPC  H14Y 4551   1.997   2.717   8.942  3.9470 -2.2473  1.0369
   59SAPC  C315 4552   2.115   2.859   8.826 -0.0368 -0.0872 -0.0178
   59SAPC  H15X 4553   2.057   2.830   8.735 -0.0433  0.3218 -0.1431
   59SAPC  H15Y 4554   2.207   2.797   8.817 -0.9430 -1.3307 -1.1800
   59SAPC  C316 4555   2.148   3.010   8.835  0.1740 -0.0007  0.4012
   59SAPC  H16X 4556   2.218   3.031   8.919  2.2939  1.6244 -1.6334
   59SAPC  H16Y 4557   2.056   3.070   8.852 -1.4457 -1.5722 -2.1700
   59SAPC  C317 4558   2.211   3.044   8.707  0.1563 -0.1361 -0.1850
   59SAPC  H17X 4559   2.153   3.008   8.619  0.0487 -0.8556  0.1764
   59SAPC  H17Y 4560   2.310   2.994   8.696  0.5072  0.7868 -1.6473
   59SAPC  C318 4561   2.229   3.198   8.690  0.9036  0.3745 -0.9058
   59SAPC  H18X 4562   2.128   3.238   8.713 -0.0506 -2.7686  1.1419
   59SAPC  H18Y 4563   2.247   3.221   8.583 -0.4840  1.9896 -0.8238
   59SAPC  H18Z 4564   2.306   3.241   8.758 -0.4585 -0.7022  1.4139
   60SAPC     N 4565   3.354   3.528  10.873 -0.2515  0.9185 -0.0381
   60SAPC   C12 4566   3.386   3.462  10.740 -0.1538 -0.0450  0.6481
   60SAPC  H12A 4567   3.490   3.439  10.719 -0.4750 -0.8738 -0.0767
   60SAPC  H12B 4568   3.370   3.540  10.667 -0.0264 -0.4263  0.2107
   60SAPC   C13 4569   3.211   3.579  10.879  0.2564 -0.5415 -0.7106
   60SAPC  H13A 4570   3.149   3.493  10.898  0.7855 -1.0306 -1.1636
   60SAPC  H13B 4571   3.202   3.652  10.958 -0.3954  0.3118 -1.5393
   60SAPC  H13C 4572   3.186   3.627  10.786  1.0711  0.1588 -0.5813
   60SAPC   C14 4573   3.379   3.421  10.983  0.6940 -0.7204  0.6244
   60SAPC  H14A 4574   3.310   3.339  10.975  2.1013 -1.9997  0.9913
   60SAPC  H14B 4575   3.482   3.387  10.988  1.0772  0.4062  0.6983
   60SAPC  H14C 4576   3.359   3.462  11.081  2.0495  0.2469  0.5351
   60SAPC   C15 4577   3.452   3.641  10.888  0.3751  0.2261 -0.2884
   60SAPC  H15A 4578   3.442   3.683  10.987 -1.8799 -0.7060 -0.0592
   60SAPC  H15B 4579   3.551   3.603  10.867 -0.7455 -2.1153 -1.7924
   60SAPC  H15C 4580   3.425   3.726  10.828  1.2605  4.2468  4.3597
   60SAPC   C11 4581   3.301   3.340  10.697  0.1065 -0.2674 -0.5646
   60SAPC  H11A 4582   3.332   3.308  10.595 -1.3205 -0.1079 -1.0707
   60SAPC  H11B 4583   3.201   3.384  10.682  0.9620  1.1585 -2.5130
   60SAPC     P 4584   3.426   3.121  10.780 -0.1935  0.4563 -0.4342
   60SAPC   O13 4585   3.561   3.179  10.806 -0.0898 -0.4181  0.8632
   60SAPC   O14 4586   3.386   3.015  10.875 -0.0573  0.1037  0.7916
   60SAPC   O12 4587   3.305   3.228  10.778 -0.3585  0.1915  0.0947
   60SAPC   O11 4588   3.425   3.049  10.643  0.3303 -0.3382  0.2691
   60SAPC    C1 4589   3.320   3.000  10.568 -0.2698 -0.0678  0.6744
   60SAPC    HA 4590   3.238   2.967  10.636 -0.2294 -2.9221 -0.5253
   60SAPC    HB 4591   3.293   3.080  10.496 -0.8554  0.2058  1.1924
   60SAPC    C2 4592   3.364   2.879  10.488 -0.4899  0.0250 -0.5174
   60SAPC    HS 4593   3.395   2.799  10.558 -1.9782  0.9839  1.3390
   60SAPC   O21 4594   3.465   2.923  10.391  0.5420  0.3782  0.5002
   60SAPC   C21 4595   3.567   2.838  10.363  0.2926  0.2380 -0.1427
   60SAPC   O22 4596   3.574   2.725  10.415 -0.3929 -0.6288 -0.6710
   60SAPC   C22 4597   3.672   2.893  10.259 -0.6477  0.4039 -0.6144
   60SAPC   H2R 4598   3.646   2.828  10.173 -0.2470 -1.8697  0.8936
   60SAPC   H2S 4599   3.659   3.001  10.235  0.8833  1.1399  1.5229
   60SAPC    C3 4600   3.240   2.822  10.406 -0.4143 -0.1740 -1.0214
   60SAPC    HX 4601   3.165   2.805  10.485 -0.1301 -0.3876 -0.7951
   60SAPC    HY 4602   3.262   2.722  10.361 -1.4664 -0.4964 -0.8416
   60SAPC   O31 4603   3.185   2.912  10.303 -0.3143 -0.1506 -0.1270
   60SAPC   C31 4604   3.240   2.891  10.182  0.8633 -0.3790  0.6776
   60SAPC   O32 4605   3.315   2.802  10.149 -0.1032 -0.1483  0.5663
   60SAPC   C32 4606   3.187   3.001  10.083 -0.0452  0.6172  0.0248
   60SAPC   H2X 4607   3.218   3.091  10.140 -0.6160 -0.5997  2.3691
   60SAPC   H2Y 4608   3.076   3.009  10.079 -0.2388 -0.3527  1.9682
   60SAPC   C23 4609   3.819   2.873  10.299  0.3423 -0.3289 -0.3943
   60SAPC   H3R 4610   3.831   2.764  10.310 -0.0247 -0.2810  0.5459
   60SAPC   H3S 4611   3.829   2.917  10.401  0.1655  1.7362 -1.2087
   60SAPC   C24 4612   3.915   2.939  10.208  0.1518 -0.1219  0.0221
   60SAPC   H4R 4613   4.019   2.915  10.238 -0.0779 -1.1180  0.0628
   60SAPC   H4S 4614   3.900   3.048  10.222 -1.3926 -0.2503 -0.4791
   60SAPC   C25 4615   3.891   2.894  10.065  1.0068 -0.2443  0.0546
   60SAPC   H5R 4616   3.904   2.785  10.050 -2.0921 -0.4491 -1.8469
   60SAPC   C26 4617   3.838   2.961   9.959  0.2674 -0.2138 -0.3601
   60SAPC   H6R 4618   3.825   2.914   9.860 -0.7766  2.1082 -1.3962
   60SAPC   C27 4619   3.778   3.100   9.963 -0.6415  0.0374  0.3670
   60SAPC   H7R 4620   3.864   3.164   9.934  0.3711 -0.6313  1.7791
   60SAPC   H7S 4621   3.755   3.130  10.067  2.3678  0.2806  1.0577
   60SAPC   C28 4622   3.666   3.128   9.865  1.1214 -0.6253 -0.3070
   60SAPC   H8R 4623   3.574   3.132   9.925  0.7082 -2.2061 -0.7749
   60SAPC   C29 4624   3.664   3.138   9.733 -0.0847  0.5813  0.0623
   60SAPC   H9R 4625   3.566   3.148   9.685 -0.9642 -1.7990  1.2062
   60SAPC  C210 4626   3.785   3.122   9.637 -0.1897 -0.5737 -0.9876
   60SAPC  H10R 4627   3.875   3.142   9.699 -0.0578  1.2147 -1.6879
   60SAPC  H10S 4628   3.789   3.208   9.567 -0.9772 -0.0367 -0.4021
   60SAPC  C211 4629   3.797   2.983   9.585 -0.7918  0.4446  0.0416
   60SAPC  H11R 4630   3.783   2.911   9.666  0.9737 -0.9283 -0.8046
   60SAPC  C212 4631   3.835   2.947   9.465 -0.2689 -0.2844 -0.2402
   60SAPC  H12R 4632   3.838   2.839   9.442 -1.2070 -0.5874  0.9710
   60SAPC  C213 4633   3.874   3.034   9.353  0.0720 -0.7348 -0.2102
   60SAPC  H13R 4634   3.810   3.124   9.343 -0.9371 -1.4887 -0.6731
   60SAPC  H13S 4635   3.861   2.984   9.254  4.3258 -0.6852 -0.9930
   60SAPC  C214 4636   4.022   3.082   9.366  0.8377 -0.1037  0.7258
   60SAPC  H14R 4637   4.030   3.164   9.439 -0.0376  0.7136 -0.0607
   60SAPC  C215 4638   4.128   3.027   9.298  0.2524 -0.0634 -0.2308
   60SAPC  H15R 4639   4.227   3.074   9.310 -0.4061  0.8942  2.1606
   60SAPC  C216 4640   4.128   2.912   9.196  0.2773  0.3122  0.2846
   60SAPC  H16R 4641   4.144   2.952   9.094  0.5244  1.0836  0.6113
   60SAPC  H16S 4642   4.026   2.870   9.181  0.3691 -0.8375  2.4607
   60SAPC  C217 4643   4.227   2.797   9.228  0.3879 -0.5182  0.0418
   60SAPC  H17R 4644   4.203   2.737   9.318 -0.2418  0.5559  0.6126
   60SAPC  H17S 4645   4.323   2.851   9.243 -0.0272 -0.0525  1.1373
   60SAPC  C218 4646   4.246   2.693   9.124  1.0310  0.6882  1.1720
   60SAPC  H18R 4647   4.149   2.650   9.092  0.8523  1.9595 -0.0843
   60SAPC  H18S 4648   4.302   2.606   9.165 -0.4716 -1.2160 -0.6032
   60SAPC  C219 4649   4.334   2.738   9.001  0.5617 -0.0610 -0.3103
   60SAPC  H19R 4650   4.376   2.839   9.023 -0.2036  0.5509 -1.5321
   60SAPC  H19S 4651   4.257   2.741   8.920 -0.0866 -1.6159  0.2053
   60SAPC  C220 4652   4.440   2.628   8.975 -0.0735 -0.2869 -0.3085
   60SAPC  H20R 4653   4.390   2.529   8.981 -2.1003  0.7416  0.6539
   60SAPC  H20S 4654   4.518   2.629   9.054 -1.5292 -1.8962  1.2343
   60SAPC  H20T 4655   4.487   2.642   8.875  0.6203  0.2541  0.0780
   60SAPC   C33 4656   3.236   2.976   9.940 -0.3561 -0.4677 -0.0497
   60SAPC   H3X 4657   3.162   2.911   9.888 -1.7802 -0.1892  1.5346
   60SAPC   H3Y 4658   3.329   2.918   9.953  0.2521  0.9172  2.6077
   60SAPC   C34 4659   3.252   3.107   9.856  0.0801 -0.0771 -0.2698
   60SAPC   H4X 4660   3.323   3.094   9.771  0.8266  0.1086  0.3085
   60SAPC   H4Y 4661   3.306   3.179   9.921  0.1161  0.8851 -1.3253
   60SAPC   C35 4662   3.124   3.172   9.802  0.3633  0.3550  0.5260
   60SAPC   H5X 4663   3.061   3.198   9.890 -1.9576 -0.8155 -0.7056
   60SAPC   H5Y 4664   3.076   3.086   9.751  0.2609  0.3310  0.6624
   60SAPC   C36 4665   3.137   3.297   9.712 -0.4055  0.1185 -0.3318
   60SAPC   H6X 4666   3.191   3.371   9.776  0.0128  0.4486 -1.0575
   60SAPC   H6Y 4667   3.036   3.335   9.688 -0.9467 -0.4666  0.9474
   60SAPC   C37 4668   3.200   3.282   9.571 -0.1415  0.1001 -0.3568
   60SAPC   H7X 4669   3.293   3.222   9.581  0.3517  0.9873  0.6107
   60SAPC   H7Y 4670   3.218   3.380   9.521 -0.6264  0.0566 -0.6184
   60SAPC   C38 4671   3.104   3.198   9.484 -0.1493  0.1863 -0.0438
   60SAPC   H8X 4672   3.003   3.243   9.472 -0.0500  1.0901  2.0107
   60SAPC   H8Y 4673   3.080   3.106   9.542  1.4005  0.6240  1.3954
   60SAPC   C39 4674   3.145   3.172   9.340 -0.2370  0.2236 -0.1516
   60SAPC   H9X 4675   3.163   3.272   9.293  1.7216 -0.2441 -0.5014
   60SAPC   H9Y 4676   3.058   3.130   9.286 -1.2048  1.5142  0.3511
   60SAPC  C310 4677   3.268   3.088   9.313  0.2609 -0.0538  0.5235
   60SAPC  H10X 4678   3.243   2.985   9.344 -0.1276 -0.4547 -1.0576
   60SAPC  H10Y 4679   3.355   3.119   9.374  0.5195 -0.4325  0.3505
   60SAPC  C311 4680   3.301   3.092   9.165  0.1435  0.2583  0.0666
   60SAPC  H11X 4681   3.380   3.017   9.143 -0.1021  0.8037 -3.2587
   60SAPC  H11Y 4682   3.345   3.192   9.145  2.0774 -0.3064  1.2225
   60SAPC  C312 4683   3.193   3.037   9.070 -0.9305  0.8994  0.1032
   60SAPC  H12X 4684   3.121   3.119   9.046  0.6190  1.4729 -3.1178
   60SAPC  H12Y 4685   3.138   2.963   9.132  1.2110  0.3062  1.3899
   60SAPC  C313 4686   3.248   2.976   8.937 -0.0768 -0.3715 -0.1065
   60SAPC  H13X 4687   3.162   2.931   8.882 -0.4103  0.9290 -0.6965
   60SAPC  H13Y 4688   3.316   2.889   8.951  0.3014  0.1431  1.4260
   60SAPC  C314 4689   3.311   3.076   8.840  0.1947 -0.0777  0.5977
   60SAPC  H14X 4690   3.404   3.118   8.883 -0.0952  0.8885  0.2942
   60SAPC  H14Y 4691   3.241   3.161   8.828  0.3851  0.0293  0.2414
   60SAPC  C315 4692   3.353   3.025   8.698  0.1716 -0.3989  0.3603
   60SAPC  H15X 4693   3.425   2.941   8.706 -0.1668 -0.9171 -1.5908
   60SAPC  H15Y 4694   3.401   3.108   8.642 -1.3734  2.0546  2.4338
   60SAPC  C316 4695   3.238   2.969   8.621 -0.2554 -0.5549  0.0643
   60SAPC  H16X 4696   3.151   3.039   8.620  0.4133  0.2926 -0.3236
   60SAPC  H16Y 4697   3.200   2.882   8.678 -0.0996 -1.7175 -1.5408
   60SAPC  C317 4698   3.283   2.921   8.482  0.0423 -0.6044 -0.6305
   60SAPC  H17X 4699   3.345   2.995   8.427 -0.4203 -0.3948 -0.8743
   60SAPC  H17Y 4700   3.185   2.915   8.430 -1.4701 -0.3200  2.0082
   60SAPC  C318 4701   3.366   2.798   8.467 -0.4195  0.5232 -0.2202
   60SAPC  H18X 4702   3.434   2.787   8.554 -1.6528  0.6188  0.7860
   60SAPC  H18Y 4703   3.433   2.799   8.378 -0.3998  2.2879 -0.2221
   60SAPC  H18Z 4704   3.307   2.705   8.452  2.8870 -1.7545 -0.2774
   61SAPC     N 4705   1.827   1.717  10.882  0.3841  0.0109 -0.4238
   61SAPC   C12 4706   1.908   1.750  10.756  0.2821 -0.3000 -1.1076
   61SAPC  H12A 4707   1.942   1.853  10.756  2.1978 -0.8853  0.2344
   61SAPC  H12B 4708   1.848   1.756  10.666 -1.3918  1.0114  0.0230
   61SAPC   C13 4709   1.699   1.795  10.873  0.5861 -0.2572  0.5250
   61SAPC  H13A 4710   1.638   1.781  10.961 -0.1478 -1.5176 -0.1540
   61SAPC  H13B 4711   1.718   1.901  10.877 -3.1010  0.6688 -1.6904
   61SAPC  H13C 4712   1.655   1.781  10.776 -0.6739  0.1746  1.0148
   61SAPC   C14 4713   1.812   1.569  10.875  0.2605 -1.0014 -0.3031
   61SAPC  H14A 4714   1.764   1.542  10.781 -1.7623 -0.3530  0.4879
   61SAPC  H14B 4715   1.908   1.519  10.872  0.6232 -0.3367  0.0662
   61SAPC  H14C 4716   1.760   1.536  10.964  1.5064  3.0539  2.1883
   61SAPC   C15 4717   1.897   1.763  11.004  0.2797 -0.5248 -0.3087
   61SAPC  H15A 4718   1.905   1.870  11.000 -3.3878 -0.0788  0.4811
   61SAPC  H15B 4719   1.846   1.735  11.095  1.2156  1.1923  0.7762
   61SAPC  H15C 4720   2.000   1.729  11.001  1.3889  2.3677  1.4035
   61SAPC   C11 4721   2.046   1.668  10.737  0.6607  0.5711  0.1607
   61SAPC  H11A 4722   2.107   1.710  10.654  2.3267  0.2112  1.1624
   61SAPC  H11B 4723   2.018   1.564  10.708  0.3801  1.0788 -1.5007
   61SAPC     P 4724   2.256   1.583  10.874  0.2919 -0.0695 -0.1159
   61SAPC   O13 4725   2.363   1.675  10.916 -0.1011  0.0785 -0.3087
   61SAPC   O14 4726   2.219   1.469  10.957 -0.4041  0.3721 -0.3893
   61SAPC   O12 4727   2.128   1.670  10.852  0.0018 -0.0809 -0.3837
   61SAPC   O11 4728   2.284   1.529  10.732  0.1031 -0.6665 -0.3288
   61SAPC    C1 4729   2.401   1.462  10.695 -0.2520 -0.0096  0.6861
   61SAPC    HA 4730   2.474   1.457  10.778  0.0826  0.2272  0.4046
   61SAPC    HB 4731   2.374   1.356  10.673  0.6727  0.0656 -0.9215
   61SAPC    C2 4732   2.454   1.534  10.567 -0.7816 -0.4023  0.3768
   61SAPC    HS 4733   2.370   1.577  10.509 -0.8334  0.9581  1.4031
   61SAPC   O21 4734   2.535   1.441  10.481 -0.6598 -0.0817  0.2419
   61SAPC   C21 4735   2.456   1.366  10.408  0.0949  0.5440  0.4386
   61SAPC   O22 4736   2.334   1.357  10.418 -0.2682 -0.2310  0.4076
   61SAPC   C22 4737   2.544   1.312  10.289 -0.1751 -0.6267 -1.4731
   61SAPC   H2R 4738   2.552   1.397  10.217  0.4496 -0.0822 -0.7825
   61SAPC   H2S 4739   2.642   1.281  10.331  0.3350  0.5040 -1.7909
   61SAPC    C3 4740   2.524   1.667  10.605  0.1666 -0.3298 -0.1563
   61SAPC    HX 4741   2.618   1.648  10.661  0.0675 -0.0286  0.1192
   61SAPC    HY 4742   2.459   1.719  10.679  2.0143  0.9756  0.6162
   61SAPC   O31 4743   2.548   1.744  10.486 -0.6665  0.1283 -0.2765
   61SAPC   C31 4744   2.631   1.848  10.515 -0.4525 -0.1070 -1.0881
   61SAPC   O32 4745   2.650   1.885  10.633 -0.5105 -0.4710  0.3918
   61SAPC   C32 4746   2.702   1.907  10.393 -0.7587 -0.5223  0.1528
   61SAPC   H2X 4747   2.812   1.899  10.398 -0.7208  0.5110  1.0775
   61SAPC   H2Y 4748   2.691   2.017  10.393  0.7391 -0.3631  0.5327
   61SAPC   C23 4749   2.478   1.196  10.213  0.6576 -0.3517  0.0272
   61SAPC   H3R 4750   2.374   1.216  10.180  0.6322  0.1012  0.3540
   61SAPC   H3S 4751   2.480   1.107  10.279 -1.2350  1.4122  2.6859
   61SAPC   C24 4752   2.562   1.153  10.093 -0.4536  0.3300  1.0208
   61SAPC   H4R 4753   2.660   1.125  10.138 -0.0215  0.7379  0.3536
   61SAPC   H4S 4754   2.583   1.243  10.031 -0.5229  0.0558  0.5994
   61SAPC   C25 4755   2.502   1.036  10.016  0.2694  0.5884  0.1176
   61SAPC   H5R 4756   2.470   0.948  10.073 -0.8436  1.0810  0.2630
   61SAPC   C26 4757   2.478   1.028   9.882 -0.0195  0.3088 -0.4734
   61SAPC   H6R 4758   2.443   0.931   9.842 -1.2824  0.1192  1.0153
   61SAPC   C27 4759   2.510   1.122   9.767  0.1795 -0.1719 -0.9271
   61SAPC   H7R 4760   2.541   1.215   9.819  0.4706 -0.2989 -0.8681
   61SAPC   H7S 4761   2.425   1.145   9.700  0.7890  1.7771 -1.1046
   61SAPC   C28 4762   2.628   1.073   9.688  0.1728  0.6328  0.1307
   61SAPC   H8R 4763   2.720   1.053   9.743 -0.5103 -1.9119  0.4441
   61SAPC   C29 4764   2.630   1.023   9.562  0.3431  0.2150 -0.0437
   61SAPC   H9R 4765   2.720   0.977   9.521  0.2383  0.4055 -0.4906
   61SAPC  C210 4766   2.523   1.008   9.461  0.7079 -0.0631  0.7626
   61SAPC  H10R 4767   2.519   1.097   9.395 -0.4915  0.0450  0.9662
   61SAPC  H10S 4768   2.423   1.012   9.508 -0.5717 -0.3628 -1.7574
   61SAPC  C211 4769   2.539   0.887   9.372 -0.5222  0.5569  1.0757
   61SAPC  H11R 4770   2.527   0.794   9.429 -1.0822 -0.5259 -0.7291
   61SAPC  C212 4771   2.551   0.886   9.237 -0.0903 -0.1902  0.2389
   61SAPC  H12R 4772   2.553   0.788   9.188  1.7940 -1.3015  2.3388
   61SAPC  C213 4773   2.564   1.010   9.146  0.3065  0.3083  0.1843
   61SAPC  H13R 4774   2.478   1.079   9.160  1.4574  1.7689  0.4006
   61SAPC  H13S 4775   2.547   0.973   9.043 -0.9958  2.1597 -0.3099
   61SAPC  C214 4776   2.679   1.106   9.162  0.1346  0.4022  0.5906
   61SAPC  H14R 4777   2.725   1.103   9.262  0.5487 -0.5544  0.3846
   61SAPC  C215 4778   2.727   1.195   9.069  0.4946  0.3333 -0.5543
   61SAPC  H15R 4779   2.826   1.239   9.091  1.0181 -1.2862  0.5138
   61SAPC  C216 4780   2.665   1.220   8.928  0.0434 -0.3353  0.3360
   61SAPC  H16R 4781   2.660   1.331   8.915  0.9208 -0.3828 -0.5148
   61SAPC  H16S 4782   2.567   1.169   8.918  0.1344 -0.4068 -0.2168
   61SAPC  C217 4783   2.770   1.174   8.823  0.1022  0.9218 -0.4262
   61SAPC  H17R 4784   2.809   1.070   8.835 -0.9488  0.6525  0.8653
   61SAPC  H17S 4785   2.851   1.249   8.833  0.3417  0.7771 -1.1962
   61SAPC  C218 4786   2.721   1.190   8.675 -0.1264  0.4282 -0.1777
   61SAPC  H18R 4787   2.807   1.176   8.606  1.7002  0.3627  2.0310
   61SAPC  H18S 4788   2.696   1.299   8.679  0.1624  0.4396  2.4440
   61SAPC  C219 4789   2.601   1.102   8.631  0.6692  0.6220  0.1914
   61SAPC  H19R 4790   2.563   1.133   8.531 -0.2408  0.0717  0.3573
   61SAPC  H19S 4791   2.520   1.132   8.701  1.2298  2.9081 -0.0612
   61SAPC  C220 4792   2.632   0.956   8.642 -0.5939  1.0120  0.2969
   61SAPC  H20R 4793   2.710   0.931   8.567 -0.4096 -0.5905  0.9812
   61SAPC  H20S 4794   2.547   0.887   8.621 -0.9645  2.1203 -2.2110
   61SAPC  H20T 4795   2.666   0.922   8.742 -1.8595  0.5153  0.5709
   61SAPC   C33 4796   2.656   1.850  10.264 -0.5898 -0.2871  0.2569
   61SAPC   H3X 4797   2.546   1.860  10.247 -1.7844 -3.7797  4.2765
   61SAPC   H3Y 4798   2.682   1.745  10.239  0.0949  0.3984 -2.1664
   61SAPC   C34 4799   2.724   1.937  10.161  0.4535 -0.0011 -0.2545
   61SAPC   H4X 4800   2.835   1.928  10.161  0.8410  3.3757 -0.6800
   61SAPC   H4Y 4801   2.694   2.043  10.167 -0.1233 -0.1792  0.1013
   61SAPC   C35 4802   2.679   1.915  10.016  0.0605  0.2574 -0.9750
   61SAPC   H5X 4803   2.579   1.961   9.998 -0.1747  0.4425  0.6209
   61SAPC   H5Y 4804   2.677   1.805  10.000 -0.9453 -0.2004  1.8016
   61SAPC   C36 4805   2.765   1.980   9.905  0.2767 -0.2630 -0.2230
   61SAPC   H6X 4806   2.865   1.931   9.893  0.1665 -1.2031  2.1558
   61SAPC   H6Y 4807   2.780   2.086   9.935  0.4240 -0.5913  0.8983
   61SAPC   C37 4808   2.690   1.983   9.767 -0.2594  0.3340 -1.5161
   61SAPC   H7X 4809   2.632   2.077   9.764 -0.9026  0.0189  0.0696
   61SAPC   H7Y 4810   2.617   1.899   9.759 -0.6880  0.2983  1.6795
   61SAPC   C38 4811   2.793   1.977   9.653  0.3191 -0.7634 -0.3669
   61SAPC   H8X 4812   2.832   1.874   9.646 -0.6901 -1.1754 -0.0929
   61SAPC   H8Y 4813   2.882   2.042   9.671  0.9580 -2.0634  1.4750
   61SAPC   C39 4814   2.736   2.016   9.515  0.5031  0.2966  0.3169
   61SAPC   H9X 4815   2.705   2.122   9.528 -2.2104 -0.6584  2.5810
   61SAPC   H9Y 4816   2.644   1.961   9.489 -0.8015  2.5968 -0.2103
   61SAPC  C310 4817   2.840   1.995   9.404 -0.3473 -0.2199  0.1185
   61SAPC  H10X 4818   2.852   1.885   9.404 -0.2554 -0.2098  0.1226
   61SAPC  H10Y 4819   2.935   2.039   9.441 -1.3778  0.8778  1.5963
   61SAPC  C311 4820   2.816   2.064   9.269  0.9297 -0.0009  0.2125
   61SAPC  H11X 4821   2.903   2.043   9.204  0.2356 -2.4964 -0.0028
   61SAPC  H11Y 4822   2.815   2.175   9.272  2.1636  0.0955 -1.5640
   61SAPC  C312 4823   2.690   2.020   9.204  0.0383  0.9940  0.3351
   61SAPC  H12X 4824   2.602   2.063   9.257 -1.6770 -0.6261 -1.0131
   61SAPC  H12Y 4825   2.675   1.910   9.207 -1.4981  1.0973 -1.3046
   61SAPC  C313 4826   2.661   2.067   9.059  0.2996  0.2371 -0.5185
   61SAPC  H13X 4827   2.692   2.174   9.059 -1.2601  0.7106 -0.5128
   61SAPC  H13Y 4828   2.553   2.064   9.033  0.3994  2.9521 -1.6080
   61SAPC  C314 4829   2.736   1.989   8.947 -0.6799  0.0594  0.1556
   61SAPC  H14X 4830   2.694   1.886   8.954  1.6871 -0.8558  2.8162
   61SAPC  H14Y 4831   2.844   1.982   8.974 -0.7561 -0.9052  0.2377
   61SAPC  C315 4832   2.728   2.038   8.806  0.6649 -0.4172  0.2887
   61SAPC  H15X 4833   2.789   2.129   8.792 -1.7078  1.6846  2.4380
   61SAPC  H15Y 4834   2.626   2.075   8.784  0.4161  0.9625  3.2988
   61SAPC  C316 4835   2.769   1.938   8.701 -0.1310  0.0289 -0.2085
   61SAPC  H16X 4836   2.716   1.841   8.713 -1.1659  0.5445 -0.4919
   61SAPC  H16Y 4837   2.877   1.917   8.718 -0.2473 -0.2761  0.1555
   61SAPC  C317 4838   2.739   1.983   8.555  0.6391  0.0560  0.2150
   61SAPC  H17X 4839   2.791   1.898   8.506 -0.7382 -0.7490  0.1013
   61SAPC  H17Y 4840   2.792   2.074   8.520  0.5055  0.6205  1.3970
   61SAPC  C318 4841   2.592   1.987   8.520  0.6687  0.3303  0.3605
   61SAPC  H18X 4842   2.579   1.980   8.409 -1.6185  4.7669  0.1502
   61SAPC  H18Y 4843   2.541   2.081   8.548  0.9192  0.7474 -0.5217
   61SAPC  H18Z 4844   2.534   1.908   8.571  0.1589  0.8641  0.6122
   62SAPC     N 4845   1.395   1.907  10.610  0.1461 -0.3726  0.6757
   62SAPC   C12 4846   1.373   1.783  10.523  0.5152 -0.8437 -0.9920
   62SAPC  H12A 4847   1.357   1.808  10.420  1.8328 -1.1776 -1.2877
   62SAPC  H12B 4848   1.286   1.731  10.562  0.0733  0.1474 -0.6168
   62SAPC   C13 4849   1.374   1.886  10.756  0.0529  0.3922 -0.2313
   62SAPC  H13A 4850   1.275   1.849  10.777  0.1508  0.3764  0.1991
   62SAPC  H13B 4851   1.439   1.810  10.798 -1.0938 -0.5974 -0.1784
   62SAPC  H13C 4852   1.393   1.977  10.810  0.3860 -0.4877  1.1941
   62SAPC   C14 4853   1.538   1.954  10.577 -0.0866 -0.6519 -0.1722
   62SAPC  H14A 4854   1.540   1.965  10.470 -1.9373  1.9113 -0.0259
   62SAPC  H14B 4855   1.572   2.048  10.618 -2.2616 -0.5409  1.5484
   62SAPC  H14C 4856   1.612   1.884  10.615 -0.1136 -1.2475 -1.1769
   62SAPC   C15 4857   1.307   2.021  10.563  0.0753  0.7141 -0.4583
   62SAPC  H15A 4858   1.335   2.109  10.620  0.0155 -0.4365  1.4282
   62SAPC  H15B 4859   1.311   2.036  10.457  0.9581  0.1163 -0.5256
   62SAPC  H15C 4860   1.205   2.001  10.591  0.2929  0.3733  0.1270
   62SAPC   C11 4861   1.483   1.679  10.537 -0.0021  0.0763 -0.4616
   62SAPC  H11A 4862   1.577   1.721  10.495 -0.6143  0.4423 -1.4954
   62SAPC  H11B 4863   1.450   1.608  10.458 -1.0863 -0.0660  0.0920
   62SAPC     P 4864   1.458   1.481  10.696 -0.4718  0.0547 -0.4993
   62SAPC   O13 4865   1.582   1.408  10.746 -0.2590  0.6209  0.1487
   62SAPC   O14 4866   1.345   1.487  10.793  0.0351 -0.1974  0.4322
   62SAPC   O12 4867   1.494   1.633  10.674  0.4770 -0.1464 -0.1409
   62SAPC   O11 4868   1.402   1.424  10.557 -0.3879 -0.2230 -0.0689
   62SAPC    C1 4869   1.445   1.303  10.502 -0.4567  0.2060 -1.3206
   62SAPC    HA 4870   1.466   1.239  10.591 -0.3535  3.8293  1.4891
   62SAPC    HB 4871   1.366   1.268  10.432 -1.2687  1.7951 -1.2469
   62SAPC    C2 4872   1.576   1.300  10.424  0.0626 -0.3540 -0.4645
   62SAPC    HS 4873   1.649   1.372  10.468  2.5291 -2.3310 -1.0726
   62SAPC   O21 4874   1.542   1.346  10.299 -0.0277  0.4598  0.3426
   62SAPC   C21 4875   1.642   1.390  10.216 -0.9123  0.1104  0.1989
   62SAPC   O22 4876   1.756   1.399  10.257  0.4934 -0.0747 -0.2353
   62SAPC   C22 4877   1.584   1.408  10.073 -0.9540 -1.2113  0.1977
   62SAPC   H2R 4878   1.538   1.311  10.045 -1.6241 -1.4263  1.8965
   62SAPC   H2S 4879   1.499   1.479  10.080 -1.1444 -1.5078  0.9944
   62SAPC    C3 4880   1.640   1.159  10.441 -0.2951 -0.4272  0.6236
   62SAPC    HX 4881   1.553   1.092  10.425 -0.8536  0.3492  0.3453
   62SAPC    HY 4882   1.664   1.130  10.545  2.9715  0.8461  0.3436
   62SAPC   O31 4883   1.736   1.126  10.340 -0.3047  0.3738  0.5668
   62SAPC   C31 4884   1.855   1.161  10.383 -0.1536 -0.2536  1.2767
   62SAPC   O32 4885   1.878   1.228  10.479  0.3005 -0.4860  0.4218
   62SAPC   C32 4886   1.957   1.093  10.297  0.0029  0.4365 -0.1238
   62SAPC   H2X 4887   1.924   0.988  10.285 -0.8550  0.2345  3.1347
   62SAPC   H2Y 4888   2.047   1.081  10.361  0.6300  1.8476 -0.7015
   62SAPC   C23 4889   1.694   1.453   9.973 -0.3514 -0.5256 -0.1368
   62SAPC   H3R 4890   1.790   1.397   9.976  0.9138  1.5971  1.8069
   62SAPC   H3S 4891   1.713   1.561   9.989 -0.3287 -0.4887 -0.3966
   62SAPC   C24 4892   1.649   1.446   9.815 -0.2191  0.4107 -0.3964
   62SAPC   H4R 4893   1.552   1.496   9.795 -0.3050  0.4414  0.0905
   62SAPC   H4S 4894   1.636   1.337   9.800  3.4813 -0.1639 -0.3468
   62SAPC   C25 4895   1.745   1.494   9.718  0.0515  0.2303  0.9356
   62SAPC   H5R 4896   1.837   1.538   9.758 -0.5836  1.6295  0.9384
   62SAPC   C26 4897   1.718   1.498   9.581  0.0351  0.0396  0.5958
   62SAPC   H6R 4898   1.802   1.509   9.511  0.6482 -2.6987  0.7841
   62SAPC   C27 4899   1.583   1.444   9.523 -0.8426  0.5452  0.0273
   62SAPC   H7R 4900   1.497   1.479   9.584 -0.3340  1.3903  0.2755
   62SAPC   H7S 4901   1.582   1.333   9.527  1.8240  0.2682 -2.9003
   62SAPC   C28 4902   1.552   1.490   9.388 -0.1265  0.5579 -0.5435
   62SAPC   H8R 4903   1.505   1.588   9.398 -0.5457  0.1943  1.6126
   62SAPC   C29 4904   1.561   1.431   9.274  0.0893  0.2733 -0.1349
   62SAPC   H9R 4905   1.536   1.498   9.190 -2.6658  2.9476  2.5703
   62SAPC  C210 4906   1.604   1.291   9.238 -0.4077 -0.1947  0.3325
   62SAPC  H10R 4907   1.528   1.258   9.165  0.4321 -0.0095 -0.6425
   62SAPC  H10S 4908   1.604   1.218   9.322  1.6291 -0.2178  0.3658
   62SAPC  C211 4909   1.742   1.299   9.167  0.5113  0.6053  0.7816
   62SAPC  H11R 4910   1.822   1.289   9.242  0.5425  0.9581  0.7993
   62SAPC  C212 4911   1.762   1.309   9.036 -0.2479 -0.0603  0.4562
   62SAPC  H12R 4912   1.866   1.301   9.001  0.2110 -0.2031  1.7725
   62SAPC  C213 4913   1.654   1.295   8.933  0.3070 -1.0235 -0.0584
   62SAPC  H13R 4914   1.565   1.350   8.970 -0.2517 -1.4021 -0.8057
   62SAPC  H13S 4915   1.615   1.191   8.925 -1.9827 -0.1340 -1.5656
   62SAPC  C214 4916   1.695   1.330   8.796 -0.0488  1.0608  0.2055
   62SAPC  H14R 4917   1.790   1.286   8.765 -0.8192 -1.7755  1.5191
   62SAPC  C215 4918   1.622   1.414   8.718 -0.1458 -0.4974  0.4751
   62SAPC  H15R 4919   1.650   1.446   8.617  1.6923 -0.0470  1.0875
   62SAPC  C216 4920   1.488   1.488   8.756 -1.0446  0.1581 -0.1380
   62SAPC  H16R 4921   1.493   1.596   8.730 -2.5476  0.3727  0.3731
   62SAPC  H16S 4922   1.458   1.494   8.863  2.0103  0.6975  0.8156
   62SAPC  C217 4923   1.374   1.418   8.685  1.0609  0.4695  0.0017
   62SAPC  H17R 4924   1.368   1.317   8.732  0.9527  0.9661  1.0765
   62SAPC  H17S 4925   1.393   1.415   8.575  1.3723 -0.5572  0.0680
   62SAPC  C218 4926   1.245   1.493   8.718 -0.0445  0.0055 -0.6814
   62SAPC  H18R 4927   1.243   1.510   8.828  1.1088  1.3855 -0.8327
   62SAPC  H18S 4928   1.156   1.441   8.677 -1.1031  1.6997 -0.6608
   62SAPC  C219 4929   1.235   1.627   8.648  0.3138 -0.5326  0.1782
   62SAPC  H19R 4930   1.251   1.617   8.538 -1.0892  2.4852 -0.4152
   62SAPC  H19S 4931   1.324   1.683   8.684  0.8256 -1.3788  0.2433
   62SAPC  C220 4932   1.107   1.709   8.669 -0.6505  0.1081 -0.0595
   62SAPC  H20R 4933   1.099   1.720   8.779  1.1091 -1.2574  0.2338
   62SAPC  H20S 4934   1.012   1.661   8.637 -0.7216  0.5481 -0.5434
   62SAPC  H20T 4935   1.115   1.808   8.618 -2.6305 -0.7411 -2.2549
   62SAPC   C33 4936   1.982   1.156  10.159 -0.8547  0.0621  0.6599
   62SAPC   H3X 4937   1.884   1.175  10.110 -0.2889 -0.2535 -0.6399
   62SAPC   H3Y 4938   2.039   1.084  10.097 -0.8538  0.7819 -0.1929
   62SAPC   C34 4939   2.056   1.290  10.140 -0.0272 -0.3797 -0.0097
   62SAPC   H4X 4940   2.138   1.292  10.215  0.5384 -0.0521 -0.6177
   62SAPC   H4Y 4941   1.988   1.374  10.163 -0.6377 -0.9751  0.3993
   62SAPC   C35 4942   2.136   1.293  10.010  0.4120  0.1827 -0.3671
   62SAPC   H5X 4943   2.193   1.198  10.010 -0.5269 -0.4083  0.8350
   62SAPC   H5Y 4944   2.191   1.389  10.015 -0.9690  0.9495  0.7306
   62SAPC   C36 4945   2.049   1.298   9.874 -0.2813 -0.0439  0.8161
   62SAPC   H6X 4946   1.989   1.392   9.871 -2.9262 -1.6487 -0.8234
   62SAPC   H6Y 4947   1.987   1.206   9.879 -0.2238 -0.0192  2.5347
   62SAPC   C37 4948   2.138   1.293   9.747  0.2215  0.6682 -0.7964
   62SAPC   H7X 4949   2.221   1.222   9.770 -1.0323 -1.4086 -2.3142
   62SAPC   H7Y 4950   2.183   1.394   9.747 -0.7197  1.2905  3.3999
   62SAPC   C38 4951   2.066   1.257   9.618  0.2150  0.3167 -0.2496
   62SAPC   H8X 4952   1.994   1.335   9.587 -0.3614 -0.1881 -0.1999
   62SAPC   H8Y 4953   1.999   1.169   9.629 -0.6150  0.8762 -0.7649
   62SAPC   C39 4954   2.182   1.223   9.518 -0.0046 -0.4053  0.1913
   62SAPC   H9X 4955   2.233   1.127   9.540  2.2314  0.2068 -1.8569
   62SAPC   H9Y 4956   2.264   1.298   9.516  0.4612 -0.8404 -3.3824
   62SAPC  C310 4957   2.126   1.208   9.378  0.9688 -0.0121 -0.1155
   62SAPC  H10X 4958   2.106   1.304   9.327 -0.9095 -1.0408 -1.4546
   62SAPC  H10Y 4959   2.029   1.154   9.371  2.1704 -2.4011  0.3707
   62SAPC  C311 4960   2.220   1.124   9.290 -1.1820  0.1733 -0.6491
   62SAPC  H11X 4961   2.263   1.034   9.339 -1.2013  1.3606  1.6967
   62SAPC  H11Y 4962   2.311   1.187   9.279 -1.4138  0.9821  1.6256
   62SAPC  C312 4963   2.172   1.087   9.155  0.7660  0.2690 -0.1567
   62SAPC  H12X 4964   2.090   1.013   9.166  0.7220  0.1869 -0.9770
   62SAPC  H12Y 4965   2.254   1.040   9.097  0.0656 -0.9847 -0.1799
   62SAPC  C313 4966   2.105   1.194   9.060  0.0311  0.6536 -0.1903
   62SAPC  H13X 4967   2.034   1.252   9.123 -0.0564  1.7860 -1.2948
   62SAPC  H13Y 4968   2.046   1.136   8.985 -0.4172  1.9390 -0.8496
   62SAPC  C314 4969   2.204   1.286   8.992 -0.6861 -0.2223  0.0953
   62SAPC  H14X 4970   2.278   1.232   8.930  1.3066  0.7275  1.5690
   62SAPC  H14Y 4971   2.262   1.334   9.074  0.6592  0.5269 -1.2466
   62SAPC  C315 4972   2.149   1.393   8.902 -0.4966  0.5098  0.0658
   62SAPC  H15X 4973   2.231   1.463   8.871  1.8933 -2.8613 -1.9046
   62SAPC  H15Y 4974   2.065   1.445   8.953 -0.1244  0.8455  0.3442
   62SAPC  C316 4975   2.083   1.332   8.776 -0.0234 -0.4448 -0.3408
   62SAPC  H16X 4976   1.992   1.283   8.818 -1.3410  1.4116 -0.9127
   62SAPC  H16Y 4977   2.161   1.266   8.733  1.3870  0.8516  0.1366
   62SAPC  C317 4978   2.049   1.444   8.682  0.3220  0.4667  0.2625
   62SAPC  H17X 4979   2.136   1.513   8.680 -0.3731  1.3841  1.0220
   62SAPC  H17Y 4980   1.966   1.482   8.746 -0.5144  0.2335 -0.6542
   62SAPC  C318 4981   2.001   1.397   8.547 -0.3676 -0.2220  0.2527
   62SAPC  H18X 4982   1.964   1.478   8.482  1.2816  1.1563  0.9611
   62SAPC  H18Y 4983   1.940   1.305   8.560 -0.9467 -0.0859 -1.2945
   62SAPC  H18Z 4984   2.084   1.352   8.489 -0.6690  0.3283 -0.6212
   63SAPC     N 4985   5.493   5.871   6.451  0.3932  0.6263  0.0256
   63SAPC   C12 4986   5.619   5.787   6.424  0.2224 -0.5659 -0.5020
   63SAPC  H12A 4987   5.626   5.697   6.484  0.5243  0.7048  1.4146
   63SAPC  H12B 4988   5.712   5.835   6.449 -0.0868 -1.1983  2.2062
   63SAPC   C13 4989   5.518   5.951   6.574 -0.2977 -0.5266  0.0988
   63SAPC  H13A 4990   5.606   6.014   6.569  1.0979 -2.2272  1.6560
   63SAPC  H13B 4991   5.432   6.009   6.603 -0.6665 -1.1377  0.2551
   63SAPC  H13C 4992   5.528   5.886   6.659 -1.7233  0.6085  1.1840
   63SAPC   C14 4993   5.456   5.956   6.331  0.7870  0.8555 -0.4735
   63SAPC  H14A 4994   5.375   6.024   6.354  0.9093  1.4936 -1.8106
   63SAPC  H14B 4995   5.539   6.015   6.295  1.0051  1.0228  0.2853
   63SAPC  H14C 4996   5.426   5.891   6.250  2.4540 -0.2232 -0.2799
   63SAPC   C15 4997   5.374   5.780   6.482  0.1174 -0.3961 -0.4762
   63SAPC  H15A 4998   5.403   5.719   6.567  3.4388 -2.8816 -3.0948
   63SAPC  H15B 4999   5.289   5.839   6.513  0.4525  0.3215 -0.9040
   63SAPC  H15C 5000   5.347   5.713   6.402  2.0791 -2.0373  0.1344
   63SAPC   C11 5001   5.629   5.729   6.279  1.0787  0.4891  0.0167
   63SAPC  H11A 5002   5.725   5.673   6.276  2.3677  2.3451  2.8925
   63SAPC  H11B 5003   5.634   5.803   6.196  0.8974 -1.3932 -1.7625
   63SAPC     P 5004   5.525   5.490   6.280  0.1194  0.4618 -0.0602
   63SAPC   O13 5005   5.407   5.431   6.213 -0.3298  0.3220 -0.2241
   63SAPC   O14 5006   5.660   5.443   6.232 -0.0793 -0.5842  0.5883
   63SAPC   O12 5007   5.513   5.647   6.259  0.2013  0.3503 -0.2272
   63SAPC   O11 5008   5.510   5.470   6.436 -0.7403  0.5453 -0.8281
   63SAPC    C1 5009   5.481   5.342   6.490  0.0140 -0.5419 -0.4592
   63SAPC    HA 5010   5.430   5.268   6.425  0.5619 -1.3618  0.0335
   63SAPC    HB 5011   5.574   5.289   6.518  0.6733  1.6544  1.8753
   63SAPC    C2 5012   5.401   5.349   6.619 -0.2723 -0.7354  0.2640
   63SAPC    HS 5013   5.298   5.390   6.606 -0.1628 -0.0881  1.2986
   63SAPC   O21 5014   5.477   5.406   6.722 -0.3463 -0.6002 -0.1557
   63SAPC   C21 5015   5.438   5.515   6.766 -0.0636 -0.2593  0.1012
   63SAPC   O22 5016   5.345   5.587   6.727 -0.4440  0.2217 -0.3170
   63SAPC   C22 5017   5.523   5.547   6.886  0.1651  0.3787 -0.5920
   63SAPC   H2R 5018   5.583   5.460   6.920  0.4095  0.7675 -0.0069
   63SAPC   H2S 5019   5.581   5.635   6.851 -1.1492  0.1884 -3.5184
   63SAPC    C3 5020   5.364   5.203   6.659  0.5370  0.1270  0.8577
   63SAPC    HX 5021   5.459   5.144   6.665  1.3836  1.3341 -0.0656
   63SAPC    HY 5022   5.304   5.167   6.572 -0.6676  0.6939  1.4372
   63SAPC   O31 5023   5.278   5.204   6.775 -0.3593 -0.2406  0.1027
   63SAPC   C31 5024   5.294   5.107   6.855  0.0253  0.2505 -0.0166
   63SAPC   O32 5025   5.381   5.016   6.854  0.3987 -0.0638  0.5711
   63SAPC   C32 5026   5.180   5.120   6.957 -0.0239  0.0725  0.7019
   63SAPC   H2X 5027   5.085   5.089   6.908 -0.1388  1.2683  0.1290
   63SAPC   H2Y 5028   5.173   5.229   6.972  0.1204 -0.0848  2.0145
   63SAPC   C23 5029   5.432   5.594   7.000  0.1161  0.7647  0.4199
   63SAPC   H3R 5030   5.372   5.681   6.965  1.3366  2.0072  1.3402
   63SAPC   H3S 5031   5.492   5.633   7.085 -0.4873 -2.0734  2.2753
   63SAPC   C24 5032   5.338   5.484   7.049  0.0444 -0.3366 -0.4793
   63SAPC   H4R 5033   5.286   5.433   6.965 -0.5439 -1.0880  0.3084
   63SAPC   H4S 5034   5.247   5.516   7.105  0.9330  1.2032  0.1258
   63SAPC   C25 5035   5.421   5.387   7.121  0.4795 -0.1544  0.2016
   63SAPC   H5R 5036   5.503   5.346   7.060 -0.4072  0.8552 -1.7474
   63SAPC   C26 5037   5.424   5.366   7.254  0.4591 -0.3940 -0.2893
   63SAPC   H6R 5038   5.480   5.279   7.290  2.0476 -0.4014 -2.5933
   63SAPC   C27 5039   5.341   5.449   7.349 -0.5576 -0.1940  0.0970
   63SAPC   H7R 5040   5.248   5.391   7.366 -0.3100 -0.7379 -0.3551
   63SAPC   H7S 5041   5.304   5.543   7.303  0.4797 -1.0072 -2.5571
   63SAPC   C28 5042   5.396   5.492   7.475  0.0232 -1.0378 -0.0366
   63SAPC   H8R 5043   5.447   5.590   7.476  2.3260 -2.1583  0.3158
   63SAPC   C29 5044   5.386   5.432   7.589 -0.0905  0.0373  0.2711
   63SAPC   H9R 5045   5.406   5.495   7.677  1.3188 -2.1365  1.6103
   63SAPC  C210 5046   5.330   5.290   7.617  0.6888 -0.6621  0.6604
   63SAPC  H10R 5047   5.421   5.238   7.654  0.9257 -0.9542 -0.3255
   63SAPC  H10S 5048   5.292   5.238   7.527 -0.8820 -1.2792  1.6392
   63SAPC  C211 5049   5.233   5.312   7.730 -0.0311 -0.3163 -0.2216
   63SAPC  H11R 5050   5.137   5.343   7.686  0.9130  1.6116 -1.0754
   63SAPC  C212 5051   5.252   5.291   7.862 -0.3062  1.0092 -0.2325
   63SAPC  H12R 5052   5.179   5.333   7.934  0.4703  0.6895  0.7616
   63SAPC  C213 5053   5.379   5.249   7.937 -0.4014  0.1009 -0.2571
   63SAPC  H13R 5054   5.442   5.185   7.872 -0.7204 -0.6509  0.1610
   63SAPC  H13S 5055   5.354   5.173   8.015 -1.7114 -1.7913 -2.3771
   63SAPC  C214 5056   5.451   5.365   8.002  0.2605 -0.3010  0.3443
   63SAPC  H14R 5057   5.542   5.398   7.950 -0.6577 -1.1357 -1.9370
   63SAPC  C215 5058   5.436   5.415   8.127  0.0574 -0.2845  0.1416
   63SAPC  H15R 5059   5.504   5.494   8.162 -1.3366  0.8833  0.2959
   63SAPC  C216 5060   5.334   5.363   8.223  0.2436  0.3480 -0.5404
   63SAPC  H16R 5061   5.363   5.267   8.270  1.2320  0.7520 -0.3073
   63SAPC  H16S 5062   5.234   5.344   8.178  1.1997 -0.1653 -2.5762
   63SAPC  C217 5063   5.315   5.468   8.333 -0.0761  0.3789 -0.1062
   63SAPC  H17R 5064   5.406   5.480   8.396 -0.3613 -1.2845  0.6654
   63SAPC  H17S 5065   5.230   5.430   8.393  0.7602 -0.8623  0.3526
   63SAPC  C218 5066   5.261   5.607   8.280 -0.1964  1.2783 -0.2899
   63SAPC  H18R 5067   5.170   5.600   8.217 -1.1760 -0.3735  1.2426
   63SAPC  H18S 5068   5.337   5.640   8.205 -0.6832  0.0620 -1.3513
   63SAPC  C219 5069   5.238   5.718   8.385 -0.9253  0.0760 -0.3109
   63SAPC  H19R 5070   5.200   5.813   8.341 -0.1839  0.9635  0.8791
   63SAPC  H19S 5071   5.333   5.740   8.438 -1.4605  1.7234  0.0379
   63SAPC  C220 5072   5.132   5.686   8.490 -0.0087 -0.3482 -0.5587
   63SAPC  H20R 5073   5.168   5.622   8.573 -0.3610 -1.6142 -1.3451
   63SAPC  H20S 5074   5.050   5.629   8.440 -1.4766  0.6594  0.6061
   63SAPC  H20T 5075   5.091   5.783   8.525 -0.7784 -0.3484 -1.4215
   63SAPC   C33 5076   5.227   5.033   7.077 -0.3804  0.6523  0.6697
   63SAPC   H3X 5077   5.324   5.067   7.118 -0.3242 -1.7582  2.8070
   63SAPC   H3Y 5078   5.236   4.930   7.035  3.5287  1.6667 -1.4872
   63SAPC   C34 5079   5.114   5.032   7.183  0.6353  0.6845 -0.1476
   63SAPC   H4X 5080   5.030   4.967   7.150  0.8307  2.3330 -4.6434
   63SAPC   H4Y 5081   5.069   5.133   7.176 -2.2501 -0.5892 -2.9313
   63SAPC   C35 5082   5.165   4.992   7.319 -0.2450  0.1964 -0.4979
   63SAPC   H5X 5083   5.260   5.046   7.340 -0.1804 -0.3105  0.5324
   63SAPC   H5Y 5084   5.184   4.883   7.326  2.0225  0.4856 -1.3244
   63SAPC   C36 5085   5.077   5.031   7.433  0.2451 -0.3735 -0.6874
   63SAPC   H6X 5086   4.970   5.014   7.410  0.0680  2.1762 -2.0016
   63SAPC   H6Y 5087   5.080   5.139   7.456  0.3201 -0.8026  1.5719
   63SAPC   C37 5088   5.127   4.953   7.551  0.2756 -0.1835 -0.3109
   63SAPC   H7X 5089   5.232   4.977   7.576  0.4029  0.6809 -1.5520
   63SAPC   H7Y 5090   5.152   4.847   7.527  0.7313  0.1699 -1.4530
   63SAPC   C38 5091   5.034   4.964   7.663 -0.6682  0.2452 -0.2697
   63SAPC   H8X 5092   4.937   4.916   7.639 -0.2098 -0.8992  0.0865
   63SAPC   H8Y 5093   5.009   5.072   7.670 -0.1923  0.4216 -1.1788
   63SAPC   C39 5094   5.088   4.924   7.802 -0.2983 -0.3732 -0.5102
   63SAPC   H9X 5095   5.193   4.955   7.822 -0.6531  0.8116 -0.3738
   63SAPC   H9Y 5096   5.097   4.815   7.785 -2.2825 -0.3795 -1.7666
   63SAPC  C310 5097   4.986   4.956   7.912  0.0050  0.2012  0.5437
   63SAPC  H10X 5098   4.881   4.920   7.901  0.0455 -0.0647  0.9816
   63SAPC  H10Y 5099   4.981   5.066   7.921  1.5625  0.5026 -1.6653
   63SAPC  C311 5100   5.027   4.892   8.048 -0.2003 -0.1971 -0.0503
   63SAPC  H11X 5101   5.068   4.794   8.017  0.2359 -0.3443  0.9678
   63SAPC  H11Y 5102   4.932   4.872   8.103  1.7152 -0.1494  3.5801
   63SAPC  C312 5103   5.127   4.966   8.134 -0.7691  0.0971  0.2350
   63SAPC  H12X 5104   5.084   5.068   8.148 -1.7487 -0.4509  1.3784
   63SAPC  H12Y 5105   5.217   4.975   8.069  0.1829 -0.6016  1.4045
   63SAPC  C313 5106   5.154   4.905   8.271 -0.0503 -0.0086  0.5581
   63SAPC  H13X 5107   5.177   4.797   8.259  1.4560  0.4243 -0.9169
   63SAPC  H13Y 5108   5.066   4.903   8.338 -0.7115 -3.7847 -0.2159
   63SAPC  C314 5109   5.267   4.980   8.337 -0.2665  0.0408 -0.5315
   63SAPC  H14X 5110   5.233   5.085   8.351  1.3634  0.4997  0.1868
   63SAPC  H14Y 5111   5.353   4.996   8.268 -0.3340  1.2438 -0.3521
   63SAPC  C315 5112   5.312   4.922   8.471  0.0213 -0.5013  0.3012
   63SAPC  H15X 5113   5.374   4.832   8.450  0.6842 -0.2060  0.9432
   63SAPC  H15Y 5114   5.230   4.890   8.540  0.0884 -2.6157 -0.5310
   63SAPC  C316 5115   5.400   5.015   8.560  0.9033  0.6016 -0.1092
   63SAPC  H16X 5116   5.399   4.966   8.660  0.6134 -2.4979 -1.5305
   63SAPC  H16Y 5117   5.348   5.113   8.560  1.5549  1.0329  2.6989
   63SAPC  C317 5118   5.542   5.047   8.524 -0.1288  0.8935  0.0573
   63SAPC  H17X 5119   5.544   5.093   8.423  0.8530  1.6103  0.3883
   63SAPC  H17Y 5120   5.587   4.947   8.507 -0.0768  1.0090 -0.5133
   63SAPC  C318 5121   5.609   5.132   8.624 -0.2436  0.0670  0.3902
   63SAPC  H18X 5122   5.611   5.076   8.720  0.7967 -2.5324 -1.0593
   63SAPC  H18Y 5123   5.541   5.221   8.622 -0.1843  0.2552  2.9721
   63SAPC  H18Z 5124   5.712   5.160   8.593 -0.4730 -0.6706 -1.1422
   64SAPC     N 5125   0.310   5.729   5.559  0.3952 -0.6112  0.6605
   64SAPC   C12 5126   0.199   5.713   5.662  0.0835  0.2831  0.4552
   64SAPC  H12A 5127   0.125   5.652   5.611  1.8923 -2.2312  0.6722
   64SAPC  H12B 5128   0.158   5.807   5.695  1.5172  0.8703  0.5902
   64SAPC   C13 5129   0.259   5.837   5.465  0.2439 -0.1759  0.5812
   64SAPC  H13A 5130   0.181   5.809   5.396  1.8673 -0.6098 -1.1887
   64SAPC  H13B 5131   0.227   5.928   5.513 -2.0692  0.6446 -2.2358
   64SAPC  H13C 5132   0.341   5.877   5.406  0.9210 -1.9395  0.2501
   64SAPC   C14 5133   0.440   5.780   5.616  0.0319 -0.5334 -0.0790
   64SAPC  H14A 5134   0.484   5.700   5.674  1.0633  1.2346  1.7073
   64SAPC  H14B 5135   0.511   5.813   5.542  1.2564  0.8720  1.6298
   64SAPC  H14C 5136   0.419   5.860   5.686  4.3741 -0.0923  1.0151
   64SAPC   C15 5137   0.334   5.609   5.474 -0.6344  0.1576 -0.0150
   64SAPC  H15A 5138   0.423   5.625   5.415  1.3935  2.1640  3.2906
   64SAPC  H15B 5139   0.342   5.530   5.546  1.7772  1.5905  1.4102
   64SAPC  H15C 5140   0.248   5.590   5.410 -0.4959  0.1484 -0.1998
   64SAPC   C11 5141   0.234   5.638   5.788 -0.1385  0.1893 -0.3285
   64SAPC  H11A 5142   0.327   5.679   5.833  0.9966 -1.8049 -0.7172
   64SAPC  H11B 5143   0.257   5.530   5.770  0.1664  0.0667  0.7342
   64SAPC     P 5144   0.086   5.776   5.953  0.0211  0.3232  0.1410
   64SAPC   O13 5145   0.035   5.869   5.850  0.1021  0.1933 -0.8002
   64SAPC   O14 5146  -0.007   5.754   6.066  0.6126 -0.0250 -0.0408
   64SAPC   O12 5147   0.124   5.637   5.888 -0.2664  0.0468  0.1501
   64SAPC   O11 5148   0.227   5.831   5.997 -0.0299 -0.1955 -1.0820
   64SAPC    C1 5149   0.311   5.754   6.088  1.1171 -0.5729 -0.0668
   64SAPC    HA 5150   0.308   5.647   6.059  1.1625 -0.6893  0.3586
   64SAPC    HB 5151   0.413   5.796   6.080  0.8887 -0.0402 -0.2173
   64SAPC    C2 5152   0.271   5.774   6.238 -0.0037  0.9290 -0.2788
   64SAPC    HS 5153   0.164   5.748   6.249  0.2070 -0.4139 -1.1698
   64SAPC   O21 5154   0.306   5.908   6.276  0.1564 -0.8472  0.1825
   64SAPC   C21 5155   0.219   5.965   6.361 -0.2510 -0.3109 -0.1869
   64SAPC   O22 5156   0.122   5.919   6.412  0.0585 -0.1250  0.6622
   64SAPC   C22 5157   0.268   6.103   6.401  1.0958  0.1266  0.4291
   64SAPC   H2R 5158   0.372   6.110   6.437  1.8099  1.0887 -1.6181
   64SAPC   H2S 5159   0.269   6.167   6.310  1.8910  1.1905  1.1625
   64SAPC    C3 5160   0.346   5.676   6.327 -0.0295  0.8410 -0.0570
   64SAPC    HX 5161   0.456   5.691   6.314  0.3495 -0.8405  0.8382
   64SAPC    HY 5162   0.323   5.573   6.291 -0.9257  1.0891 -0.2086
   64SAPC   O31 5163   0.301   5.687   6.468  0.5084 -0.5797 -0.1307
   64SAPC   C31 5164   0.392   5.701   6.564 -0.3280 -0.8063 -0.1374
   64SAPC   O32 5165   0.512   5.703   6.544 -0.0260 -0.8607  0.4757
   64SAPC   C32 5166   0.328   5.708   6.700 -0.8881 -0.6312 -0.3532
   64SAPC   H2X 5167   0.361   5.616   6.753  0.9810 -0.3951 -1.0150
   64SAPC   H2Y 5168   0.218   5.711   6.690 -1.2101  2.5388  2.3772
   64SAPC   C23 5169   0.167   6.150   6.503  0.7809  0.7785 -0.0615
   64SAPC   H3R 5170   0.162   6.080   6.589 -0.2521 -1.9189 -2.1826
   64SAPC   H3S 5171   0.068   6.156   6.454  0.5998  1.7394  0.3997
   64SAPC   C24 5172   0.201   6.283   6.574 -0.0983 -0.5032 -0.5367
   64SAPC   H4R 5173   0.279   6.263   6.651 -0.0297  1.7113  0.0291
   64SAPC   H4S 5174   0.108   6.324   6.618 -0.9187 -2.4185 -0.3745
   64SAPC   C25 5175   0.263   6.391   6.483  0.2998  0.4310  0.1032
   64SAPC   H5R 5176   0.269   6.364   6.376  2.4693 -0.6656  0.4542
   64SAPC   C26 5177   0.308   6.506   6.537  0.0171  0.3227  0.4698
   64SAPC   H6R 5178   0.363   6.579   6.477 -0.1299  2.5258  2.8543
   64SAPC   C27 5179   0.292   6.538   6.685 -1.1074  0.4286 -0.9540
   64SAPC   H7R 5180   0.238   6.458   6.740 -1.7257  1.8046  0.5017
   64SAPC   H7S 5181   0.232   6.631   6.694 -1.8796  0.1543 -2.7817
   64SAPC   C28 5182   0.428   6.554   6.749  0.1863 -0.9782  0.1446
   64SAPC   H8R 5183   0.508   6.555   6.673 -1.0287  2.1795 -1.2426
   64SAPC   C29 5184   0.446   6.582   6.882  0.4233 -0.1594 -0.1628
   64SAPC   H9R 5185   0.543   6.564   6.930 -0.0693 -0.5737  0.7221
   64SAPC  C210 5186   0.338   6.595   6.990  0.1441 -0.9858  0.4332
   64SAPC  H10R 5187   0.249   6.634   6.937  1.4599 -0.4424 -1.5087
   64SAPC  H10S 5188   0.361   6.671   7.068 -2.2622 -0.6298  0.8557
   64SAPC  C211 5189   0.320   6.456   7.047 -0.4128  0.4178 -0.3812
   64SAPC  H11R 5190   0.330   6.378   6.970 -0.1099  0.1977 -0.1197
   64SAPC  C212 5191   0.278   6.414   7.170 -0.1933  0.7838  0.6737
   64SAPC  H12R 5192   0.286   6.306   7.189  2.3161  0.8067  0.0768
   64SAPC  C213 5193   0.238   6.507   7.284  0.1821  0.1359  0.3157
   64SAPC  H13R 5194   0.131   6.486   7.302  0.2457 -1.4173 -0.9481
   64SAPC  H13S 5195   0.259   6.615   7.265 -0.1601  0.2285  0.4524
   64SAPC  C214 5196   0.314   6.478   7.410  0.1115  0.4522  0.1099
   64SAPC  H14R 5197   0.420   6.457   7.387  0.3088 -0.0928  1.3960
   64SAPC  C215 5198   0.275   6.456   7.540  0.7425 -0.2945 -0.4150
   64SAPC  H15R 5199   0.354   6.449   7.617  0.0085 -0.6822  0.3138
   64SAPC  C216 5200   0.132   6.457   7.582 -0.0688 -0.8020  0.0134
   64SAPC  H16R 5201   0.084   6.392   7.506  1.3247 -0.5556 -1.1328
   64SAPC  H16S 5202   0.090   6.559   7.584  0.0732 -0.7317 -0.4534
   64SAPC  C217 5203   0.115   6.402   7.732 -0.1180  0.1131 -0.0803
   64SAPC  H17R 5204   0.160   6.301   7.739 -0.0917  0.0681 -0.8416
   64SAPC  H17S 5205   0.008   6.399   7.762  0.0615 -0.1631  0.5488
   64SAPC  C218 5206   0.170   6.496   7.839 -0.4924  0.2013  1.0453
   64SAPC  H18R 5207   0.128   6.597   7.818 -2.4001 -1.2430 -3.0193
   64SAPC  H18S 5208   0.281   6.500   7.836 -0.3133 -3.0252 -0.1445
   64SAPC  C219 5209   0.138   6.456   7.984 -0.0777  0.5548  0.2450
   64SAPC  H19R 5210   0.032   6.429   7.998 -0.4611  1.4636 -0.7425
   64SAPC  H19S 5211   0.178   6.535   8.051  2.2746  0.1782 -0.6104
   64SAPC  C220 5212   0.222   6.336   8.015  0.0931  0.4479  0.2519
   64SAPC  H20R 5213   0.330   6.358   7.997 -0.0454 -0.1324 -1.5716
   64SAPC  H20S 5214   0.192   6.245   7.958 -0.5644  0.6737  0.2314
   64SAPC  H20T 5215   0.221   6.299   8.120  2.3551 -4.0898 -1.0321
   64SAPC   C33 5216   0.362   5.831   6.791  1.0083  0.0313  0.4421
   64SAPC   H3X 5217   0.305   5.916   6.747 -1.2278 -0.8576  1.4406
   64SAPC   H3Y 5218   0.471   5.848   6.785  0.8056  1.3735  0.1377
   64SAPC   C34 5219   0.315   5.815   6.938  0.5110  0.0961  0.5719
   64SAPC   H4X 5220   0.344   5.712   6.967 -0.9707 -0.1366  1.2982
   64SAPC   H4Y 5221   0.205   5.824   6.946  0.3537 -1.5438  0.5292
   64SAPC   C35 5222   0.371   5.924   7.029  0.1343 -0.8627 -0.5296
   64SAPC   H5X 5223   0.364   6.021   6.975 -1.0710 -0.3651  0.4676
   64SAPC   H5Y 5224   0.481   5.910   7.042 -0.0940 -1.3316  1.2381
   64SAPC   C36 5225   0.307   5.921   7.166 -0.1442 -0.1253 -0.7193
   64SAPC   H6X 5226   0.313   5.820   7.212  1.3715 -0.5576 -1.8085
   64SAPC   H6Y 5227   0.200   5.952   7.172 -0.3040 -0.8800  1.4937
   64SAPC   C37 5228   0.382   6.008   7.267  0.0695 -0.4473 -0.0060
   64SAPC   H7X 5229   0.361   6.116   7.258 -0.6723 -0.4808  1.1726
   64SAPC   H7Y 5230   0.490   5.988   7.251 -0.2486 -2.6506  0.1762
   64SAPC   C38 5231   0.348   5.984   7.416 -0.1563 -0.4783  0.5041
   64SAPC   H8X 5232   0.238   5.977   7.426 -0.5296  2.7454 -0.2920
   64SAPC   H8Y 5233   0.384   6.080   7.459 -0.5806  1.6725 -3.4255
   64SAPC   C39 5234   0.418   5.862   7.477 -1.0460 -0.4906  0.3774
   64SAPC   H9X 5235   0.526   5.886   7.489 -0.6762 -2.0694  0.4111
   64SAPC   H9Y 5236   0.410   5.769   7.415  1.4874 -0.9642  0.6365
   64SAPC  C310 5237   0.361   5.819   7.610  0.8896  0.5940 -0.4751
   64SAPC  H10X 5238   0.274   5.752   7.593  0.6735  0.9926 -0.9786
   64SAPC  H10Y 5239   0.325   5.910   7.663 -2.2675 -0.8267  0.0508
   64SAPC  C311 5240   0.462   5.728   7.677  0.4063  0.2760 -0.9520
   64SAPC  H11X 5241   0.557   5.779   7.705  0.6114 -0.8944  0.5619
   64SAPC  H11Y 5242   0.485   5.636   7.620 -2.8090 -2.3442  1.6093
   64SAPC  C312 5243   0.413   5.678   7.815  0.6739 -0.2406 -0.1314
   64SAPC  H12X 5244   0.308   5.644   7.801  0.1244  2.0743 -2.4734
   64SAPC  H12Y 5245   0.404   5.769   7.877 -0.5340 -0.1378 -0.4195
   64SAPC  C313 5246   0.501   5.577   7.883  0.1240 -0.0147  0.4578
   64SAPC  H13X 5247   0.468   5.575   7.989 -1.1715 -0.7007  0.0706
   64SAPC  H13Y 5248   0.607   5.607   7.875  0.6571 -2.0752 -0.8265
   64SAPC  C314 5249   0.487   5.439   7.822  0.5145 -0.2175 -0.1417
   64SAPC  H14X 5250   0.581   5.388   7.852  0.6601 -0.3564 -0.8155
   64SAPC  H14Y 5251   0.498   5.427   7.712 -0.8675 -0.4319 -0.2777
   64SAPC  C315 5252   0.367   5.353   7.863 -0.6159 -0.2414  0.1362
   64SAPC  H15X 5253   0.376   5.254   7.815  2.9091  0.4585 -0.9609
   64SAPC  H15Y 5254   0.281   5.414   7.826  1.4421  2.6949 -0.1811
   64SAPC  C316 5255   0.355   5.335   8.013  0.4765 -0.9094  0.3676
   64SAPC  H16X 5256   0.377   5.417   8.085 -2.0234  0.9638 -0.8408
   64SAPC  H16Y 5257   0.424   5.251   8.034 -1.0963 -2.5352 -0.5897
   64SAPC  C317 5258   0.214   5.281   8.040  0.5892  0.1041  0.1699
   64SAPC  H17X 5259   0.191   5.188   7.984 -1.6563  1.6085 -1.5777
   64SAPC  H17Y 5260   0.148   5.366   8.012  2.0438  1.5527  0.9191
   64SAPC  C318 5261   0.191   5.261   8.188 -0.7765 -0.2241  0.9586
   64SAPC  H18X 5262   0.223   5.347   8.250  3.0444  0.7140 -1.8867
   64SAPC  H18Y 5263   0.244   5.173   8.231 -1.0945  0.6777  3.2864
   64SAPC  H18Z 5264   0.085   5.237   8.207 -0.8696 -1.6185 -0.9306
   65SAPC     N 5265   2.263   0.214   6.083 -0.2504 -0.4088 -0.3692
   65SAPC   C12 5266   2.288   0.151   6.214  0.8050  0.0822  0.0247
   65SAPC  H12A 5267   2.394   0.151   6.231  0.6808  0.2703  0.8387
   65SAPC  H12B 5268   2.270   0.045   6.201  2.3121 -0.1108 -0.6331
   65SAPC   C13 5269   2.279   0.368   6.084  0.1378  1.3300  0.3453
   65SAPC  H13A 5270   2.244   0.415   5.993 -3.3243 -0.7549  0.4413
   65SAPC  H13B 5271   2.215   0.404   6.163 -1.8107 -2.1024  0.5198
   65SAPC  H13C 5272   2.382   0.394   6.108  0.8518 -1.0229  0.0621
   65SAPC   C14 5273   2.365   0.169   5.987 -0.4337  0.0649 -0.3540
   65SAPC  H14A 5274   2.463   0.193   6.024 -0.0243  0.7544 -1.8045
   65SAPC  H14B 5275   2.361   0.063   5.962  1.4420 -0.2019  0.3052
   65SAPC  H14C 5276   2.348   0.224   5.895 -3.6163  2.6364  1.5743
   65SAPC   C15 5277   2.131   0.179   6.029  0.3657 -0.3349 -0.4307
   65SAPC  H15A 5278   2.051   0.221   6.090  0.0901 -0.8842 -0.4097
   65SAPC  H15B 5279   2.123   0.209   5.926 -0.5105  1.1820  0.0400
   65SAPC  H15C 5280   2.111   0.073   6.029  1.0951 -0.5652  2.4400
   65SAPC   C11 5281   2.212   0.201   6.345  0.2697 -0.1961  0.2335
   65SAPC  H11A 5282   2.246   0.304   6.370 -0.5240 -0.2593  1.6636
   65SAPC  H11B 5283   2.241   0.144   6.436  3.1038 -0.4378 -0.7123
   65SAPC     P 5284   1.981   0.089   6.372 -0.1238 -0.2679  0.3359
   65SAPC   O13 5285   1.883   0.083   6.261  0.3395 -1.0004 -0.6116
   65SAPC   O14 5286   2.065  -0.025   6.416  0.1653 -0.2011 -0.2409
   65SAPC   O12 5287   2.070   0.210   6.325 -0.1061 -0.2750  0.2525
   65SAPC   O11 5288   1.927   0.157   6.504  0.3521 -0.4335  0.0653
   65SAPC    C1 5289   1.864   0.287   6.510 -0.3928  0.0257 -0.4631
   65SAPC    HA 5290   1.842   0.312   6.404  0.3118 -1.2858 -0.9321
   65SAPC    HB 5291   1.768   0.272   6.563  0.5800 -2.2499  0.7606
   65SAPC    C2 5292   1.946   0.388   6.601 -0.2165 -0.3037  0.3835
   65SAPC    HS 5293   2.041   0.386   6.544 -0.9077 -0.5542 -0.7871
   65SAPC   O21 5294   1.952   0.355   6.740  0.0562  0.0750 -0.2690
   65SAPC   C21 5295   2.072   0.355   6.796 -0.2730 -0.0807 -0.4435
   65SAPC   O22 5296   2.176   0.382   6.738 -0.0338  0.1292 -1.2175
   65SAPC   C22 5297   2.056   0.333   6.950 -0.4990 -0.2792 -0.1777
   65SAPC   H2R 5298   1.987   0.412   6.988 -1.0227  0.4380 -2.4866
   65SAPC   H2S 5299   1.996   0.240   6.959 -1.0030 -0.0111 -0.6755
   65SAPC    C3 5300   1.885   0.533   6.582  0.2834 -0.7779  0.1444
   65SAPC    HX 5301   1.778   0.531   6.612  0.4300  0.0817  0.7397
   65SAPC    HY 5302   1.891   0.568   6.477 -1.0921 -2.2567 -0.4680
   65SAPC   O31 5303   1.938   0.630   6.677  0.0015 -0.2580  0.3646
   65SAPC   C31 5304   1.876   0.750   6.675  0.6242 -0.1029 -0.7166
   65SAPC   O32 5305   1.781   0.778   6.604 -0.0957  0.0591  0.3543
   65SAPC   C32 5306   1.944   0.843   6.778  0.0714  0.0819 -0.3842
   65SAPC   H2X 5307   1.889   0.937   6.799  0.1308  0.1175 -0.3891
   65SAPC   H2Y 5308   2.041   0.866   6.729 -1.6607  1.5537 -3.4770
   65SAPC   C23 5309   2.184   0.332   7.038  0.7275 -0.6650 -0.0866
   65SAPC   H3R 5310   2.261   0.271   6.986  2.1681  1.1084 -0.1127
   65SAPC   H3S 5311   2.166   0.284   7.137 -0.5491 -1.7631 -0.8266
   65SAPC   C24 5312   2.234   0.470   7.053 -0.3378  0.0060 -0.6483
   65SAPC   H4R 5313   2.151   0.536   7.086 -1.3857 -0.7024 -1.8072
   65SAPC   H4S 5314   2.274   0.513   6.958  2.8469 -1.0873  0.0576
   65SAPC   C25 5315   2.335   0.485   7.161  0.1864  0.3639 -0.0163
   65SAPC   H5R 5316   2.435   0.470   7.118  0.2735  0.9206 -0.0164
   65SAPC   C26 5317   2.320   0.506   7.293  0.1284 -0.7157 -0.2452
   65SAPC   H6R 5318   2.413   0.517   7.351  2.1049 -0.6096 -3.1840
   65SAPC   C27 5319   2.195   0.522   7.382 -0.5913 -0.2359 -0.1862
   65SAPC   H7R 5320   2.118   0.578   7.325  0.5793  0.3010 -1.2831
   65SAPC   H7S 5321   2.234   0.580   7.468  4.0957 -0.7028 -1.7246
   65SAPC   C28 5322   2.144   0.386   7.428  0.4012 -0.2664  0.4401
   65SAPC   H8R 5323   2.120   0.308   7.356 -1.4771 -0.8874  1.6586
   65SAPC   C29 5324   2.127   0.350   7.555 -0.6681  0.1568  0.2171
   65SAPC   H9R 5325   2.071   0.258   7.578 -0.0589 -0.6097 -1.2226
   65SAPC  C210 5326   2.167   0.427   7.682  0.1803 -0.0466 -0.2626
   65SAPC  H10R 5327   2.271   0.464   7.666 -0.5735  1.3943 -2.3268
   65SAPC  H10S 5328   2.166   0.348   7.759 -1.8154  0.9487  0.8322
   65SAPC  C211 5329   2.090   0.553   7.720  0.1804  0.0288  0.0438
   65SAPC  H11R 5330   2.022   0.593   7.644 -2.4503  1.4450  2.8774
   65SAPC  C212 5331   2.083   0.618   7.838 -0.1193  0.1990  0.7196
   65SAPC  H12R 5332   2.038   0.718   7.834  1.9580  1.1263 -2.5440
   65SAPC  C213 5333   2.156   0.584   7.961 -0.2406 -0.1187 -0.2814
   65SAPC  H13R 5334   2.224   0.500   7.935  1.2580  1.1175 -0.4872
   65SAPC  H13S 5335   2.086   0.547   8.039 -0.8737 -2.4565 -1.8446
   65SAPC  C214 5336   2.242   0.696   8.007 -0.4020 -0.6000 -0.0432
   65SAPC  H14R 5337   2.334   0.717   7.951 -0.0816 -0.9392  0.3475
   65SAPC  C215 5338   2.217   0.775   8.112  0.2393  0.5741  0.6178
   65SAPC  H15R 5339   2.295   0.845   8.147 -0.5567  2.7681 -1.6585
   65SAPC  C216 5340   2.102   0.771   8.202 -0.3182  0.6516  0.2516
   65SAPC  H16R 5341   2.128   0.695   8.279  0.7769  0.2092 -0.5306
   65SAPC  H16S 5342   2.010   0.729   8.155  0.1783 -1.3146  0.9503
   65SAPC  C217 5343   2.068   0.905   8.279 -0.5792  0.9456  0.2718
   65SAPC  H17R 5344   2.045   0.990   8.211  0.2691  0.4523 -0.6586
   65SAPC  H17S 5345   2.151   0.921   8.352 -1.2001 -0.2750  1.2820
   65SAPC  C218 5346   1.957   0.886   8.375  0.2152 -0.8097  0.3579
   65SAPC  H18R 5347   1.979   0.825   8.464 -0.4380  0.8778  1.7389
   65SAPC  H18S 5348   1.876   0.829   8.324  0.5556  0.7444 -2.0822
   65SAPC  C219 5349   1.900   1.016   8.432  0.2195  0.2668 -0.5738
   65SAPC  H19R 5350   1.864   1.078   8.347 -3.6624 -1.6239 -0.5134
   65SAPC  H19S 5351   1.977   1.070   8.492 -0.1415 -0.2750  0.3949
   65SAPC  C220 5352   1.770   0.992   8.508  0.3344  0.1643  0.3170
   65SAPC  H20R 5353   1.729   1.090   8.542  2.5887  0.9995  0.8140
   65SAPC  H20S 5354   1.783   0.930   8.599 -0.2154 -1.4491 -0.6671
   65SAPC  H20T 5355   1.695   0.947   8.440 -0.1272 -1.6363  1.9507
   65SAPC   C33 5356   1.981   0.769   6.911 -0.1620 -0.4078  0.0096
   65SAPC   H3X 5357   2.078   0.810   6.945 -0.8576  1.2831  0.0602
   65SAPC   H3Y 5358   2.005   0.661   6.910 -0.1290 -0.3981 -0.2435
   65SAPC   C34 5359   1.867   0.791   7.014  0.7836  0.6634  1.5970
   65SAPC   H4X 5360   1.803   0.700   7.019  0.3619  0.7862 -0.6286
   65SAPC   H4Y 5361   1.805   0.880   6.989  1.0379  1.0548  2.3256
   65SAPC   C35 5362   1.934   0.806   7.150  0.5029 -0.1686 -0.5965
   65SAPC   H5X 5363   2.013   0.884   7.149  1.6723 -1.2769 -2.9047
   65SAPC   H5Y 5364   1.978   0.705   7.167  1.4448  0.4820  0.9579
   65SAPC   C36 5365   1.833   0.826   7.257 -0.3244  0.2147 -0.1744
   65SAPC   H6X 5366   1.750   0.753   7.265  2.4611 -3.3860 -1.4640
   65SAPC   H6Y 5367   1.787   0.927   7.259 -2.2634 -0.6096 -0.2639
   65SAPC   C37 5368   1.900   0.816   7.396 -0.0805  0.1422 -0.3887
   65SAPC   H7X 5369   1.993   0.875   7.383 -0.2683  0.1233 -2.0397
   65SAPC   H7Y 5370   1.937   0.715   7.427 -0.0884 -0.1387 -1.2727
   65SAPC   C38 5371   1.813   0.892   7.492  0.4884 -0.3707 -0.4433
   65SAPC   H8X 5372   1.711   0.849   7.482  0.9069 -1.1443 -1.5299
   65SAPC   H8Y 5373   1.807   1.002   7.474  2.6482 -0.1374 -0.0080
   65SAPC   C39 5374   1.868   0.884   7.638 -0.2460 -0.1186  0.5856
   65SAPC   H9X 5375   1.978   0.885   7.624 -0.4210  0.4937 -0.9534
   65SAPC   H9Y 5376   1.845   0.783   7.678  1.8842 -0.7199  0.4264
   65SAPC  C310 5377   1.846   0.997   7.734 -0.6228 -0.8509  0.5406
   65SAPC  H10X 5378   1.738   1.023   7.733 -0.3160  1.0445  3.8549
   65SAPC  H10Y 5379   1.911   1.075   7.689  0.5497 -1.6028  0.8891
   65SAPC  C311 5380   1.879   0.975   7.882 -0.2987  0.4358  0.2050
   65SAPC  H11X 5381   1.856   1.071   7.934  0.1504 -0.9891  3.1982
   65SAPC  H11Y 5382   1.988   0.958   7.893 -0.2688 -0.3528 -1.0838
   65SAPC  C312 5383   1.797   0.860   7.948 -0.1835 -0.2370  0.3503
   65SAPC  H12X 5384   1.818   0.860   8.057 -0.6513 -2.8993  0.4993
   65SAPC  H12Y 5385   1.835   0.764   7.907 -0.5468  0.5502 -1.9632
   65SAPC  C313 5386   1.644   0.861   7.934  0.1114 -0.4177  0.1069
   65SAPC  H13X 5387   1.608   0.874   7.830  1.1250 -1.2166 -0.3577
   65SAPC  H13Y 5388   1.592   0.944   7.988 -2.5433 -1.1246 -1.2178
   65SAPC  C314 5389   1.589   0.726   7.974 -1.0520  0.4380  0.1622
   65SAPC  H14X 5390   1.617   0.648   7.900  1.3559 -2.5270  3.7884
   65SAPC  H14Y 5391   1.480   0.729   7.993 -0.9527 -0.8908  1.0780
   65SAPC  C315 5392   1.640   0.675   8.108 -0.1199  0.9386 -0.5663
   65SAPC  H15X 5393   1.628   0.753   8.186  1.6198  0.6023  0.0746
   65SAPC  H15Y 5394   1.744   0.637   8.105  0.5128  2.6166 -0.8350
   65SAPC  C316 5395   1.544   0.561   8.158 -0.2732  0.1637  0.3510
   65SAPC  H16X 5396   1.505   0.503   8.072 -3.2892  2.4048  0.0320
   65SAPC  H16Y 5397   1.456   0.610   8.205  0.6381  1.8589  0.3815
   65SAPC  C317 5398   1.605   0.457   8.257  0.2490  0.9897 -0.1447
   65SAPC  H17X 5399   1.630   0.515   8.348 -4.6462  1.0569  1.4453
   65SAPC  H17Y 5400   1.698   0.413   8.215  0.3355 -1.7399  2.5554
   65SAPC  C318 5401   1.509   0.350   8.299  0.1542 -0.3020 -0.1997
   65SAPC  H18X 5402   1.412   0.399   8.325  0.7654  1.5329 -1.1729
   65SAPC  H18Y 5403   1.542   0.287   8.384 -0.3030  1.5580  1.4429
   65SAPC  H18Z 5404   1.491   0.275   8.219  2.0904 -1.1887  0.1636
   66SAPC     N 5405   3.685   0.463   5.938  0.2495  0.0891 -0.4786
   66SAPC   C12 5406   3.820   0.400   5.947 -0.4808  0.6822 -0.7028
   66SAPC  H12A 5407   3.902   0.469   5.953 -0.3979  0.4939  0.6200
   66SAPC  H12B 5408   3.841   0.345   5.856  0.7714 -1.6502  0.9037
   66SAPC   C13 5409   3.691   0.573   5.837 -0.1669 -0.1556 -0.1015
   66SAPC  H13A 5410   3.589   0.590   5.807  0.3167  1.5798 -0.9414
   66SAPC  H13B 5411   3.725   0.669   5.874  0.1624  0.7085 -2.5133
   66SAPC  H13C 5412   3.746   0.548   5.748 -0.9310  0.3955 -0.7444
   66SAPC   C14 5413   3.592   0.358   5.891  0.1420  0.5876 -0.2014
   66SAPC  H14A 5414   3.582   0.282   5.967 -1.1749  1.0905  0.1475
   66SAPC  H14B 5415   3.493   0.398   5.875 -0.3754  0.3846  2.0984
   66SAPC  H14C 5416   3.625   0.299   5.807 -0.8782  0.8826 -0.8165
   66SAPC   C15 5417   3.627   0.501   6.073 -0.1230  0.0702 -0.2073
   66SAPC  H15A 5418   3.685   0.583   6.113  1.4359 -0.9866 -0.2109
   66SAPC  H15B 5419   3.526   0.537   6.072  0.7942  3.2082  2.3391
   66SAPC  H15C 5420   3.638   0.411   6.132  0.8867  0.1798 -0.1998
   66SAPC   C11 5421   3.830   0.298   6.068 -0.2695  0.7072  0.1480
   66SAPC  H11A 5422   3.903   0.216   6.046 -2.0713 -0.4495 -1.8853
   66SAPC  H11B 5423   3.734   0.249   6.095  0.0079 -0.2591 -0.5749
   66SAPC     P 5424   4.022   0.425   6.189 -0.0040 -0.3693  0.1623
   66SAPC   O13 5425   4.084   0.446   6.058  0.0686  0.3286 -0.8543
   66SAPC   O14 5426   4.017   0.547   6.276 -0.0535  0.4114  0.1761
   66SAPC   O12 5427   3.867   0.369   6.183 -0.1963 -0.3202 -0.6440
   66SAPC   O11 5428   4.096   0.307   6.257 -0.4030 -0.3490  0.3144
   66SAPC    C1 5429   4.040   0.198   6.329 -0.0381 -0.2060 -0.0900
   66SAPC    HA 5430   3.971   0.139   6.266  0.0601 -1.6663  1.1245
   66SAPC    HB 5431   4.122   0.125   6.344  1.6139  1.0104 -2.4093
   66SAPC    C2 5432   3.971   0.252   6.462  1.0378  0.8603  0.1121
   66SAPC    HS 5433   3.904   0.335   6.429 -0.9606 -1.4116 -2.0804
   66SAPC   O21 5434   4.076   0.310   6.542  0.3587  0.1163  0.1482
   66SAPC   C21 5435   4.031   0.400   6.631 -0.2458 -0.2571 -0.5164
   66SAPC   O22 5436   3.911   0.436   6.645  0.2546  0.1888 -0.6087
   66SAPC   C22 5437   4.151   0.456   6.708 -0.0242 -0.5863 -0.6294
   66SAPC   H2R 5438   4.229   0.381   6.735 -0.2244  0.1329  2.2872
   66SAPC   H2S 5439   4.193   0.530   6.637 -0.8782  0.4713 -0.0603
   66SAPC    C3 5440   3.869   0.154   6.533  0.2584 -0.3097  0.5430
   66SAPC    HX 5441   3.801   0.118   6.453  2.4251  0.2972 -1.6959
   66SAPC    HY 5442   3.825   0.206   6.621  1.3081 -0.3560  1.1185
   66SAPC   O31 5443   3.949   0.038   6.576  0.2988  0.2430  0.2789
   66SAPC   C31 5444   4.010   0.047   6.704  0.7436 -0.1550  0.4100
   66SAPC   O32 5445   3.985   0.143   6.776 -0.5587 -0.5990 -0.0197
   66SAPC   C32 5446   4.093  -0.080   6.737  0.0723 -0.5233 -0.2862
   66SAPC   H2X 5447   4.147  -0.112   6.646  2.5070 -0.4117  1.0349
   66SAPC   H2Y 5448   4.014  -0.153   6.765 -0.2817  0.1265  0.4816
   66SAPC   C23 5449   4.117   0.532   6.833 -0.2513  0.3314  0.5527
   66SAPC   H3R 5450   4.024   0.592   6.819 -0.2491  0.3814  0.7427
   66SAPC   H3S 5451   4.194   0.612   6.838 -1.1665  1.4041 -1.4148
   66SAPC   C24 5452   4.109   0.441   6.959 -0.3687 -0.0637  0.8819
   66SAPC   H4R 5453   4.218   0.448   6.982  0.4153 -1.7715 -1.8408
   66SAPC   H4S 5454   4.085   0.336   6.934  1.3363 -0.0652 -0.9794
   66SAPC   C25 5455   4.025   0.481   7.074  0.0547 -0.0706 -0.2129
   66SAPC   H5R 5456   3.939   0.546   7.053  0.7986  1.4018  1.1098
   66SAPC   C26 5457   4.054   0.464   7.204 -0.6642 -0.1426 -0.3337
   66SAPC   H6R 5458   3.974   0.495   7.272  1.6128  1.8310  1.6701
   66SAPC   C27 5459   4.173   0.403   7.281  0.2499 -0.4325 -0.2927
   66SAPC   H7R 5460   4.210   0.472   7.360  2.6800 -1.5422 -0.3677
   66SAPC   H7S 5461   4.258   0.380   7.213 -0.7803 -1.5162 -1.2465
   66SAPC   C28 5462   4.129   0.271   7.343 -0.2234 -0.2220  0.8140
   66SAPC   H8R 5463   4.131   0.185   7.274  0.8058  1.4317 -1.3470
   66SAPC   C29 5464   4.090   0.243   7.468 -0.6116  0.2901 -0.1371
   66SAPC   H9R 5465   4.053   0.140   7.484 -0.6646  0.4164  0.5950
   66SAPC  C210 5466   4.061   0.346   7.576 -0.2328  0.4155  0.5568
   66SAPC  H10R 5467   3.967   0.328   7.633 -0.5702  1.1941  0.2664
   66SAPC  H10S 5468   4.043   0.446   7.531 -0.1451 -0.0496 -0.5529
   66SAPC  C211 5469   4.176   0.350   7.675 -0.1318  0.3976  0.4623
   66SAPC  H11R 5470   4.270   0.386   7.631  1.3538 -1.4023  1.9514
   66SAPC  C212 5471   4.186   0.287   7.791 -0.3327  0.1994 -0.2458
   66SAPC  H12R 5472   4.271   0.301   7.859  0.3810  1.4599 -1.3570
   66SAPC  C213 5473   4.079   0.194   7.846 -0.0815  0.4699  0.4414
   66SAPC  H13R 5474   4.089   0.100   7.786 -2.1847  1.2292 -1.2303
   66SAPC  H13S 5475   3.979   0.243   7.841  0.1017  1.1426  2.4932
   66SAPC  C214 5476   4.107   0.158   7.985  0.9600  0.4300 -0.0604
   66SAPC  H14R 5477   4.214   0.141   8.006  0.5703 -0.6913  1.1061
   66SAPC  C215 5478   4.027   0.145   8.092 -0.2751 -0.4687  1.2022
   66SAPC  H15R 5479   4.076   0.130   8.190  1.2928 -0.9859  0.3747
   66SAPC  C216 5480   3.880   0.186   8.087  0.9678 -0.0247  0.1583
   66SAPC  H16R 5481   3.822   0.102   8.044  0.7585 -1.2725  2.6846
   66SAPC  H16S 5482   3.866   0.283   8.033  0.8264  0.0672  0.3563
   66SAPC  C217 5483   3.833   0.204   8.233 -0.9416 -0.1213  0.2617
   66SAPC  H17R 5484   3.731   0.250   8.232 -0.4216  1.1021 -1.6007
   66SAPC  H17S 5485   3.909   0.270   8.280 -0.8563  0.5083 -0.7199
   66SAPC  C218 5486   3.823   0.065   8.313  0.0575  0.1214  0.0407
   66SAPC  H18R 5487   3.913   0.055   8.378  0.5084  0.1843 -0.5559
   66SAPC  H18S 5488   3.831  -0.013   8.234 -0.1164  1.0637 -0.9400
   66SAPC  C219 5489   3.699   0.042   8.388  0.4371 -0.7624 -0.1846
   66SAPC  H19R 5490   3.694  -0.064   8.421  1.0208 -0.4507  0.9368
   66SAPC  H19S 5491   3.601   0.055   8.337  2.1060  1.2096 -3.1509
   66SAPC  C220 5492   3.699   0.119   8.519  0.4433 -0.0846  0.8477
   66SAPC  H20R 5493   3.696   0.228   8.496  1.6275 -0.6770 -2.7866
   66SAPC  H20S 5494   3.797   0.094   8.566  1.7971 -0.2969 -1.8665
   66SAPC  H20T 5495   3.611   0.095   8.582 -0.9508 -0.4266 -1.1415
   66SAPC   C33 5496   4.192  -0.069   6.853 -0.1530 -0.3842  0.4459
   66SAPC   H3X 5497   4.219   0.038   6.866  2.5945 -1.1406  1.6484
   66SAPC   H3Y 5498   4.287  -0.121   6.831 -1.4318 -3.9659  2.4245
   66SAPC   C34 5499   4.125  -0.123   6.981 -0.5087 -0.6334  0.3779
   66SAPC   H4X 5500   4.123  -0.234   6.979  3.0356 -0.7827 -0.7500
   66SAPC   H4Y 5501   4.018  -0.094   6.983  0.2207  2.3335  0.6562
   66SAPC   C35 5502   4.190  -0.087   7.117  0.2503  0.5875  0.1837
   66SAPC   H5X 5503   4.195   0.024   7.117  1.1721  0.5855 -1.7933
   66SAPC   H5Y 5504   4.297  -0.116   7.110  0.1830  0.3528  0.1249
   66SAPC   C36 5505   4.122  -0.145   7.235 -0.2817  0.6628 -0.4453
   66SAPC   H6X 5506   4.111  -0.255   7.219  2.1592  0.5114 -1.4554
   66SAPC   H6Y 5507   4.027  -0.089   7.254  0.5018  2.0184 -0.3882
   66SAPC   C37 5508   4.221  -0.116   7.353  0.2147  0.1638 -0.3759
   66SAPC   H7X 5509   4.240  -0.007   7.362 -0.1779  0.1594  0.7407
   66SAPC   H7Y 5510   4.306  -0.180   7.324 -1.2674 -2.2949  0.3928
   66SAPC   C38 5511   4.168  -0.166   7.491  0.1131 -0.6327  0.0970
   66SAPC   H8X 5512   4.110  -0.260   7.479  0.6030 -0.8821 -0.3951
   66SAPC   H8Y 5513   4.085  -0.101   7.524 -2.2081 -3.7102  0.7772
   66SAPC   C39 5514   4.276  -0.181   7.601 -0.6512 -0.3392 -0.4346
   66SAPC   H9X 5515   4.325  -0.081   7.603 -1.0709 -0.1038 -1.4488
   66SAPC   H9Y 5516   4.348  -0.248   7.551  0.4363  2.2824 -2.6144
   66SAPC  C310 5517   4.235  -0.222   7.748 -0.0312 -0.4397  0.8747
   66SAPC  H10X 5518   4.216  -0.331   7.739 -0.1300 -0.2285 -2.8091
   66SAPC  H10Y 5519   4.142  -0.162   7.760  1.9808  4.0057 -2.6894
   66SAPC  C311 5520   4.342  -0.180   7.852 -0.2158 -0.6003  0.1795
   66SAPC  H11X 5521   4.372  -0.074   7.840  0.2893 -0.7375  0.1920
   66SAPC  H11Y 5522   4.436  -0.238   7.838 -0.0048 -0.2262  0.0415
   66SAPC  C312 5523   4.300  -0.211   8.001  0.5079 -0.1793  1.0465
   66SAPC  H12X 5524   4.207  -0.153   8.018 -0.1496 -1.0779  0.6117
   66SAPC  H12Y 5525   4.382  -0.168   8.062  2.3932  0.3470 -1.6713
   66SAPC  C313 5526   4.272  -0.351   8.030 -0.0220 -0.2265 -0.3137
   66SAPC  H13X 5527   4.342  -0.423   7.981  1.8603  1.0100  0.4566
   66SAPC  H13Y 5528   4.172  -0.375   7.987 -0.1471  0.3241 -0.3304
   66SAPC  C314 5529   4.281  -0.392   8.178 -0.1507 -0.1744 -0.4674
   66SAPC  H14X 5530   4.192  -0.348   8.229  1.5189  0.9044  1.6985
   66SAPC  H14Y 5531   4.365  -0.339   8.228  1.4867 -2.6092 -0.5066
   66SAPC  C315 5532   4.290  -0.544   8.206  0.4386  0.2398 -0.8361
   66SAPC  H15X 5533   4.399  -0.564   8.210  0.9119  2.3160 -1.7581
   66SAPC  H15Y 5534   4.242  -0.604   8.126 -0.9364 -0.0836  0.1953
   66SAPC  C316 5535   4.226  -0.584   8.342  1.0511 -1.0771 -0.2121
   66SAPC  H16X 5536   4.225  -0.695   8.347 -2.0474 -1.1926 -1.2637
   66SAPC  H16Y 5537   4.116  -0.566   8.345  0.6040 -3.2727 -1.2009
   66SAPC  C317 5538   4.283  -0.534   8.471 -0.3263  0.1604 -0.1178
   66SAPC  H17X 5539   4.282  -0.423   8.461  1.4791  0.1799 -0.4305
   66SAPC  H17Y 5540   4.385  -0.578   8.457 -0.9433 -1.4472  0.1843
   66SAPC  C318 5541   4.217  -0.575   8.601  0.7839  0.4387  0.6892
   66SAPC  H18X 5542   4.278  -0.522   8.677  0.5344  2.2149 -0.2986
   66SAPC  H18Y 5543   4.214  -0.685   8.611  0.0711  0.4591  0.7745
   66SAPC  H18Z 5544   4.112  -0.538   8.603 -0.2732 -2.3014  2.5955
   67SAPC     N 5545   1.560   3.244   5.911  0.7630 -0.1052 -0.1967
   67SAPC   C12 5546   1.532   3.165   6.040 -0.0475  0.3812  0.1437
   67SAPC  H12A 5547   1.551   3.061   6.019 -1.1115 -0.1852  1.7256
   67SAPC  H12B 5548   1.428   3.182   6.064  0.4790  0.4993  2.6599
   67SAPC   C13 5549   1.529   3.387   5.930 -0.3971 -0.4918 -0.1183
   67SAPC  H13A 5550   1.570   3.445   5.849 -0.5701  1.2924  0.9994
   67SAPC  H13B 5551   1.424   3.411   5.942 -0.8657 -1.5473 -1.8881
   67SAPC  H13C 5552   1.579   3.416   6.022  0.2086 -0.4138 -0.4661
   67SAPC   C14 5553   1.699   3.230   5.871 -0.2240 -0.3442  0.2603
   67SAPC  H14A 5554   1.719   3.124   5.864 -1.6039 -0.5211 -1.6686
   67SAPC  H14B 5555   1.715   3.283   5.778 -0.6879 -1.1743 -0.3091
   67SAPC  H14C 5556   1.768   3.278   5.939 -0.2239 -0.6575  0.4827
   67SAPC   C15 5557   1.471   3.197   5.798  0.0926 -0.6277 -0.1416
   67SAPC  H15A 5558   1.478   3.251   5.704 -2.2694  1.2325  0.6478
   67SAPC  H15B 5559   1.490   3.095   5.769 -0.6540 -0.0073 -3.2116
   67SAPC  H15C 5560   1.369   3.220   5.825  0.2149 -0.5379  0.2404
   67SAPC   C11 5561   1.611   3.201   6.167  0.5981  0.1077  0.1023
   67SAPC  H11A 5562   1.720   3.191   6.148  0.6018  0.5308 -0.1149
   67SAPC  H11B 5563   1.590   3.128   6.248  0.9337  0.5765  0.6203
   67SAPC     P 5564   1.456   3.352   6.304  0.1194 -0.5303 -0.1019
   67SAPC   O13 5565   1.447   3.498   6.331  0.0917 -0.3222  0.2786
   67SAPC   O14 5566   1.337   3.296   6.243  0.4664  0.2978  0.1251
   67SAPC   O12 5567   1.582   3.335   6.208 -0.2263 -0.1131 -0.3510
   67SAPC   O11 5568   1.497   3.277   6.439 -0.4595  0.4070 -0.2856
   67SAPC    C1 5569   1.401   3.258   6.538 -0.0122 -1.3042  0.0871
   67SAPC    HA 5570   1.372   3.351   6.591  0.4585  0.4864 -2.6056
   67SAPC    HB 5571   1.315   3.196   6.506 -1.7716  0.0463  1.9303
   67SAPC    C2 5572   1.476   3.166   6.639  0.3907 -1.1118 -0.1653
   67SAPC    HS 5573   1.469   3.062   6.601  0.6757 -1.3285  0.3716
   67SAPC   O21 5574   1.398   3.160   6.757 -0.1096  1.1787  0.1438
   67SAPC   C21 5575   1.404   3.053   6.833  1.2997  0.3925 -1.0451
   67SAPC   O22 5576   1.449   2.946   6.802 -0.3132 -0.1438  0.1437
   67SAPC   C22 5577   1.351   3.091   6.977 -0.0720 -0.7411  0.0588
   67SAPC   H2R 5578   1.391   3.190   7.007 -3.4418  0.5760  0.5985
   67SAPC   H2S 5579   1.245   3.118   6.959 -0.0860  0.5553  1.8063
   67SAPC    C3 5580   1.614   3.220   6.671 -0.7148 -0.9071 -0.1929
   67SAPC    HX 5581   1.616   3.328   6.697  3.0958 -0.9803  0.3513
   67SAPC    HY 5582   1.683   3.211   6.584 -0.7126 -1.6636 -0.1123
   67SAPC   O31 5583   1.676   3.136   6.772 -0.1900 -0.1011 -0.0592
   67SAPC   C31 5584   1.714   3.204   6.882 -0.5426 -0.4826  0.3295
   67SAPC   O32 5585   1.680   3.320   6.908 -0.0641  0.2917 -0.5441
   67SAPC   C32 5586   1.788   3.111   6.980 -0.6339  0.3584  0.1984
   67SAPC   H2X 5587   1.879   3.068   6.933 -0.3649 -1.6993  2.4220
   67SAPC   H2Y 5588   1.715   3.031   7.003 -1.4230  1.4986  1.9237
   67SAPC   C23 5589   1.365   2.979   7.088 -0.3452 -0.5041  0.1505
   67SAPC   H3R 5590   1.475   2.962   7.095 -0.3150 -0.1506  0.6359
   67SAPC   H3S 5591   1.323   2.886   7.046  1.9400 -1.5876  0.1083
   67SAPC   C24 5592   1.299   3.012   7.221 -0.0829  0.2839 -0.1809
   67SAPC   H4R 5593   1.278   2.917   7.275  1.8384 -0.1190 -0.0839
   67SAPC   H4S 5594   1.198   3.054   7.200 -0.1101  0.1020 -0.4214
   67SAPC   C25 5595   1.376   3.110   7.306 -0.4396 -0.1433 -0.3980
   67SAPC   H5R 5596   1.428   3.189   7.249 -0.5548  1.9339  2.1406
   67SAPC   C26 5597   1.386   3.114   7.442 -0.6912 -0.7813  0.0077
   67SAPC   H6R 5598   1.439   3.202   7.482 -0.0290 -0.2724 -1.8699
   67SAPC   C27 5599   1.321   3.019   7.543  0.5005  0.6870 -0.4200
   67SAPC   H7R 5600   1.393   2.990   7.623 -0.5817 -1.8824 -0.2746
   67SAPC   H7S 5601   1.308   2.921   7.491 -2.4638  0.9920 -0.4268
   67SAPC   C28 5602   1.188   3.060   7.607 -0.0628  0.2519  0.1254
   67SAPC   H8R 5603   1.108   3.072   7.533  1.7152 -0.0569 -1.9563
   67SAPC   C29 5604   1.166   3.097   7.737 -0.0728 -0.2976 -0.5439
   67SAPC   H9R 5605   1.065   3.122   7.774 -0.1719 -0.3018 -0.8109
   67SAPC  C210 5606   1.267   3.103   7.844 -0.3302  0.4897 -0.7433
   67SAPC  H10R 5607   1.367   3.138   7.809  2.6049 -4.8291  1.1477
   67SAPC  H10S 5608   1.274   3.003   7.893 -2.9021  0.5986 -0.0178
   67SAPC  C211 5609   1.228   3.192   7.958  0.0366 -0.5702 -0.4331
   67SAPC  H11R 5610   1.174   3.278   7.917  0.6489 -1.1945 -2.6887
   67SAPC  C212 5611   1.271   3.182   8.085  0.3314  0.1176  0.1099
   67SAPC  H12R 5612   1.222   3.252   8.154 -1.2608 -1.1474  0.3350
   67SAPC  C213 5613   1.367   3.082   8.142  0.4309  0.1039  0.1671
   67SAPC  H13R 5614   1.461   3.142   8.137 -0.2481  1.0761 -2.6631
   67SAPC  H13S 5615   1.393   3.005   8.066 -1.1211 -0.1932 -0.0804
   67SAPC  C214 5616   1.340   3.013   8.276  0.0338 -0.0042 -0.3771
   67SAPC  H14R 5617   1.375   3.053   8.373  1.3674  0.7039 -1.1287
   67SAPC  C215 5618   1.282   2.891   8.287 -0.0593  0.6090  0.1850
   67SAPC  H15R 5619   1.284   2.848   8.388  0.4412 -2.5037 -1.0344
   67SAPC  C216 5620   1.239   2.808   8.170 -0.1945  0.5366  0.0157
   67SAPC  H16R 5621   1.318   2.797   8.093  0.9035  1.0391  1.0286
   67SAPC  H16S 5622   1.146   2.846   8.123 -2.1982 -2.4136  1.2858
   67SAPC  C217 5623   1.213   2.662   8.228  0.0442  0.1704 -0.0224
   67SAPC  H17R 5624   1.303   2.611   8.269 -0.2665 -1.0471 -0.7940
   67SAPC  H17S 5625   1.182   2.605   8.137  1.2997 -1.1550  0.3420
   67SAPC  C218 5626   1.104   2.641   8.335  0.3740 -0.4442 -0.0223
   67SAPC  H18R 5627   1.003   2.664   8.294 -0.0045 -2.4324 -0.2721
   67SAPC  H18S 5628   1.121   2.707   8.423 -0.6750  0.5862 -0.5578
   67SAPC  C219 5629   1.104   2.496   8.387  0.1807 -0.4551  0.4249
   67SAPC  H19R 5630   1.203   2.471   8.428  0.3787  2.0720  1.6959
   67SAPC  H19S 5631   1.089   2.429   8.300  1.2080 -0.2399  0.0704
   67SAPC  C220 5632   1.009   2.476   8.506  0.0295 -0.5136 -0.8721
   67SAPC  H20R 5633   1.046   2.380   8.549  0.2829  0.4835  1.2308
   67SAPC  H20S 5634   0.901   2.476   8.480 -0.3915  2.9693  0.3779
   67SAPC  H20T 5635   1.019   2.559   8.579 -1.5782 -0.9136 -0.1566
   67SAPC   C33 5636   1.846   3.183   7.107  0.8559 -0.7609 -0.0996
   67SAPC   H3X 5637   1.897   3.278   7.080 -0.7280 -0.5021 -2.4250
   67SAPC   H3Y 5638   1.910   3.109   7.160 -0.2340 -2.0185 -0.4693
   67SAPC   C34 5639   1.739   3.224   7.211  0.1056  0.1443 -0.6838
   67SAPC   H4X 5640   1.700   3.132   7.261  0.8189 -0.6082 -1.4754
   67SAPC   H4Y 5641   1.655   3.280   7.166  1.4642  3.7666  0.9044
   67SAPC   C35 5642   1.808   3.325   7.305  0.3412  0.3051 -0.3224
   67SAPC   H5X 5643   1.866   3.402   7.250  2.0883 -0.7798 -0.0593
   67SAPC   H5Y 5644   1.888   3.274   7.362  0.0067 -1.7275 -1.5675
   67SAPC   C36 5645   1.711   3.382   7.406 -0.6416 -0.0865  0.2441
   67SAPC   H6X 5646   1.652   3.302   7.455 -1.5016  1.2586  1.4899
   67SAPC   H6Y 5647   1.644   3.455   7.355 -0.9255 -0.1055  0.5833
   67SAPC   C37 5648   1.778   3.466   7.517 -0.6772  0.1135  0.5006
   67SAPC   H7X 5649   1.690   3.518   7.560 -0.4726  0.7881  0.1179
   67SAPC   H7Y 5650   1.837   3.552   7.478  0.7487 -1.5509 -1.1777
   67SAPC   C38 5651   1.840   3.393   7.635  0.9687  0.2021 -0.6243
   67SAPC   H8X 5652   1.869   3.289   7.608  1.8985  0.3453 -0.1872
   67SAPC   H8Y 5653   1.765   3.383   7.716  1.5946  1.5969  0.1564
   67SAPC   C39 5654   1.960   3.469   7.696 -0.0217 -0.0576 -0.2841
   67SAPC   H9X 5655   2.053   3.477   7.637  0.3701 -0.8267  0.2177
   67SAPC   H9Y 5656   1.982   3.406   7.784 -4.9102  3.2172  3.8959
   67SAPC  C310 5657   1.936   3.608   7.774  0.0595 -0.2626 -0.1152
   67SAPC  H10X 5658   1.846   3.589   7.836 -2.4342  1.4302 -2.9274
   67SAPC  H10Y 5659   1.914   3.689   7.701 -1.5015 -0.7067 -0.1690
   67SAPC  C311 5660   2.062   3.648   7.861  0.6058  0.5789  0.2119
   67SAPC  H11X 5661   2.136   3.703   7.800  1.4907  0.9335  1.5563
   67SAPC  H11Y 5662   2.097   3.549   7.897 -2.4390 -0.3057  1.0694
   67SAPC  C312 5663   2.013   3.735   7.982  0.2863  0.2554  0.2454
   67SAPC  H12X 5664   2.105   3.741   8.045  0.5397  1.5654 -0.2253
   67SAPC  H12Y 5665   1.943   3.670   8.039  0.4284  0.7751  1.0308
   67SAPC  C313 5666   1.957   3.869   7.946  0.1529  0.0711  0.4227
   67SAPC  H13X 5667   1.863   3.866   7.887  0.5898 -1.9650 -0.2645
   67SAPC  H13Y 5668   2.033   3.905   7.873 -1.8073  0.7683 -1.3909
   67SAPC  C314 5669   1.954   3.960   8.072  0.4453  0.0260 -0.1660
   67SAPC  H14X 5670   1.913   4.061   8.047  0.0534 -0.4091 -1.3788
   67SAPC  H14Y 5671   2.060   3.971   8.101  0.9485 -1.2268 -1.3861
   67SAPC  C315 5672   1.860   3.894   8.185  0.2610 -0.5203  0.6186
   67SAPC  H15X 5673   1.913   3.801   8.217  1.4197 -0.3706 -0.7316
   67SAPC  H15Y 5674   1.764   3.863   8.138 -0.1951 -1.2727  1.9743
   67SAPC  C316 5675   1.836   3.990   8.308 -0.5019 -0.0004  0.2540
   67SAPC  H16X 5676   1.772   4.078   8.285  0.8730  0.6001 -1.5009
   67SAPC  H16Y 5677   1.938   4.028   8.331 -0.2442 -1.2571  1.3122
   67SAPC  C317 5678   1.789   3.919   8.433 -0.0137  0.0009  0.1077
   67SAPC  H17X 5679   1.816   3.978   8.524 -4.9306  2.3952  0.3531
   67SAPC  H17Y 5680   1.829   3.816   8.446 -2.2039 -0.8011  0.8921
   67SAPC  C318 5681   1.638   3.916   8.450 -0.2438  0.2921 -0.3607
   67SAPC  H18X 5682   1.593   4.014   8.477  0.1474  0.2186  0.6122
   67SAPC  H18Y 5683   1.609   3.853   8.537 -0.0484 -1.0809 -1.2556
   67SAPC  H18Z 5684   1.588   3.871   8.361 -0.5013  0.4006 -0.2723
   68SAPC     N 5685   5.087   6.098   5.843 -0.0935 -0.1274  0.0674
   68SAPC   C12 5686   5.168   6.034   5.947 -0.9357  0.3502  0.7413
   68SAPC  H12A 5687   5.267   6.014   5.910 -0.6531  3.1064 -0.2135
   68SAPC  H12B 5688   5.121   5.940   5.971 -0.8282  0.0347 -0.2536
   68SAPC   C13 5689   5.073   5.998   5.736 -0.1660 -0.0898  0.4420
   68SAPC  H13A 5690   5.162   5.991   5.674 -0.4744  1.6146 -0.2354
   68SAPC  H13B 5691   5.049   5.902   5.778 -0.8333 -0.2843 -0.3573
   68SAPC  H13C 5692   4.989   6.023   5.674  0.1609 -0.0641  0.0053
   68SAPC   C14 5693   4.940   6.118   5.889 -0.6762 -0.3890 -1.2146
   68SAPC  H14A 5694   4.931   6.162   5.988  1.1469  1.7290 -1.8995
   68SAPC  H14B 5695   4.870   6.171   5.826 -0.1213  1.2591 -0.4964
   68SAPC  H14C 5696   4.901   6.021   5.917  1.4816 -1.0585 -0.2747
   68SAPC   C15 5697   5.132   6.219   5.775 -0.0595  0.6253 -0.1208
   68SAPC  H15A 5698   5.051   6.284   5.747  0.0394  0.6900 -0.2546
   68SAPC  H15B 5699   5.197   6.282   5.835  1.1594  0.1237 -0.8967
   68SAPC  H15C 5700   5.200   6.190   5.697  0.1812  0.6625  0.0735
   68SAPC   C11 5701   5.204   6.107   6.073 -0.0773  0.2978  0.1162
   68SAPC  H11A 5702   5.235   6.207   6.037 -1.7781  1.1017  0.7861
   68SAPC  H11B 5703   5.287   6.062   6.131  1.0305  1.4041 -0.5722
   68SAPC     P 5704   5.060   6.009   6.269  0.0668  0.0051  0.0031
   68SAPC   O13 5705   4.919   6.031   6.304  0.2069 -0.3898 -0.1180
   68SAPC   O14 5706   5.102   5.877   6.213  0.0407 -0.1002  0.1695
   68SAPC   O12 5707   5.085   6.120   6.155  0.5729 -0.8446  0.0505
   68SAPC   O11 5708   5.160   6.054   6.390  0.3327  0.5214 -0.2866
   68SAPC    C1 5709   5.168   6.196   6.403 -0.4190 -0.4169  0.3938
   68SAPC    HA 5710   5.256   6.234   6.346  0.1346 -1.8031  0.2777
   68SAPC    HB 5711   5.076   6.247   6.367  0.5030  0.7417 -0.4215
   68SAPC    C2 5712   5.183   6.240   6.553  0.0394  0.5885 -0.0585
   68SAPC    HS 5713   5.292   6.252   6.574  0.1586 -3.2819  2.6869
   68SAPC   O21 5714   5.110   6.144   6.638 -0.4886  0.0894  0.3483
   68SAPC   C21 5715   5.170   6.101   6.742  0.0616  0.1314 -0.4666
   68SAPC   O22 5716   5.282   6.133   6.778  0.4261 -0.3386  0.1548
   68SAPC   C22 5717   5.081   5.993   6.788 -0.0744  0.2062 -0.7054
   68SAPC   H2R 5718   4.988   6.044   6.821 -0.4846 -0.8254 -0.2087
   68SAPC   H2S 5719   5.061   5.925   6.702 -2.8455  0.0978 -0.0550
   68SAPC    C3 5720   5.118   6.370   6.587  0.2995 -0.2573 -0.2173
   68SAPC    HX 5721   5.008   6.366   6.570  0.0412 -0.0205  1.2465
   68SAPC    HY 5722   5.154   6.449   6.517  0.3869 -1.5473 -1.6907
   68SAPC   O31 5723   5.136   6.404   6.732 -0.0363  0.1704  0.6334
   68SAPC   C31 5724   5.237   6.479   6.757 -0.7019  0.0992 -0.3231
   68SAPC   O32 5725   5.321   6.513   6.679  0.6120 -0.5687 -0.3045
   68SAPC   C32 5726   5.248   6.487   6.909  0.0915  0.9148  0.4594
   68SAPC   H2X 5727   5.281   6.387   6.944 -2.4443 -0.4080 -0.6353
   68SAPC   H2Y 5728   5.145   6.491   6.951 -0.9323 -0.9231 -1.7015
   68SAPC   C23 5729   5.137   5.898   6.895  0.1683  0.2020 -0.5946
   68SAPC   H3R 5730   5.246   5.877   6.891 -0.4951 -3.9670 -1.7767
   68SAPC   H3S 5731   5.095   5.796   6.881 -0.1695  0.4226 -1.2280
   68SAPC   C24 5732   5.094   5.940   7.037 -0.3748  0.3159 -0.2951
   68SAPC   H4R 5733   4.991   5.903   7.060  0.0779 -0.5774  0.3531
   68SAPC   H4S 5734   5.095   6.051   7.031  2.1380  0.3855  0.5539
   68SAPC   C25 5735   5.187   5.891   7.150  0.7853 -0.3459  0.2027
   68SAPC   H5R 5736   5.229   5.791   7.133 -0.2011 -0.5937 -0.9721
   68SAPC   C26 5737   5.212   5.952   7.263  0.3867  0.0961 -0.1804
   68SAPC   H6R 5738   5.265   5.901   7.345 -1.6093 -1.1253  0.4242
   68SAPC   C27 5739   5.157   6.085   7.314 -0.1136  0.6921 -0.0728
   68SAPC   H7R 5740   5.085   6.060   7.395  2.4404  0.1677  2.1615
   68SAPC   H7S 5741   5.104   6.141   7.234 -0.7632 -0.1468 -0.2568
   68SAPC   C28 5742   5.273   6.164   7.371  0.5013 -0.3385 -0.6413
   68SAPC   H8R 5743   5.346   6.201   7.297 -0.2409  0.7039 -0.8754
   68SAPC   C29 5744   5.312   6.174   7.501  0.3063  0.7930 -0.4006
   68SAPC   H9R 5745   5.405   6.231   7.513  0.1191  1.1608 -0.6620
   68SAPC  C210 5746   5.246   6.121   7.623 -0.9972  0.1645 -0.4710
   68SAPC  H10R 5747   5.327   6.078   7.687 -1.2725  0.9899  0.4513
   68SAPC  H10S 5748   5.177   6.038   7.596 -1.1497 -0.0212  0.4306
   68SAPC  C211 5749   5.165   6.225   7.705 -0.6249  0.2630  0.7240
   68SAPC  H11R 5750   5.065   6.226   7.658 -0.4659 -1.3921  0.2589
   68SAPC  C212 5751   5.189   6.288   7.816  0.2173  0.1458 -0.4708
   68SAPC  H12R 5752   5.105   6.351   7.851 -0.0517 -0.4482 -0.0274
   68SAPC  C213 5753   5.317   6.290   7.905  0.0412 -0.0170 -0.2295
   68SAPC  H13R 5754   5.308   6.362   7.989 -0.3374  0.4931 -0.7014
   68SAPC  H13S 5755   5.394   6.338   7.841  1.1418  0.7211  1.5650
   68SAPC  C214 5756   5.368   6.158   7.960 -0.4756  0.2950  0.7979
   68SAPC  H14R 5757   5.367   6.070   7.895  1.0317 -2.0901  3.7779
   68SAPC  C215 5758   5.417   6.136   8.082  1.0511 -0.1124  0.9948
   68SAPC  H15R 5759   5.437   6.030   8.100 -0.4739 -0.7892 -0.9386
   68SAPC  C216 5760   5.428   6.224   8.199 -0.0505 -0.1401 -0.0686
   68SAPC  H16R 5761   5.331   6.246   8.249 -1.1811 -2.8539 -0.9121
   68SAPC  H16S 5762   5.473   6.323   8.179 -2.9823  1.1577 -0.8497
   68SAPC  C217 5763   5.509   6.145   8.298 -0.5631  0.1674  0.2298
   68SAPC  H17R 5764   5.543   6.206   8.384 -0.1107 -2.3178  1.9182
   68SAPC  H17S 5765   5.592   6.078   8.265  0.8947  1.8427  0.3495
   68SAPC  C218 5766   5.427   6.041   8.375 -0.1308  0.4496 -0.1822
   68SAPC  H18R 5767   5.394   5.954   8.315 -0.2082 -0.6310  1.3593
   68SAPC  H18S 5768   5.339   6.094   8.418  0.7903  1.3978  0.6107
   68SAPC  C219 5769   5.505   5.981   8.495 -0.0060  0.0342 -0.2240
   68SAPC  H19R 5770   5.595   5.929   8.455 -0.7622 -0.8935 -0.7674
   68SAPC  H19S 5771   5.431   5.910   8.537  3.3741 -2.1391  2.6306
   68SAPC  C220 5772   5.543   6.067   8.613 -0.1039  0.1679 -0.6620
   68SAPC  H20R 5773   5.610   6.145   8.569 -0.7466 -0.0248 -2.0478
   68SAPC  H20S 5774   5.592   6.007   8.692 -5.0020  0.1092  2.7561
   68SAPC  H20T 5775   5.456   6.116   8.662  1.1085 -0.8344  2.7467
   68SAPC   C33 5776   5.327   6.605   6.961 -0.4626 -0.3667 -0.2990
   68SAPC   H3X 5777   5.284   6.702   6.929 -0.0833 -0.0950  0.0011
   68SAPC   H3Y 5778   5.429   6.610   6.919 -1.3259  3.5833 -2.3715
   68SAPC   C34 5779   5.330   6.615   7.114  0.2758  0.4574 -0.3307
   68SAPC   H4X 5780   5.227   6.596   7.150  0.9159 -1.6456  0.5593
   68SAPC   H4Y 5781   5.372   6.712   7.147 -2.1809  1.9690 -1.3939
   68SAPC   C35 5782   5.414   6.509   7.182 -0.1416 -0.0424 -0.1641
   68SAPC   H5X 5783   5.504   6.499   7.118  0.5602 -0.2819  0.8277
   68SAPC   H5Y 5784   5.350   6.418   7.180 -0.4815  0.1977 -2.4017
   68SAPC   C36 5785   5.441   6.547   7.331 -0.1938  0.4741 -0.1199
   68SAPC   H6X 5786   5.348   6.530   7.389 -0.5673 -1.8617 -1.2682
   68SAPC   H6Y 5787   5.464   6.655   7.342 -1.5630  0.9116 -1.2535
   68SAPC   C37 5788   5.547   6.459   7.401 -0.0734  0.5730 -0.4003
   68SAPC   H7X 5789   5.646   6.496   7.368 -0.4199  2.7618  0.8213
   68SAPC   H7Y 5790   5.543   6.355   7.361  1.6496  0.2940  0.0968
   68SAPC   C38 5791   5.549   6.458   7.558  0.3431  0.1782  0.1469
   68SAPC   H8X 5792   5.451   6.431   7.602  0.7008  0.3218  1.0442
   68SAPC   H8Y 5793   5.578   6.561   7.590  3.3100  0.3777 -2.6134
   68SAPC   C39 5794   5.657   6.366   7.620  0.1636 -0.0124  0.9730
   68SAPC   H9X 5795   5.754   6.400   7.578 -1.2315  0.1042 -2.4728
   68SAPC   H9Y 5796   5.627   6.268   7.577 -1.8163  1.4146 -1.1466
   68SAPC  C310 5797   5.673   6.363   7.771  0.3676 -0.0917 -0.0827
   68SAPC  H10X 5798   5.601   6.289   7.812  0.2313 -0.1158 -0.3686
   68SAPC  H10Y 5799   5.652   6.466   7.810  1.7310  0.0545  0.3068
   68SAPC  C311 5800   5.806   6.296   7.814 -0.0886 -0.2101 -0.3856
   68SAPC  H11X 5801   5.898   6.350   7.784 -0.0837  0.7319  1.1861
   68SAPC  H11Y 5802   5.799   6.198   7.763 -0.3303  0.8252 -2.4234
   68SAPC  C312 5803   5.808   6.270   7.970 -0.4505 -0.5076  0.0778
   68SAPC  H12X 5804   5.718   6.212   8.000  1.2832 -2.6669  1.4293
   68SAPC  H12Y 5805   5.808   6.366   8.027  0.0155  0.2439 -1.1395
   68SAPC  C313 5806   5.930   6.184   8.008 -0.2417 -0.4263  0.2809
   68SAPC  H13X 5807   5.925   6.096   7.941 -2.0223  0.8008 -1.2981
   68SAPC  H13Y 5808   5.902   6.147   8.109  0.5014 -1.4031  0.1345
   68SAPC  C314 5809   6.062   6.258   7.993  0.4047  0.3363 -0.0874
   68SAPC  H14X 5810   6.051   6.357   8.043  0.1761  0.3101 -0.0835
   68SAPC  H14Y 5811   6.076   6.274   7.884  1.2194  1.3179  0.1531
   68SAPC  C315 5812   6.174   6.177   8.060  0.2151 -0.1362  0.2489
   68SAPC  H15X 5813   6.265   6.227   8.021 -0.5719 -0.6963 -2.5172
   68SAPC  H15Y 5814   6.181   6.077   8.011  0.3144 -0.2926  0.5744
   68SAPC  C316 5815   6.179   6.171   8.215 -0.1332  0.1845 -0.3859
   68SAPC  H16X 5816   6.083   6.141   8.262  0.1577 -1.0922 -0.5868
   68SAPC  H16Y 5817   6.190   6.278   8.246  0.8645  0.4700 -1.6513
   68SAPC  C317 5818   6.285   6.082   8.277  0.6589  0.7289 -0.4441
   68SAPC  H17X 5819   6.381   6.125   8.239  0.7541  0.9514  0.0496
   68SAPC  H17Y 5820   6.280   5.982   8.229  2.5746  0.4745 -0.1996
   68SAPC  C318 5821   6.280   6.064   8.429 -0.9110  0.2252 -0.5209
   68SAPC  H18X 5822   6.372   6.014   8.467 -1.2900  0.4096  0.6827
   68SAPC  H18Y 5823   6.195   5.998   8.457 -1.6049  0.9361 -0.9310
   68SAPC  H18Z 5824   6.279   6.166   8.474 -0.1246  0.0998 -0.2045
   69SLPC     N 5825   4.862   0.097  11.344  0.3711  0.0523 -0.9122
   69SLPC   C13 5826   4.829   0.189  11.230  0.4272  0.4015 -0.1612
   69SLPC  H13A 5827   4.813   0.289  11.267 -3.6067 -1.1534  3.1296
   69SLPC  H13B 5828   4.893   0.182  11.143 -3.3473 -0.6852 -3.1067
   69SLPC  H13C 5829   4.730   0.163  11.196  0.1027  0.3707  0.7772
   69SLPC   C14 5830   4.880  -0.040  11.290  0.9432  0.0729 -0.4909
   69SLPC  H14A 5831   4.971  -0.049  11.234  1.8278  1.0714  0.7224
   69SLPC  H14B 5832   4.883  -0.114  11.369  0.7063 -0.4750 -0.9946
   69SLPC  H14C 5833   4.804  -0.054  11.215  0.4172  0.6170 -0.0741
   69SLPC   C15 5834   4.752   0.101  11.448 -0.2395  0.2818  0.2564
   69SLPC  H15A 5835   4.758   0.192  11.506 -1.5488  0.6922 -0.2205
   69SLPC  H15B 5836   4.651   0.093  11.410 -0.0356 -0.6099 -0.1156
   69SLPC  H15C 5837   4.766   0.015  11.511  0.4193  0.0298 -0.2337
   69SLPC   C12 5838   4.990   0.137  11.407 -0.2169  0.4580  0.5338
   69SLPC  H12A 5839   4.997   0.070  11.491  2.2748 -0.8198 -0.5726
   69SLPC  H12B 5840   4.986   0.236  11.450  3.0629  0.1728  1.8590
   69SLPC   C11 5841   5.123   0.115  11.332 -0.1705  0.0513 -0.0646
   69SLPC  H11A 5842   5.153   0.009  11.317 -1.9706 -0.1524 -2.8712
   69SLPC  H11B 5843   5.197   0.160  11.402  1.0961  1.5437 -2.2369
   69SLPC     P 5844   5.215   0.308  11.191 -0.0341  0.2111 -0.2264
   69SLPC   O13 5845   5.167   0.403  11.293  0.0082 -0.3766 -0.0239
   69SLPC   O14 5846   5.365   0.278  11.194  0.1961 -0.0250 -0.3596
   69SLPC   O12 5847   5.137   0.171  11.205  0.2934  0.7238 -0.2741
   69SLPC   O11 5848   5.159   0.371  11.055  0.1844 -0.4258  0.0220
   69SLPC    C1 5849   5.146   0.275  10.952  0.1219 -0.3167  0.2922
   69SLPC    HA 5850   5.090   0.182  10.976 -0.1545 -0.9285 -2.3590
   69SLPC    HB 5851   5.092   0.330  10.871  1.4106  1.7288  0.7564
   69SLPC    C2 5852   5.285   0.226  10.896 -0.5072 -0.8544  0.4009
   69SLPC    HS 5853   5.340   0.184  10.983  1.3680  0.8571  0.1109
   69SLPC   O21 5854   5.357   0.342  10.848  0.2888 -0.1238  0.4274
   69SLPC   C21 5855   5.483   0.313  10.814 -0.2880  0.4578  0.6310
   69SLPC   O22 5856   5.521   0.199  10.818  0.3499  0.6823  0.2701
   69SLPC   C22 5857   5.567   0.429  10.773 -0.0736  0.3752  0.6616
   69SLPC   H2R 5858   5.560   0.507  10.852 -0.5999  0.8923  0.1164
   69SLPC   H2S 5859   5.672   0.394  10.774  0.0671  0.8030  0.7882
   69SLPC    C3 5860   5.255   0.121  10.784 -0.1296 -0.8466  0.5160
   69SLPC    HX 5861   5.187   0.049  10.835  0.1621 -0.9202  0.8020
   69SLPC    HY 5862   5.342   0.060  10.754  1.0056  1.4830 -1.2882
   69SLPC   O31 5863   5.187   0.188  10.665 -0.5040  0.1682 -0.2720
   69SLPC   C31 5864   5.229   0.138  10.544 -0.1482  0.4874 -1.1340
   69SLPC   O32 5865   5.322   0.064  10.528 -0.1312  0.3349 -0.8872
   69SLPC   C32 5866   5.145   0.198  10.431 -0.4905 -0.6517  0.3678
   69SLPC   H2X 5867   5.145   0.307  10.448  2.6125 -0.8712  2.4548
   69SLPC   H2Y 5868   5.039   0.165  10.438 -0.6331 -0.1587  0.5348
   69SLPC   C23 5869   5.528   0.487  10.636  0.1227 -0.3180  0.1345
   69SLPC   H3R 5870   5.522   0.405  10.561 -1.3011 -0.6888  0.6195
   69SLPC   H3S 5871   5.593   0.565  10.589 -3.0834  1.2821 -2.0404
   69SLPC   C24 5872   5.398   0.569  10.649  0.2879  0.2996 -0.5232
   69SLPC   H4R 5873   5.420   0.638  10.734 -1.0703 -0.1611  0.2325
   69SLPC   H4S 5874   5.313   0.501  10.670  1.3425 -0.4990  1.4363
   69SLPC   C25 5875   5.363   0.646  10.519 -0.1170  0.1875 -0.6409
   69SLPC   H5R 5876   5.438   0.723  10.490  1.3737 -1.0122 -0.0959
   69SLPC   H5S 5877   5.275   0.709  10.544  0.0250  0.1410 -0.0226
   69SLPC   C26 5878   5.329   0.555  10.398  0.0712  1.0919 -0.5005
   69SLPC   H6R 5879   5.227   0.515  10.414  0.6554 -0.7638 -1.1759
   69SLPC   H6S 5880   5.402   0.472  10.392  0.7396  1.7088 -1.1050
   69SLPC   C27 5881   5.346   0.620  10.259  0.5449  0.4649  0.3049
   69SLPC   H7R 5882   5.455   0.624  10.234  0.3009  0.5021 -0.8220
   69SLPC   H7S 5883   5.313   0.726  10.260  0.7313  0.6227 -2.5157
   69SLPC   C28 5884   5.283   0.550  10.141 -0.3183  0.5030  0.2949
   69SLPC   H8R 5885   5.176   0.533  10.167  0.2426 -0.8894  1.8916
   69SLPC   H8S 5886   5.315   0.443  10.144 -0.2881  0.4914 -0.3051
   69SLPC   C29 5887   5.321   0.616  10.009 -0.4430  0.5626 -0.6862
   69SLPC   H9R 5888   5.427   0.646  10.011 -1.0410  2.9416  1.8142
   69SLPC  C210 5889   5.249   0.640   9.897  0.5629  0.5673  0.0279
   69SLPC  H10R 5890   5.303   0.691   9.815  0.7254  1.0152  0.4081
   69SLPC  C211 5891   5.110   0.604   9.860  0.4196  0.2043  0.5359
   69SLPC  H11R 5892   5.052   0.699   9.853  1.6953  0.9168 -0.8771
   69SLPC  H11S 5893   5.061   0.539   9.935  2.7031  0.1568  2.0795
   69SLPC  C212 5894   5.098   0.541   9.721 -0.6410  0.5143  0.4737
   69SLPC  H12R 5895   5.170   0.458   9.712 -2.8270 -1.4685 -0.0545
   69SLPC  C213 5896   5.031   0.583   9.609  0.0849 -0.2573  0.4473
   69SLPC  H13R 5897   5.035   0.527   9.515 -0.8060  1.8202 -0.9138
   69SLPC  C214 5898   4.934   0.698   9.604  0.1029 -0.3227  0.2933
   69SLPC  H14R 5899   5.000   0.786   9.584 -0.5721 -0.2660 -1.9581
   69SLPC  H14S 5900   4.880   0.715   9.699  1.2161 -0.9644  1.0599
   69SLPC  C215 5901   4.825   0.684   9.500  0.2068  0.6226 -0.3410
   69SLPC  H15R 5902   4.741   0.756   9.508  0.1657  0.4800  0.5123
   69SLPC  H15S 5903   4.767   0.592   9.520  0.2734  0.3644 -1.2860
   69SLPC  C216 5904   4.878   0.685   9.356 -0.2319  0.1799  0.6209
   69SLPC  H16R 5905   4.929   0.589   9.333 -0.3559  0.3697 -0.5303
   69SLPC  H16S 5906   4.956   0.763   9.344  0.0611 -0.1554  0.3029
   69SLPC  C217 5907   4.781   0.718   9.242  0.0816  0.1820  0.1584
   69SLPC  H17R 5908   4.839   0.687   9.153 -0.8724 -2.1656  0.2760
   69SLPC  H17S 5909   4.765   0.828   9.237 -0.9360 -0.0063 -1.2584
   69SLPC  C218 5910   4.641   0.663   9.248  0.1613 -0.8579  0.7127
   69SLPC  H18R 5911   4.574   0.690   9.332  0.5637  0.8030  0.5345
   69SLPC  H18S 5912   4.648   0.553   9.262 -1.2487 -0.9403  0.9556
   69SLPC  H18T 5913   4.577   0.686   9.160 -0.9760 -0.0488  1.7128
   69SLPC   C33 5914   5.208   0.166  10.298 -0.1304  0.4394  0.2606
   69SLPC   H3X 5915   5.255   0.066  10.286 -1.9275 -0.2823 -1.5618
   69SLPC   H3Y 5916   5.300   0.227  10.285 -1.3309  1.8753 -2.4905
   69SLPC   C34 5917   5.125   0.196  10.172 -0.3188  0.0076 -0.1659
   69SLPC   H4X 5918   5.080   0.297  10.176 -0.7035 -0.2039  2.2786
   69SLPC   H4Y 5919   5.038   0.127  10.159  0.3451 -0.7560 -0.7159
   69SLPC   C35 5920   5.214   0.158  10.048 -0.0295 -0.1397  0.2556
   69SLPC   H5X 5921   5.236   0.049  10.049  2.1547  0.2600  0.1020
   69SLPC   H5Y 5922   5.307   0.218  10.047 -0.1405  0.0428  0.5402
   69SLPC   C36 5923   5.145   0.191   9.913 -1.3060 -0.4708  0.6103
   69SLPC   H6X 5924   5.107   0.294   9.895 -1.7272 -0.8884 -1.1491
   69SLPC   H6Y 5925   5.054   0.128   9.926 -1.1632 -0.2840  2.9514
   69SLPC   C37 5926   5.223   0.132   9.788  0.0131 -0.6016  0.0907
   69SLPC   H7X 5927   5.240   0.024   9.805 -3.4885 -1.5409 -1.4709
   69SLPC   H7Y 5928   5.311   0.193   9.757 -0.0022 -1.6276 -2.1210
   69SLPC   C38 5929   5.124   0.136   9.670 -0.1461  0.2327 -0.1528
   69SLPC   H8X 5930   5.100   0.245   9.667 -1.7044 -0.0996 -2.8346
   69SLPC   H8Y 5931   5.029   0.079   9.683 -1.3932  2.2085 -0.1123
   69SLPC   C39 5932   5.179   0.083   9.531 -0.3958 -0.1803  0.4265
   69SLPC   H9X 5933   5.215  -0.020   9.552 -0.7392  0.1093  2.6987
   69SLPC   H9Y 5934   5.273   0.137   9.506  1.0454 -2.3895  0.7371
   69SLPC  C310 5935   5.082   0.095   9.417  0.1255 -0.1914 -0.6669
   69SLPC  H10X 5936   5.066   0.201   9.391  1.2317 -0.5866 -3.2324
   69SLPC  H10Y 5937   4.981   0.057   9.445 -1.3482  4.2566  0.8940
   69SLPC  C311 5938   5.132   0.032   9.297  0.2544  0.3068  0.3181
   69SLPC  H11X 5939   5.135  -0.078   9.310 -2.7540  0.1366  0.1870
   69SLPC  H11Y 5940   5.240   0.058   9.290  0.3090  0.4133  1.4502
   69SLPC  C312 5941   5.055   0.066   9.164 -0.1817  0.1554  0.5765
   69SLPC  H12X 5942   5.029   0.174   9.153 -0.3910  0.0418 -0.0834
   69SLPC  H12Y 5943   4.954   0.019   9.163  0.1760 -0.6156 -0.3472
   69SLPC  C313 5944   5.129   0.004   9.039 -0.6546 -0.2259  0.5172
   69SLPC  H13X 5945   5.147  -0.105   9.049  3.2370 -0.0793 -2.5174
   69SLPC  H13Y 5946   5.227   0.055   9.034 -0.2889 -0.9589  0.1249
   69SLPC  C314 5947   5.058   0.010   8.902  0.0162  0.3406 -0.4321
   69SLPC  H14X 5948   5.036   0.114   8.870 -1.8058 -0.3983 -1.7716
   69SLPC  H14Y 5949   4.965  -0.051   8.912  1.1465 -1.2300  1.2475
   69SLPC  C315 5950   5.160  -0.053   8.800  0.0212  0.3658 -0.0449
   69SLPC  H15X 5951   5.162  -0.155   8.843 -3.0677  0.0116 -0.4965
   69SLPC  H15Y 5952   5.258  -0.001   8.807 -0.2565  0.8875  0.0468
   69SLPC  C316 5953   5.125  -0.052   8.652 -0.3161  1.1608  0.2999
   69SLPC  H16X 5954   5.112   0.051   8.613 -4.1788  0.5420 -0.4791
   69SLPC  H16Y 5955   5.023  -0.094   8.641 -0.8028  2.7077 -1.6470
   69SLPC  C317 5956   5.218  -0.138   8.568 -0.6327  0.0068 -0.5124
   69SLPC  H17X 5957   5.318  -0.123   8.614 -0.8480  1.0139 -0.3614
   69SLPC  H17Y 5958   5.223  -0.103   8.462  1.6132  0.5014 -0.3009
   69SLPC  C318 5959   5.169  -0.287   8.565 -0.2350 -0.4712 -0.4865
   69SLPC  H18X 5960   5.232  -0.345   8.494 -1.3073  0.1709 -2.0025
   69SLPC  H18Y 5961   5.066  -0.288   8.523 -0.5114  0.5438  0.1349
   69SLPC  H18Z 5962   5.164  -0.334   8.666  0.6965 -0.1948 -0.3064
   70SLPC     N 5963   5.781   4.040  11.061 -0.2767 -0.1521  0.7256
   70SLPC   C13 5964   5.804   3.955  11.185  0.6345 -0.2951  0.4614
   70SLPC  H13A 5965   5.893   3.896  11.170  1.7320  0.8301  2.1931
   70SLPC  H13B 5966   5.830   4.016  11.270  0.2480 -1.3669  1.3582
   70SLPC  H13C 5967   5.714   3.915  11.228 -0.2915  2.1719  1.0187
   70SLPC   C14 5968   5.883   4.150  11.052 -0.1134 -0.2044 -0.5898
   70SLPC  H14A 5969   5.977   4.097  11.060  0.3964  0.9721  1.8245
   70SLPC  H14B 5970   5.883   4.209  10.961  1.4690  1.0678  0.1862
   70SLPC  H14C 5971   5.880   4.200  11.147 -0.1244 -0.9866 -0.1715
   70SLPC   C15 5972   5.648   4.108  11.070  0.5284 -0.2766 -0.1812
   70SLPC  H15A 5973   5.644   4.186  10.996  0.7429  0.9441  1.0379
   70SLPC  H15B 5974   5.566   4.038  11.068  0.0103  0.2261  1.4204
   70SLPC  H15C 5975   5.639   4.157  11.166  1.9731 -0.3764  0.0366
   70SLPC   C12 5976   5.775   3.955  10.935 -0.4535  0.3683  0.3459
   70SLPC  H12A 5977   5.757   4.023  10.854 -0.8046 -0.0866  0.0376
   70SLPC  H12B 5978   5.690   3.888  10.945 -2.1502  2.3424 -0.1787
   70SLPC   C11 5979   5.900   3.867  10.908 -0.7193  0.7239 -0.8149
   70SLPC  H11A 5980   5.990   3.931  10.918  1.0544 -1.9197  1.8782
   70SLPC  H11B 5981   5.892   3.838  10.801 -0.2200  1.8134 -1.1591
   70SLPC     P 5982   5.800   3.640  10.974  0.2845  0.1234 -0.5691
   70SLPC   O13 5983   5.822   3.544  11.089  0.3043  0.3684 -0.4991
   70SLPC   O14 5984   5.659   3.689  10.938  0.7424 -0.2667  0.4458
   70SLPC   O12 5985   5.902   3.757  11.001 -0.2788 -0.7475 -0.6009
   70SLPC   O11 5986   5.867   3.581  10.849  0.9170  0.3983 -0.2665
   70SLPC    C1 5987   5.776   3.512  10.759  0.7838 -0.1590  0.0637
   70SLPC    HA 5988   5.764   3.406  10.791  0.5024  0.3680  1.8123
   70SLPC    HB 5989   5.676   3.558  10.742  0.8471  0.2314  0.7173
   70SLPC    C2 5990   5.844   3.507  10.615  0.8348 -0.9045  0.6379
   70SLPC    HS 5991   5.940   3.451  10.623  0.9413 -0.6133  1.5858
   70SLPC   O21 5992   5.880   3.643  10.572 -0.4235 -0.3643  0.2195
   70SLPC   C21 5993   6.004   3.683  10.596  0.2226 -0.1547  0.5151
   70SLPC   O22 5994   6.098   3.626  10.639 -0.8029 -0.6742  0.5304
   70SLPC   C22 5995   6.017   3.833  10.556  0.1819  0.5418 -0.9827
   70SLPC   H2R 5996   5.917   3.880  10.555 -0.5132 -0.8636 -0.3995
   70SLPC   H2S 5997   6.080   3.882  10.634 -0.9972  0.2944  0.1744
   70SLPC    C3 5998   5.755   3.441  10.508  0.1654  1.0100 -0.5582
   70SLPC    HX 5999   5.814   3.433  10.414  3.0700 -0.7866  1.2709
   70SLPC    HY 6000   5.678   3.515  10.478  0.7711  0.5544 -3.5749
   70SLPC   O31 6001   5.689   3.318  10.547 -0.0814 -0.2852 -0.1707
   70SLPC   C31 6002   5.767   3.210  10.544 -0.6424 -0.6495  0.4401
   70SLPC   O32 6003   5.882   3.210  10.504  0.0297  0.4777 -0.2143
   70SLPC   C32 6004   5.677   3.091  10.603 -0.6497  0.0505  0.0242
   70SLPC   H2X 6005   5.583   3.132  10.649 -1.5143 -1.0420 -0.7200
   70SLPC   H2Y 6006   5.736   3.049  10.687  1.0167 -1.1615 -1.6913
   70SLPC   C23 6007   6.091   3.850  10.422 -0.2510 -0.4419 -0.1760
   70SLPC   H3R 6008   6.185   3.790  10.429  0.1898  0.2324 -0.1644
   70SLPC   H3S 6009   6.104   3.959  10.401  0.4788 -0.4830  0.0240
   70SLPC   C24 6010   6.001   3.793  10.311 -0.5247  0.0524 -0.0527
   70SLPC   H4R 6011   5.898   3.833  10.316  0.1021  2.3893 -3.0186
   70SLPC   H4S 6012   5.999   3.682  10.318  1.1390  0.0742  1.5270
   70SLPC   C25 6013   6.044   3.831  10.166 -0.4307 -1.1515 -0.1680
   70SLPC   H5R 6014   6.154   3.817  10.172 -0.4316 -1.4490 -0.7618
   70SLPC   H5S 6015   6.021   3.938  10.144 -0.7980 -0.9627  1.0598
   70SLPC   C26 6016   5.983   3.752  10.052  0.1446  0.1543  0.3152
   70SLPC   H6R 6017   5.994   3.818   9.964 -2.3874 -0.2049 -0.3376
   70SLPC   H6S 6018   5.874   3.732  10.061  0.2858 -0.5017  0.6348
   70SLPC   C27 6019   6.055   3.615  10.036 -0.5657 -0.0932  0.3515
   70SLPC   H7R 6020   6.021   3.549  10.119 -1.3046 -0.0671  0.0817
   70SLPC   H7S 6021   6.163   3.637  10.029 -0.2189 -1.8299 -0.3896
   70SLPC   C28 6022   6.018   3.532   9.913  0.3251 -0.4216 -0.3056
   70SLPC   H8R 6023   5.907   3.527   9.919  0.2317  1.1661 -0.0335
   70SLPC   H8S 6024   6.064   3.434   9.935  1.6746  0.0788 -0.7823
   70SLPC   C29 6025   6.084   3.581   9.789  0.4108 -0.2821 -0.2925
   70SLPC   H9R 6026   6.191   3.604   9.801  0.5550 -0.2280 -1.5057
   70SLPC  C210 6027   6.029   3.605   9.670  0.0861 -0.9749  0.2648
   70SLPC  H10R 6028   6.095   3.636   9.587 -1.2659  0.7803 -0.2365
   70SLPC  C211 6029   5.881   3.584   9.630  0.6112 -0.2630 -0.2711
   70SLPC  H11R 6030   5.808   3.606   9.711 -0.3799 -3.0739 -0.2888
   70SLPC  H11S 6031   5.864   3.474   9.623 -1.8931 -0.2167  2.7675
   70SLPC  C212 6032   5.865   3.668   9.507 -0.3496  0.7876 -1.3720
   70SLPC  H12R 6033   5.858   3.775   9.532  3.7585  0.1674  4.3702
   70SLPC  C213 6034   5.873   3.610   9.382  0.0207 -0.9023  0.4506
   70SLPC  H13R 6035   5.879   3.674   9.293 -0.5089  2.1378  2.4254
   70SLPC  C214 6036   5.896   3.464   9.351 -0.9430  0.2749 -0.1000
   70SLPC  H14R 6037   5.818   3.427   9.281 -0.9916 -1.6068  0.8853
   70SLPC  H14S 6038   5.884   3.402   9.442  0.4389 -0.5571 -0.4669
   70SLPC  C215 6039   6.031   3.427   9.278  0.9233 -0.3298  0.3625
   70SLPC  H15R 6040   6.110   3.434   9.355  1.8837 -0.7431 -0.5536
   70SLPC  H15S 6041   6.036   3.504   9.197 -0.7064  0.1604  0.6875
   70SLPC  C216 6042   6.022   3.284   9.209 -0.4587  0.3573  0.2172
   70SLPC  H16R 6043   5.944   3.283   9.130  0.3480  0.5277 -0.5911
   70SLPC  H16S 6044   5.985   3.214   9.288  0.8114 -0.5313  0.0631
   70SLPC  C217 6045   6.150   3.243   9.135  0.6416 -0.3176  0.2745
   70SLPC  H17R 6046   6.144   3.134   9.112  0.5838 -0.1210 -0.6564
   70SLPC  H17S 6047   6.234   3.248   9.208  1.0811  1.2844 -0.3063
   70SLPC  C218 6048   6.189   3.330   9.012 -0.1436  0.5948  0.1354
   70SLPC  H18R 6049   6.106   3.393   8.974 -1.7220 -2.3657 -1.7125
   70SLPC  H18S 6050   6.213   3.259   8.929 -0.7281 -0.3590  0.7688
   70SLPC  H18T 6051   6.279   3.391   9.036  0.1835  0.2132 -0.1059
   70SLPC   C33 6052   5.651   2.984  10.495 -0.6114 -0.6748 -0.2274
   70SLPC   H3X 6053   5.623   3.035  10.401 -1.0461  0.4137  0.4747
   70SLPC   H3Y 6054   5.563   2.922  10.523 -2.2127  1.1899 -0.9248
   70SLPC   C34 6055   5.781   2.910  10.460  0.0566 -0.0696 -0.0849
   70SLPC   H4X 6056   5.821   2.873  10.557  1.8530  0.5923 -0.5365
   70SLPC   H4Y 6057   5.859   2.981  10.427  0.0515  0.7808  1.6078
   70SLPC   C35 6058   5.762   2.785  10.367  0.0993  0.1553  0.6803
   70SLPC   H5X 6059   5.679   2.723  10.405 -1.6069  0.8216 -1.7421
   70SLPC   H5Y 6060   5.855   2.725  10.367 -0.0058 -0.0095  0.3008
   70SLPC   C36 6061   5.735   2.818  10.221 -0.0646 -0.3181 -0.1373
   70SLPC   H6X 6062   5.800   2.905  10.201 -0.3833 -0.2188 -0.7485
   70SLPC   H6Y 6063   5.630   2.855  10.215 -1.6160 -3.7454  2.0690
   70SLPC   C37 6064   5.757   2.702  10.121 -0.1310  1.0251  1.0917
   70SLPC   H7X 6065   5.684   2.626  10.157 -1.7276  1.5336 -0.9099
   70SLPC   H7Y 6066   5.860   2.660  10.123 -0.6399 -0.2634  1.7649
   70SLPC   C38 6067   5.733   2.731   9.969 -0.5423  0.2620  0.1173
   70SLPC   H8X 6068   5.814   2.801   9.937  0.1751 -0.4537  0.3165
   70SLPC   H8Y 6069   5.636   2.773   9.937  0.1483  1.0792 -0.9818
   70SLPC   C39 6070   5.776   2.612   9.886 -0.6870  0.1750  0.2392
   70SLPC   H9X 6071   5.715   2.526   9.921 -1.4567 -0.3279 -2.1752
   70SLPC   H9Y 6072   5.883   2.589   9.904 -0.3019  1.3041 -0.5010
   70SLPC  C310 6073   5.761   2.638   9.740  0.5480  0.1302  0.0924
   70SLPC  H10X 6074   5.814   2.730   9.705 -0.7274  0.6035 -0.6657
   70SLPC  H10Y 6075   5.657   2.650   9.704  0.8875  0.0079 -0.9641
   70SLPC  C311 6076   5.817   2.520   9.654  0.1583  0.0330  0.2780
   70SLPC  H11X 6077   5.766   2.423   9.665  0.7629 -0.5460 -1.6576
   70SLPC  H11Y 6078   5.926   2.507   9.671  0.1826 -0.0266  0.0748
   70SLPC  C312 6079   5.791   2.556   9.503 -0.5134  0.5219 -0.1111
   70SLPC  H12X 6080   5.866   2.630   9.469  0.1315 -0.1738 -0.2409
   70SLPC  H12Y 6081   5.689   2.599   9.500 -1.9098 -2.5174 -0.0436
   70SLPC  C313 6082   5.792   2.443   9.390 -0.3129  0.6114  0.1478
   70SLPC  H13X 6083   5.734   2.360   9.437 -1.8687  1.8735  0.5766
   70SLPC  H13Y 6084   5.893   2.399   9.374 -1.2919 -1.3745 -1.0756
   70SLPC  C314 6085   5.746   2.489   9.244 -0.5214 -0.1845  0.2180
   70SLPC  H14X 6086   5.800   2.583   9.219  0.9911 -0.7445  1.2672
   70SLPC  H14Y 6087   5.640   2.522   9.254 -0.6534 -0.4425 -0.3276
   70SLPC  C315 6088   5.755   2.376   9.145  0.6372  1.0430 -0.2600
   70SLPC  H15X 6089   5.701   2.282   9.168  1.0416  0.7200 -0.6050
   70SLPC  H15Y 6090   5.858   2.335   9.157 -0.2791 -0.7047  2.5335
   70SLPC  C316 6091   5.706   2.413   9.003  0.2792 -0.8656  0.3779
   70SLPC  H16X 6092   5.775   2.491   8.962 -2.3048  1.7676  0.6770
   70SLPC  H16Y 6093   5.614   2.475   9.010 -0.8222 -2.0801 -2.1369
   70SLPC  C317 6094   5.665   2.299   8.900 -0.2846 -0.4725 -0.6605
   70SLPC  H17X 6095   5.582   2.237   8.941  0.2234 -0.4922  0.3795
   70SLPC  H17Y 6096   5.761   2.248   8.878  1.5165  2.3750 -0.0138
   70SLPC  C318 6097   5.615   2.349   8.760 -0.0929 -0.3822  0.7294
   70SLPC  H18X 6098   5.550   2.438   8.771  0.0973 -0.1832  0.2700
   70SLPC  H18Y 6099   5.550   2.271   8.716  0.3786 -0.3928  0.0435
   70SLPC  H18Z 6100   5.696   2.369   8.687 -0.8787  0.1882 -0.0041
   71SLPC     N 6101   0.164   3.452  11.050  0.5710  0.8597 -0.0805
   71SLPC   C13 6102   0.255   3.367  11.140 -0.3875 -0.8504 -0.4860
   71SLPC  H13A 6103   0.211   3.368  11.239 -1.1230  1.2140 -0.7865
   71SLPC  H13B 6104   0.262   3.263  11.111  1.3184 -0.7329 -0.6106
   71SLPC  H13C 6105   0.350   3.418  11.148 -1.7611  2.2783 -2.2224
   71SLPC   C14 6106   0.146   3.585  11.105 -0.2570 -0.0634 -0.0403
   71SLPC  H14A 6107   0.074   3.635  11.042 -1.2646 -2.2460 -0.7179
   71SLPC  H14B 6108   0.104   3.581  11.205 -1.0669 -1.2754 -0.4104
   71SLPC  H14C 6109   0.241   3.637  11.110 -0.0799 -0.4160  0.3342
   71SLPC   C15 6110   0.026   3.394  11.040  0.1172 -0.6254 -0.0262
   71SLPC  H15A 6111  -0.030   3.403  11.131  0.0652  2.0051 -0.2545
   71SLPC  H15B 6112  -0.032   3.442  10.963  0.1625 -1.0613 -0.3408
   71SLPC  H15C 6113   0.035   3.288  11.019 -1.5589 -1.0009  1.0405
   71SLPC   C12 6114   0.232   3.457  10.913  0.2483  0.4295  0.5826
   71SLPC  H12A 6115   0.253   3.362  10.867 -1.8183  0.5911 -0.8271
   71SLPC  H12B 6116   0.334   3.491  10.910  0.5534 -0.4390  0.9538
   71SLPC   C11 6117   0.163   3.554  10.804  0.4460 -0.1911  0.1296
   71SLPC  H11A 6118   0.207   3.541  10.703  1.5386 -1.2105  0.7171
   71SLPC  H11B 6119   0.178   3.661  10.832  2.1855  0.0486 -1.5099
   71SLPC     P 6120  -0.083   3.630  10.756  0.3467 -0.3031  0.1539
   71SLPC   O13 6121  -0.216   3.565  10.741 -0.7252 -0.0075 -0.2503
   71SLPC   O14 6122  -0.082   3.745  10.851 -0.0601 -0.1768 -0.8002
   71SLPC   O12 6123   0.022   3.521  10.798 -0.1340  0.0633  0.6517
   71SLPC   O11 6124  -0.023   3.672  10.620  0.6505  0.4822  0.1601
   71SLPC    C1 6125  -0.006   3.579  10.510  0.3069  0.0020 -0.1002
   71SLPC    HA 6126   0.098   3.589  10.471  0.9539  0.1905  1.5430
   71SLPC    HB 6127  -0.021   3.471  10.534 -1.5758  0.2263 -0.1649
   71SLPC    C2 6128  -0.112   3.613  10.397 -0.4492 -0.3900 -0.0410
   71SLPC    HS 6129  -0.209   3.576  10.434 -0.1146 -0.3389  0.9189
   71SLPC   O21 6130  -0.080   3.552  10.267 -0.1143  0.1640 -0.4754
   71SLPC   C21 6131  -0.102   3.416  10.272  0.0970 -0.2828  0.4474
   71SLPC   O22 6132  -0.153   3.354  10.360 -0.1333 -0.0187 -0.6659
   71SLPC   C22 6133  -0.049   3.351  10.137  0.5560 -0.7554  0.1945
   71SLPC   H2R 6134   0.014   3.267  10.171 -1.5899 -3.1464 -1.4171
   71SLPC   H2S 6135  -0.135   3.303  10.085  0.5366  0.1280 -0.6209
   71SLPC    C3 6136  -0.123   3.765  10.369  0.0730 -0.3485  0.0631
   71SLPC    HX 6137  -0.028   3.804  10.326 -0.4631  0.2110 -0.6306
   71SLPC    HY 6138  -0.149   3.821  10.462  1.3937  0.9461 -0.3112
   71SLPC   O31 6139  -0.228   3.790  10.281 -0.2768 -0.0768 -0.4578
   71SLPC   C31 6140  -0.228   3.905  10.207  0.3045 -0.7178 -0.0413
   71SLPC   O32 6141  -0.143   3.994  10.214 -0.2673 -0.1767 -0.1263
   71SLPC   C32 6142  -0.332   3.884  10.096  0.5497  0.2912  0.5727
   71SLPC   H2X 6143  -0.419   3.945  10.126 -0.2089  0.0688 -1.0772
   71SLPC   H2Y 6144  -0.375   3.781  10.102  0.8097 -0.0488 -2.1353
   71SLPC   C23 6145   0.033   3.443  10.049  0.3173  0.6608  0.1009
   71SLPC   H3R 6146   0.112   3.493  10.108  0.2722  0.3899  0.3916
   71SLPC   H3S 6147  -0.038   3.518  10.006 -1.3888 -1.2557 -0.6012
   71SLPC   C24 6148   0.093   3.365   9.939  0.2062 -0.5529  0.0963
   71SLPC   H4R 6149   0.024   3.298   9.883 -0.2308 -1.4698  1.6830
   71SLPC   H4S 6150   0.165   3.290   9.978  0.2826 -0.3474  0.3458
   71SLPC   C25 6151   0.152   3.463   9.832 -0.7160  0.0161 -0.5754
   71SLPC   H5R 6152   0.247   3.502   9.874 -0.5164  0.4379 -1.3934
   71SLPC   H5S 6153   0.093   3.557   9.820 -1.3768 -0.1417  1.1529
   71SLPC   C26 6154   0.172   3.392   9.701  0.2385 -0.2542  0.0432
   71SLPC   H6R 6155   0.075   3.381   9.648 -0.6290  0.0547  1.5097
   71SLPC   H6S 6156   0.213   3.290   9.719 -1.4817 -0.6650  2.0288
   71SLPC   C27 6157   0.271   3.458   9.604  0.6758 -0.0661  0.2440
   71SLPC   H7R 6158   0.379   3.447   9.629  0.3672 -0.0536  1.7138
   71SLPC   H7S 6159   0.256   3.567   9.596  1.1316 -0.0157  0.0164
   71SLPC   C28 6160   0.256   3.405   9.457 -0.5188  0.4904 -0.4005
   71SLPC   H8R 6161   0.246   3.294   9.457 -3.3351  0.6351 -2.3949
   71SLPC   H8S 6162   0.342   3.418   9.389 -0.9789  1.5611 -0.7982
   71SLPC   C29 6163   0.134   3.460   9.390 -0.2568 -0.4802 -0.0881
   71SLPC   H9R 6164   0.038   3.428   9.435 -1.1020  2.4096  0.3434
   71SLPC  C210 6165   0.140   3.543   9.283  0.0276  0.0756  0.1801
   71SLPC  H10R 6166   0.046   3.576   9.235  1.1304  0.5232 -1.7515
   71SLPC  C211 6167   0.257   3.589   9.206  0.8143  0.4222  0.3042
   71SLPC  H11R 6168   0.344   3.613   9.271  0.9579  0.3520  0.1377
   71SLPC  H11S 6169   0.230   3.689   9.164 -0.7940  0.6841  1.8575
   71SLPC  C212 6170   0.275   3.487   9.096  0.6365  0.3002 -0.1338
   71SLPC  H12R 6171   0.249   3.383   9.122 -0.8478  0.6144 -0.2828
   71SLPC  C213 6172   0.307   3.515   8.966  0.3441  0.2104 -0.1569
   71SLPC  H13R 6173   0.319   3.428   8.900 -0.8691  0.2968 -0.5200
   71SLPC  C214 6174   0.352   3.656   8.917 -0.0010 -0.3788 -0.1672
   71SLPC  H14R 6175   0.371   3.727   9.000  1.1460  0.8072 -1.3924
   71SLPC  H14S 6176   0.276   3.702   8.850 -0.6840 -0.7930  0.3116
   71SLPC  C215 6177   0.477   3.625   8.833  0.2719 -0.3116 -0.3883
   71SLPC  H15R 6178   0.469   3.539   8.763 -0.1908  0.3936 -1.2342
   71SLPC  H15S 6179   0.556   3.610   8.910 -0.2149  1.5535  0.5517
   71SLPC  C216 6180   0.528   3.750   8.758 -0.5657 -0.3324 -0.2850
   71SLPC  H16R 6181   0.544   3.830   8.834 -1.1791  1.0301 -1.5442
   71SLPC  H16S 6182   0.451   3.789   8.689 -2.0264 -2.1931  0.2281
   71SLPC  C217 6183   0.664   3.723   8.686  0.0886 -0.3092 -0.1195
   71SLPC  H17R 6184   0.666   3.617   8.655 -0.3944 -0.6063  0.8312
   71SLPC  H17S 6185   0.752   3.734   8.754 -1.1988 -0.4765  1.6206
   71SLPC  C218 6186   0.682   3.816   8.570  0.4449  0.3791  0.4627
   71SLPC  H18R 6187   0.585   3.827   8.517 -0.6304 -1.5855  1.9054
   71SLPC  H18S 6188   0.763   3.775   8.507 -0.3821 -3.1427  1.4694
   71SLPC  H18T 6189   0.699   3.924   8.593  0.4772  0.4971 -0.0994
   71SLPC   C33 6190  -0.294   3.904   9.941  0.3366  0.3404 -0.0972
   71SLPC   H3X 6191  -0.250   3.810   9.903 -0.4712 -0.5093  0.9911
   71SLPC   H3Y 6192  -0.219   3.985   9.926  1.8276 -1.0148 -0.2364
   71SLPC   C34 6193  -0.420   3.937   9.855  0.0564  0.0729  0.4018
   71SLPC   H4X 6194  -0.483   4.017   9.900 -0.4359  0.5599 -1.0769
   71SLPC   H4Y 6195  -0.482   3.845   9.844 -1.4202  1.0585  0.2079
   71SLPC   C35 6196  -0.362   3.978   9.719  0.1811 -0.1108 -0.5511
   71SLPC   H5X 6197  -0.288   3.896   9.703  1.8254  0.8974  1.3867
   71SLPC   H5Y 6198  -0.306   4.074   9.723  1.4217 -0.7581 -1.6471
   71SLPC   C36 6199  -0.459   3.994   9.609  0.0619 -0.1970  0.3740
   71SLPC   H6X 6200  -0.520   3.901   9.603 -0.0006 -0.1462  0.2003
   71SLPC   H6Y 6201  -0.395   3.996   9.519  1.4503 -1.4249  1.3003
   71SLPC   C37 6202  -0.539   4.125   9.624 -0.0528  0.5147  1.3379
   71SLPC   H7X 6203  -0.477   4.217   9.637 -0.2927  0.8942 -0.0688
   71SLPC   H7Y 6204  -0.603   4.107   9.713  1.1429 -2.1399  1.7339
   71SLPC   C38 6205  -0.627   4.162   9.501 -1.2768  0.0740 -0.1234
   71SLPC   H8X 6206  -0.560   4.185   9.415  0.5326  0.0408  1.2240
   71SLPC   H8Y 6207  -0.680   4.255   9.531  0.6027  0.7444  1.2385
   71SLPC   C39 6208  -0.728   4.044   9.470  0.3151 -0.8205  1.4313
   71SLPC   H9X 6209  -0.741   4.002   9.572 -0.1215  0.5789  1.9810
   71SLPC   H9Y 6210  -0.682   3.969   9.403  0.5502  1.4381 -1.1116
   71SLPC  C310 6211  -0.871   4.083   9.425  0.0191 -0.1823  0.6793
   71SLPC  H10X 6212  -0.919   4.160   9.489  1.2097  0.4380  0.8437
   71SLPC  H10Y 6213  -0.931   3.993   9.449  0.3557 -0.7964 -0.6854
   71SLPC  C311 6214  -0.883   4.115   9.275 -0.2379 -0.1205  0.4037
   71SLPC  H11X 6215  -0.845   4.031   9.213  1.2590  0.9324 -0.1659
   71SLPC  H11Y 6216  -0.819   4.204   9.253  1.9848 -1.0791  2.4860
   71SLPC  C312 6217  -1.027   4.152   9.249 -0.6741 -0.9399  0.3813
   71SLPC  H12X 6218  -1.051   4.253   9.289 -1.6314 -0.7133 -0.7281
   71SLPC  H12Y 6219  -1.092   4.085   9.309 -1.3806  0.1547  0.8609
   71SLPC  C313 6220  -1.066   4.154   9.096 -0.2110  0.4097  0.6725
   71SLPC  H13X 6221  -1.172   4.187   9.103 -0.6363 -0.8119  0.2080
   71SLPC  H13Y 6222  -1.059   4.055   9.046 -0.2048  0.9928 -0.5124
   71SLPC  C314 6223  -0.988   4.258   9.011  0.1796 -0.1490 -0.7275
   71SLPC  H14X 6224  -0.888   4.213   8.993  0.0950 -1.2166  1.1592
   71SLPC  H14Y 6225  -0.979   4.350   9.073 -0.8695 -0.2472 -0.4036
   71SLPC  C315 6226  -1.051   4.295   8.876  0.7683  0.2007  0.4281
   71SLPC  H15X 6227  -0.984   4.365   8.822 -1.5603  3.7905  1.8090
   71SLPC  H15Y 6228  -1.146   4.349   8.896 -0.3577 -1.1772 -0.8860
   71SLPC  C316 6229  -1.080   4.167   8.797 -0.2809 -0.1345 -0.2385
   71SLPC  H16X 6230  -1.099   4.204   8.694  1.9554 -1.8504 -1.3599
   71SLPC  H16Y 6231  -1.174   4.125   8.837 -1.2913  3.4992  1.7117
   71SLPC  C317 6232  -0.963   4.069   8.778 -0.5772 -0.3925 -0.5587
   71SLPC  H17X 6233  -1.002   3.977   8.730  0.7762 -0.3482 -1.8281
   71SLPC  H17Y 6234  -0.925   4.040   8.878 -1.5767  2.3887  0.7101
   71SLPC  C318 6235  -0.850   4.112   8.683  0.5807 -0.0564  0.7631
   71SLPC  H18X 6236  -0.884   4.106   8.578 -2.4044  0.5295  1.5850
   71SLPC  H18Y 6237  -0.762   4.044   8.684  0.7913  0.2147  1.0487
   71SLPC  H18Z 6238  -0.822   4.215   8.712  0.7439  0.3778 -0.8698
   72SLPC     N 6239   0.175   0.513  11.126  0.6205 -0.1418  0.2281
   72SLPC   C13 6240   0.296   0.602  11.136 -0.4179  0.3601 -0.4884
   72SLPC  H13A 6241   0.287   0.678  11.212  0.5405  1.9140 -1.8643
   72SLPC  H13B 6242   0.383   0.542  11.161 -0.9572 -1.7873 -3.2196
   72SLPC  H13C 6243   0.309   0.650  11.040 -2.4764  2.0362 -0.0034
   72SLPC   C14 6244   0.072   0.624  11.123 -0.3738  0.3837 -0.6737
   72SLPC  H14A 6245   0.083   0.679  11.215  0.1165 -2.2490  0.9528
   72SLPC  H14B 6246   0.096   0.689  11.040 -1.1056  0.1896 -1.0534
   72SLPC  H14C 6247  -0.030   0.587  11.118 -0.7738  0.7421  2.6493
   72SLPC   C15 6248   0.165   0.431  11.247  0.0828 -0.8022  0.3229
   72SLPC  H15A 6249   0.236   0.352  11.263  0.5866 -0.3908  0.1629
   72SLPC  H15B 6250   0.180   0.484  11.340  3.6165 -2.2624  0.7421
   72SLPC  H15C 6251   0.064   0.392  11.246 -1.4818  2.8350  0.0976
   72SLPC   C12 6252   0.184   0.434  11.000 -0.0610 -0.1527  0.4084
   72SLPC  H12A 6253   0.114   0.352  10.993 -0.5682  0.4064 -2.3294
   72SLPC  H12B 6254   0.279   0.382  10.998 -0.6419 -1.2275 -0.2555
   72SLPC   C11 6255   0.184   0.513  10.869  0.5143 -0.5238 -0.1019
   72SLPC  H11A 6256   0.086   0.564  10.857  0.9569  0.1290 -1.0395
   72SLPC  H11B 6257   0.194   0.438  10.789  0.6560  0.5036 -1.0744
   72SLPC     P 6258   0.420   0.601  10.779  0.1852  0.0805 -0.0434
   72SLPC   O13 6259   0.506   0.709  10.839 -0.4834  0.0487  0.3105
   72SLPC   O14 6260   0.478   0.465  10.779 -0.4069  0.6623 -0.0193
   72SLPC   O12 6261   0.282   0.614  10.857  0.1373  0.2056 -0.8454
   72SLPC   O11 6262   0.368   0.627  10.631 -0.2867 -1.0540 -0.2613
   72SLPC    C1 6263   0.297   0.746  10.608 -0.1542 -0.2774 -0.3991
   72SLPC    HA 6264   0.189   0.734  10.628 -0.5248  2.6803 -0.2081
   72SLPC    HB 6265   0.323   0.829  10.677 -1.2684 -1.3380  1.4009
   72SLPC    C2 6266   0.336   0.800  10.463 -0.5965  0.6037  0.8302
   72SLPC    HS 6267   0.283   0.893  10.435  0.5540  1.1330  0.3132
   72SLPC   O21 6268   0.325   0.700  10.360  0.0957 -0.4670  0.0461
   72SLPC   C21 6269   0.201   0.666  10.326 -0.7689 -0.8477  0.0801
   72SLPC   O22 6270   0.098   0.717  10.355  0.3395  0.6088  0.5930
   72SLPC   C22 6271   0.220   0.562  10.213 -0.3838  0.1561 -0.0295
   72SLPC   H2R 6272   0.270   0.607  10.125  1.5642 -2.0266 -0.1321
   72SLPC   H2S 6273   0.279   0.478  10.256  1.8097  1.6507  0.0415
   72SLPC    C3 6274   0.491   0.839  10.463 -0.3554 -0.6823  0.6260
   72SLPC    HX 6275   0.550   0.751  10.497  0.3674  0.3837  2.2755
   72SLPC    HY 6276   0.517   0.920  10.535 -1.3381  0.1400  0.0912
   72SLPC   O31 6277   0.531   0.883  10.333 -0.0818 -0.0471 -0.3698
   72SLPC   C31 6278   0.660   0.890  10.321  0.0237 -0.2082  0.3346
   72SLPC   O32 6279   0.742   0.823  10.381  0.3774  0.0594  0.2901
   72SLPC   C32 6280   0.699   0.991  10.203 -0.2892  0.0858  0.6948
   72SLPC   H2X 6281   0.809   1.005  10.200 -0.4027  1.5461  2.1895
   72SLPC   H2Y 6282   0.667   1.092  10.237 -0.7686 -0.5392  2.1739
   72SLPC   C23 6283   0.089   0.509  10.156 -0.1835 -0.3368 -0.2922
   72SLPC   H3R 6284   0.028   0.589  10.109  0.5184  0.2862 -0.1715
   72SLPC   H3S 6285   0.031   0.466  10.241 -2.4182  0.4576 -1.3311
   72SLPC   C24 6286   0.121   0.402  10.052  0.2154  0.5367  0.7899
   72SLPC   H4R 6287   0.165   0.319  10.111  1.9993  1.0321  0.2253
   72SLPC   H4S 6288   0.199   0.432   9.978  1.7285  0.2657  2.2091
   72SLPC   C25 6289  -0.000   0.347   9.986  0.7437 -0.4429  0.6484
   72SLPC   H5R 6290  -0.103   0.359  10.027  0.4501 -1.0232  0.1066
   72SLPC   H5S 6291   0.006   0.238   9.966 -2.3727 -0.5982  0.0512
   72SLPC   C26 6292   0.000   0.405   9.841  0.1976  0.0975 -0.0491
   72SLPC   H6R 6293   0.082   0.381   9.771 -0.2930  0.6878 -0.8323
   72SLPC   H6S 6294   0.004   0.514   9.857 -2.1118  0.0600  1.2210
   72SLPC   C27 6295  -0.129   0.371   9.782  0.8410  0.5641  0.7191
   72SLPC   H7R 6296  -0.216   0.410   9.838  0.3544  1.4638 -0.6020
   72SLPC   H7S 6297  -0.158   0.265   9.770  1.6044  0.3222  0.9656
   72SLPC   C28 6298  -0.151   0.450   9.651 -0.5575 -0.3820 -0.2551
   72SLPC   H8R 6299  -0.129   0.553   9.684  0.6483 -1.0574  1.1495
   72SLPC   H8S 6300  -0.256   0.433   9.620 -1.0745  0.3773  1.0156
   72SLPC   C29 6301  -0.061   0.413   9.540 -0.0209  0.0407 -0.0875
   72SLPC   H9R 6302   0.031   0.359   9.568 -0.0943  1.0445  2.3827
   72SLPC  C210 6303  -0.090   0.434   9.411  0.4517 -0.2973 -0.0845
   72SLPC  H10R 6304  -0.015   0.391   9.343  0.7300  0.7313 -0.4576
   72SLPC  C211 6305  -0.207   0.496   9.344  0.6248 -0.2171 -0.8950
   72SLPC  H11R 6306  -0.186   0.571   9.265 -1.2776  0.3906 -0.8643
   72SLPC  H11S 6307  -0.249   0.569   9.415 -2.1792 -0.6319 -2.0030
   72SLPC  C212 6308  -0.321   0.407   9.306  0.1588  0.0240  0.2513
   72SLPC  H12R 6309  -0.404   0.413   9.378  0.0905 -1.0563  0.2802
   72SLPC  C213 6310  -0.333   0.323   9.204  0.1778  0.7883 -0.1303
   72SLPC  H13R 6311  -0.427   0.268   9.195  0.0906  0.7952  0.6678
   72SLPC  C214 6312  -0.220   0.294   9.103 -0.0480 -0.0558  0.2607
   72SLPC  H14R 6313  -0.213   0.184   9.088 -1.2289 -0.2525  1.0092
   72SLPC  H14S 6314  -0.122   0.323   9.145 -0.4629 -1.2279  2.1582
   72SLPC  C215 6315  -0.244   0.355   8.969  0.2439  0.4238  0.7871
   72SLPC  H15R 6316  -0.177   0.305   8.896 -0.1454  1.1832 -0.1190
   72SLPC  H15S 6317  -0.236   0.466   8.964 -1.9577  0.6949  1.9872
   72SLPC  C216 6318  -0.382   0.326   8.910  0.1085 -0.1664  0.5502
   72SLPC  H16R 6319  -0.456   0.388   8.966  1.6900  2.1042  0.2708
   72SLPC  H16S 6320  -0.410   0.219   8.909  1.5576 -0.5720 -0.4005
   72SLPC  C217 6321  -0.400   0.384   8.764 -0.3059 -0.2693  0.0617
   72SLPC  H17R 6322  -0.330   0.320   8.706 -0.5224  0.6008 -1.1944
   72SLPC  H17S 6323  -0.361   0.488   8.766 -0.8835 -0.0377 -0.4595
   72SLPC  C218 6324  -0.535   0.385   8.703  0.4667 -0.2431 -0.4875
   72SLPC  H18R 6325  -0.538   0.394   8.592  1.5639 -3.6337 -0.8963
   72SLPC  H18S 6326  -0.590   0.472   8.746 -0.8976 -0.6765 -1.2877
   72SLPC  H18T 6327  -0.597   0.304   8.745 -0.0429  0.2622 -0.2428
   72SLPC   C33 6328   0.637   0.960  10.067  0.5015  0.0759 -0.1717
   72SLPC   H3X 6329   0.530   0.992  10.068  0.1894 -0.9410  0.0278
   72SLPC   H3Y 6330   0.637   0.850  10.049 -2.5141 -0.4050  1.9531
   72SLPC   C34 6331   0.708   1.019   9.946 -0.1540  0.2747 -0.2537
   72SLPC   H4X 6332   0.807   0.968   9.953  0.4871  1.3922 -0.9593
   72SLPC   H4Y 6333   0.731   1.127   9.959  0.0231  0.2650 -0.4981
   72SLPC   C35 6334   0.645   0.990   9.807  0.1471  0.3691 -0.6109
   72SLPC   H5X 6335   0.542   1.029   9.797 -0.0163 -0.1266 -0.8877
   72SLPC   H5Y 6336   0.646   0.881   9.785  0.8656  0.5216 -1.4249
   72SLPC   C36 6337   0.733   1.045   9.697  0.2939  0.4977  0.8210
   72SLPC   H6X 6338   0.834   1.011   9.728  0.5512 -0.1516 -0.6706
   72SLPC   H6Y 6339   0.738   1.156   9.708 -0.2128  0.4856  1.2329
   72SLPC   C37 6340   0.696   0.996   9.562  0.8834  0.5545 -0.5606
   72SLPC   H7X 6341   0.698   0.885   9.559  0.4664  0.3892  2.2444
   72SLPC   H7Y 6342   0.777   1.032   9.495  1.2256 -0.7997 -0.8937
   72SLPC   C38 6343   0.555   1.051   9.523 -0.2044 -0.5819  0.0768
   72SLPC   H8X 6344   0.546   1.159   9.547  0.9237 -0.7708  1.4934
   72SLPC   H8Y 6345   0.476   0.998   9.580 -2.3821  0.5749 -1.7252
   72SLPC   C39 6346   0.529   1.035   9.375 -0.6120 -0.0849 -1.0981
   72SLPC   H9X 6347   0.600   1.108   9.331 -1.0427  0.8209 -0.3084
   72SLPC   H9Y 6348   0.425   1.067   9.358 -0.7454 -0.2504 -0.6298
   72SLPC  C310 6349   0.551   0.903   9.305  0.3840 -0.1525 -0.0638
   72SLPC  H10X 6350   0.490   0.825   9.355 -0.3529  1.2997  1.3992
   72SLPC  H10Y 6351   0.659   0.883   9.325  0.9759  2.0484 -0.6945
   72SLPC  C311 6352   0.524   0.903   9.153  0.3381 -0.1387 -0.6943
   72SLPC  H11X 6353   0.560   0.992   9.096  1.2673 -0.5413 -0.7438
   72SLPC  H11Y 6354   0.415   0.894   9.134  0.2377 -1.4398  0.4102
   72SLPC  C312 6355   0.592   0.789   9.084 -0.4976  0.2915 -0.0384
   72SLPC  H12X 6356   0.560   0.696   9.137  1.5165  0.2635  1.2277
   72SLPC  H12Y 6357   0.702   0.793   9.097 -0.7227  0.9613  2.0040
   72SLPC  C313 6358   0.543   0.787   8.936  0.2859 -0.1070  0.4824
   72SLPC  H13X 6359   0.434   0.806   8.924  0.0693 -2.3263 -1.9449
   72SLPC  H13Y 6360   0.559   0.681   8.907  2.7332 -0.1668  1.7774
   72SLPC  C314 6361   0.640   0.867   8.841  0.0222  0.0895 -0.8889
   72SLPC  H14X 6362   0.735   0.897   8.890 -0.1089  0.7315 -1.0225
   72SLPC  H14Y 6363   0.586   0.961   8.819 -1.4562 -0.5925 -0.2770
   72SLPC  C315 6364   0.658   0.788   8.712 -0.2955 -0.0119  0.1417
   72SLPC  H15X 6365   0.555   0.757   8.683 -0.9996  0.3784  2.0764
   72SLPC  H15Y 6366   0.716   0.694   8.724 -3.0083 -2.3119 -3.0869
   72SLPC  C316 6367   0.703   0.887   8.603 -0.6537 -0.1325  0.2589
   72SLPC  H16X 6368   0.652   0.984   8.622  2.0893  1.3188  0.7698
   72SLPC  H16Y 6369   0.666   0.853   8.504 -0.7908  0.3999  0.1259
   72SLPC  C317 6370   0.849   0.906   8.583 -0.4704 -0.2131  0.0933
   72SLPC  H17X 6371   0.905   0.822   8.538  1.0063  0.3160  0.8427
   72SLPC  H17Y 6372   0.900   0.914   8.682 -1.0271 -1.7635  0.5264
   72SLPC  C318 6373   0.891   1.032   8.504  0.2767 -0.5107  0.3732
   72SLPC  H18X 6374   0.864   1.116   8.572 -0.4008 -0.3992 -0.0287
   72SLPC  H18Y 6375   0.825   1.046   8.416 -1.2885  0.3166  1.6341
   72SLPC  H18Z 6376   1.000   1.031   8.483  0.1285  2.2846 -0.9551
   73SLPC     N 6377   6.271   6.613  10.827  0.2311  0.0217  0.3365
   73SLPC   C13 6378   6.214   6.704  10.714  0.4132 -0.2344 -0.5993
   73SLPC  H13A 6379   6.176   6.794  10.760  0.9489  0.0650 -0.7317
   73SLPC  H13B 6380   6.286   6.723  10.635 -0.1684  0.7792 -0.9008
   73SLPC  H13C 6381   6.132   6.656  10.663 -0.6373 -1.0036  1.6637
   73SLPC   C14 6382   6.170   6.625  10.944 -0.1585 -0.0298 -0.3177
   73SLPC  H14A 6383   6.071   6.608  10.906 -0.1155 -0.5095 -0.2119
   73SLPC  H14B 6384   6.201   6.554  11.019  0.8630 -0.3739 -1.0423
   73SLPC  H14C 6385   6.180   6.723  10.989  0.5479 -0.6593  0.9384
   73SLPC   C15 6386   6.403   6.653  10.888  0.3860  0.2493  0.7252
   73SLPC  H15A 6387   6.479   6.660  10.812  1.5497 -1.6118  1.6506
   73SLPC  H15B 6388   6.397   6.746  10.942  1.3008  1.2074 -0.7542
   73SLPC  H15C 6389   6.434   6.578  10.959  0.3876  1.5513  2.1622
   73SLPC   C12 6390   6.269   6.467  10.786  0.8962  0.5888  0.8997
   73SLPC  H12A 6391   6.166   6.447  10.760  0.7911  0.3684  1.4612
   73SLPC  H12B 6392   6.291   6.404  10.871  0.8694  0.6085  0.9217
   73SLPC   C11 6393   6.359   6.429  10.666  0.3681  0.5865 -0.7571
   73SLPC  H11A 6394   6.336   6.500  10.584 -0.3503 -0.2729 -1.3214
   73SLPC  H11B 6395   6.330   6.328  10.630  4.6114 -0.4733 -1.8565
   73SLPC     P 6396   6.573   6.328  10.780 -0.3423 -0.1728  0.0103
   73SLPC   O13 6397   6.596   6.380  10.913  0.1433  0.1365 -0.5682
   73SLPC   O14 6398   6.506   6.200  10.769 -0.3747  0.2033 -0.6888
   73SLPC   O12 6399   6.497   6.442  10.693 -0.5821  0.0709 -0.6406
   73SLPC   O11 6400   6.709   6.300  10.704 -0.3660 -0.4734  0.2896
   73SLPC    C1 6401   6.749   6.353  10.576  0.0288  0.6434 -0.3678
   73SLPC    HA 6402   6.668   6.421  10.540 -1.8494 -0.1651  2.0519
   73SLPC    HB 6403   6.835   6.420  10.599  1.7908 -1.9329  1.0411
   73SLPC    C2 6404   6.797   6.234  10.483 -0.3867 -0.2069  0.2982
   73SLPC    HS 6405   6.838   6.279  10.390  0.7852  3.4622  2.3798
   73SLPC   O21 6406   6.679   6.147  10.461 -0.1435 -0.2810 -0.3400
   73SLPC   C21 6407   6.587   6.204  10.380  0.4208 -0.2078 -0.0614
   73SLPC   O22 6408   6.606   6.304  10.313  0.8358 -0.4166  0.2463
   73SLPC   C22 6409   6.472   6.105  10.360 -0.7307 -0.4070  0.1735
   73SLPC   H2R 6410   6.512   6.001  10.355  0.7354  0.1634 -0.6159
   73SLPC   H2S 6411   6.409   6.107  10.451 -1.3860 -0.9189 -0.2528
   73SLPC    C3 6412   6.912   6.150  10.561  0.3083 -0.8049  0.1167
   73SLPC    HX 6413   6.859   6.063  10.607 -0.9044 -0.0053  0.2888
   73SLPC    HY 6414   6.949   6.204  10.650 -0.8014 -0.9907  0.7178
   73SLPC   O31 6415   7.001   6.114  10.457 -0.4041  0.1669  0.3042
   73SLPC   C31 6416   7.071   5.998  10.477  0.3283  0.1663  0.5497
   73SLPC   O32 6417   7.059   5.926  10.573  0.9421 -0.0237 -0.1688
   73SLPC   C32 6418   7.156   5.978  10.355 -0.6867 -0.0406  0.7542
   73SLPC   H2X 6419   7.235   6.056  10.357 -0.8288  0.1923 -1.1861
   73SLPC   H2Y 6420   7.092   5.984  10.264  1.6427 -0.2428 -1.0045
   73SLPC   C23 6421   6.384   6.129  10.236  0.4935 -0.1163 -0.5365
   73SLPC   H3R 6422   6.378   6.233  10.199  1.7715 -0.1782 -0.9655
   73SLPC   H3S 6423   6.285   6.087  10.265  0.2943  0.5665 -0.1910
   73SLPC   C24 6424   6.423   6.057  10.105  0.5574 -0.3031 -0.0593
   73SLPC   H4R 6425   6.381   5.954  10.107  0.5654 -0.2958  0.8736
   73SLPC   H4S 6426   6.533   6.051  10.092  0.3447 -1.1997 -1.7870
   73SLPC   C25 6427   6.371   6.118   9.978 -0.0742  0.4234  0.4835
   73SLPC   H5R 6428   6.389   6.228   9.974 -2.5682  0.9319  1.5925
   73SLPC   H5S 6429   6.261   6.102   9.976  0.0985 -1.1009  1.6346
   73SLPC   C26 6430   6.430   6.063   9.845  0.5628 -0.3095  0.2915
   73SLPC   H6R 6431   6.411   5.954   9.844 -0.4867 -0.1372 -0.8270
   73SLPC   H6S 6432   6.541   6.062   9.852  0.5861 -1.8518  0.0132
   73SLPC   C27 6433   6.384   6.140   9.727  0.6391 -0.5489 -0.7229
   73SLPC   H7R 6434   6.366   6.249   9.742  0.5046 -0.7209  0.3982
   73SLPC   H7S 6435   6.285   6.094   9.706 -0.0432 -0.0652  1.2018
   73SLPC   C28 6436   6.475   6.124   9.609 -0.8423 -0.0823 -0.4708
   73SLPC   H8R 6437   6.510   6.019   9.608  1.0630  0.5158 -1.1791
   73SLPC   H8S 6438   6.569   6.180   9.629 -3.0058  4.0246 -0.6315
   73SLPC   C29 6439   6.415   6.176   9.482  0.1128  0.2416  1.3455
   73SLPC   H9R 6440   6.307   6.159   9.469  0.7912 -3.8975 -0.4300
   73SLPC  C210 6441   6.484   6.225   9.372  0.3281  0.1265 -0.3177
   73SLPC  H10R 6442   6.422   6.267   9.291 -0.6952  0.7815  0.7559
   73SLPC  C211 6443   6.637   6.236   9.362 -0.1929 -0.2586  0.1579
   73SLPC  H11R 6444   6.673   6.256   9.465  1.5295  1.7862 -0.7670
   73SLPC  H11S 6445   6.673   6.329   9.313  0.2582 -0.9927 -0.9328
   73SLPC  C212 6446   6.691   6.104   9.305  0.7371 -1.1258 -0.6704
   73SLPC  H12R 6447   6.688   6.015   9.369 -1.0365  1.1283  2.6915
   73SLPC  C213 6448   6.726   6.095   9.176 -0.0603  0.3979  0.1168
   73SLPC  H13R 6449   6.774   6.004   9.138 -0.0888  0.5851 -0.3718
   73SLPC  C214 6450   6.719   6.209   9.075 -0.3657 -0.2424  0.4212
   73SLPC  H14R 6451   6.645   6.287   9.102 -0.6128  0.1330 -1.2894
   73SLPC  H14S 6452   6.677   6.172   8.979  0.2627 -2.4706  0.9426
   73SLPC  C215 6453   6.850   6.287   9.032 -0.3152  0.2245 -0.6645
   73SLPC  H15R 6454   6.831   6.363   8.953  2.3639  1.8538  0.1100
   73SLPC  H15S 6455   6.916   6.205   8.995  0.2947  0.1053  0.6233
   73SLPC  C216 6456   6.912   6.363   9.148 -0.2363 -0.4689 -0.3224
   73SLPC  H16R 6457   6.896   6.312   9.245 -0.5311 -2.5410 -1.4130
   73SLPC  H16S 6458   6.860   6.461   9.155  0.0433 -0.3275 -0.1939
   73SLPC  C217 6459   7.060   6.382   9.121 -1.0320 -0.4297  0.8018
   73SLPC  H17R 6460   7.105   6.290   9.078  0.1376 -0.5289  2.1586
   73SLPC  H17S 6461   7.113   6.400   9.217  0.0421 -0.4358  0.2271
   73SLPC  C218 6462   7.098   6.489   9.019  0.2968 -0.0211  0.4135
   73SLPC  H18R 6463   7.208   6.491   9.005  0.4866 -1.6630  1.4099
   73SLPC  H18S 6464   7.058   6.591   9.037 -0.2646 -0.1271 -0.1771
   73SLPC  H18T 6465   7.051   6.466   8.921  0.6846 -1.7393  0.5946
   73SLPC   C33 6466   7.236   5.842  10.350 -0.4183 -0.7994  0.1934
   73SLPC   H3X 6467   7.255   5.793  10.448  0.0128 -1.4809 -0.2124
   73SLPC   H3Y 6468   7.339   5.871  10.320 -1.0467  2.2537  0.7311
   73SLPC   C34 6469   7.186   5.741  10.247  0.1879 -0.0346 -1.2125
   73SLPC   H4X 6470   7.085   5.703  10.272  0.5069  0.1279  0.4092
   73SLPC   H4Y 6471   7.244   5.647  10.259 -1.1245 -0.9040 -1.3696
   73SLPC   C35 6472   7.197   5.792  10.110  0.4860  0.0440 -0.3448
   73SLPC   H5X 6473   7.299   5.835  10.096  2.4740 -4.1010 -0.1126
   73SLPC   H5Y 6474   7.121   5.866  10.076  0.3100 -0.4102 -0.9532
   73SLPC   C36 6475   7.184   5.674  10.008  0.3568  0.3144  0.5129
   73SLPC   H6X 6476   7.094   5.614  10.035 -2.5264  3.3938 -1.4706
   73SLPC   H6Y 6477   7.276   5.614  10.022  1.9775  2.5309 -0.0965
   73SLPC   C37 6478   7.176   5.710   9.865  0.2838 -0.4549  0.3681
   73SLPC   H7X 6479   7.253   5.782   9.829  1.3374 -0.6158  2.1758
   73SLPC   H7Y 6480   7.077   5.760   9.853  0.1567 -0.1700  2.1827
   73SLPC   C38 6481   7.188   5.590   9.768 -0.4575  0.2284  0.2802
   73SLPC   H8X 6482   7.127   5.508   9.811 -0.3896  0.4179  0.7358
   73SLPC   H8Y 6483   7.288   5.543   9.773 -0.7997 -0.6950 -0.9240
   73SLPC   C39 6484   7.168   5.626   9.621  0.9131  0.0506  0.3921
   73SLPC   H9X 6485   7.234   5.712   9.603 -1.8181  1.9896 -1.1242
   73SLPC   H9Y 6486   7.068   5.676   9.615  0.9411  0.2225  1.2047
   73SLPC  C310 6487   7.185   5.519   9.517 -0.0943  0.3791 -0.4734
   73SLPC  H10X 6488   7.117   5.434   9.542  0.8478 -0.8160 -1.7987
   73SLPC  H10Y 6489   7.288   5.481   9.530 -0.2790  0.2898  0.8875
   73SLPC  C311 6490   7.155   5.562   9.379 -0.0512 -0.1995  0.0733
   73SLPC  H11X 6491   7.217   5.652   9.360  0.1558 -0.4484 -0.4384
   73SLPC  H11Y 6492   7.050   5.596   9.365  0.4304  0.7853 -1.3688
   73SLPC  C312 6493   7.192   5.466   9.269  0.2208 -0.1435  0.1708
   73SLPC  H12X 6494   7.185   5.522   9.174 -1.2346  0.4455  0.6078
   73SLPC  H12Y 6495   7.121   5.382   9.255  1.4154 -0.7045 -3.9773
   73SLPC  C313 6496   7.325   5.405   9.295 -0.3540  0.1379  0.6259
   73SLPC  H13X 6497   7.330   5.329   9.377  0.4419  2.3789  2.7932
   73SLPC  H13Y 6498   7.402   5.482   9.318 -0.5142 -0.0802  2.0151
   73SLPC  C314 6499   7.363   5.329   9.169 -0.0836  0.4677  0.6910
   73SLPC  H14X 6500   7.346   5.395   9.081  0.6620 -0.1785  0.0451
   73SLPC  H14Y 6501   7.293   5.243   9.156 -0.2925  0.2898  2.7441
   73SLPC  C315 6502   7.510   5.283   9.151  0.4126  0.4747  0.1117
   73SLPC  H15X 6503   7.541   5.224   9.240  1.1440  0.2613 -0.2767
   73SLPC  H15Y 6504   7.584   5.364   9.164  0.3626  0.2918  1.7121
   73SLPC  C316 6505   7.538   5.209   9.024  0.1600  0.3538 -0.4346
   73SLPC  H16X 6506   7.480   5.115   9.013  1.2328 -0.1505 -2.2796
   73SLPC  H16Y 6507   7.637   5.158   9.032 -0.5853 -0.9089  1.2756
   73SLPC  C317 6508   7.548   5.282   8.893 -0.0884  0.0571  0.5468
   73SLPC  H17X 6509   7.613   5.368   8.922 -0.6841  0.5158  0.5468
   73SLPC  H17Y 6510   7.448   5.318   8.863  0.5640  1.1588 -0.3858
   73SLPC  C318 6511   7.621   5.196   8.780  0.4050 -0.8218 -0.7912
   73SLPC  H18X 6512   7.567   5.112   8.730 -2.3730 -0.6476  1.7004
   73SLPC  H18Y 6513   7.712   5.150   8.826  1.2852  1.3725 -0.2250
   73SLPC  H18Z 6514   7.664   5.256   8.696  0.6161 -1.5046 -1.1889
   74SLPC     N 6515   6.570   1.204  10.983  0.1513 -0.3312  0.4831
   74SLPC   C13 6516   6.691   1.122  10.998  0.0207 -0.2347  0.2693
   74SLPC  H13A 6517   6.680   1.070  11.092 -1.0561  0.6422  0.6464
   74SLPC  H13B 6518   6.699   1.050  10.918  0.2010 -2.4662  2.1783
   74SLPC  H13C 6519   6.787   1.171  11.009  0.3078 -0.5426 -0.7814
   74SLPC   C14 6520   6.580   1.315  11.084 -0.4231  0.3529 -0.4070
   74SLPC  H14A 6521   6.676   1.365  11.078  1.2749 -1.7570  4.4297
   74SLPC  H14B 6522   6.505   1.392  11.070 -2.8660 -1.2867  2.5452
   74SLPC  H14C 6523   6.574   1.285  11.187 -2.1946  4.0911  0.7403
   74SLPC   C15 6524   6.459   1.115  11.015  0.0746 -0.3075 -0.7510
   74SLPC  H15A 6525   6.365   1.166  11.024  0.3954  0.0846  0.6101
   74SLPC  H15B 6526   6.445   1.034  10.945  0.1196  1.8035 -3.3948
   74SLPC  H15C 6527   6.486   1.075  11.111  1.4466 -0.3686 -1.1370
   74SLPC   C12 6528   6.566   1.255  10.840 -0.1275  0.0186 -0.4577
   74SLPC  H12A 6529   6.648   1.323  10.824  0.0051  0.2723  1.1747
   74SLPC  H12B 6530   6.469   1.301  10.825 -0.5755 -0.4910  0.7239
   74SLPC   C11 6531   6.560   1.146  10.730  0.0971  0.0227 -0.5916
   74SLPC  H11A 6532   6.647   1.076  10.732 -0.7192 -1.0278 -0.5690
   74SLPC  H11B 6533   6.573   1.197  10.632 -1.7056  0.5787 -0.5645
   74SLPC     P 6534   6.309   1.135  10.691 -0.3775  0.2375 -0.3925
   74SLPC   O13 6535   6.209   1.130  10.800 -0.5069  0.9412  0.7291
   74SLPC   O14 6536   6.325   1.269  10.635 -0.1150 -0.4087  0.0883
   74SLPC   O12 6537   6.446   1.064  10.726  0.5021  0.2312  0.2171
   74SLPC   O11 6538   6.252   1.056  10.568  0.1427  0.0813  0.1635
   74SLPC    C1 6539   6.333   1.005  10.453  0.6523 -0.6521 -0.3243
   74SLPC    HA 6540   6.443   1.011  10.469  0.8324 -0.9332 -1.3835
   74SLPC    HB 6541   6.310   0.898  10.433  0.1013  0.0869 -4.6717
   74SLPC    C2 6542   6.302   1.087  10.327 -0.6899 -1.0970 -1.0767
   74SLPC    HS 6543   6.254   1.181  10.363  1.3572 -0.3508 -0.0970
   74SLPC   O21 6544   6.224   1.014  10.231 -0.1063  0.0188  0.9058
   74SLPC   C21 6545   6.154   1.080  10.138  0.2429 -0.5594  0.6292
   74SLPC   O22 6546   6.141   1.204  10.130  0.1260 -0.2024  0.2048
   74SLPC   C22 6547   6.067   0.984  10.049 -1.1005 -0.6383  0.8238
   74SLPC   H2R 6548   6.135   0.906  10.009  0.5781  2.0454 -2.0585
   74SLPC   H2S 6549   5.988   0.951  10.119 -0.7902 -2.7023  0.2619
   74SLPC    C3 6550   6.439   1.136  10.266  0.1751 -0.4295  0.5195
   74SLPC    HX 6551   6.500   1.169  10.353  1.3950 -0.1461 -0.4149
   74SLPC    HY 6552   6.417   1.214  10.191 -1.2982  1.2309  2.5576
   74SLPC   O31 6553   6.516   1.031  10.206 -0.3607  0.4293 -0.4688
   74SLPC   C31 6554   6.638   1.082  10.172 -0.6038 -0.0242  0.3233
   74SLPC   O32 6555   6.682   1.189  10.209 -0.1555  0.6432 -0.2560
   74SLPC   C32 6556   6.718   0.985  10.089  0.4236  0.1069  0.0098
   74SLPC   H2X 6557   6.661   0.957   9.998  0.4088 -0.6153  0.2291
   74SLPC   H2Y 6558   6.731   0.899  10.159  0.6601  1.1246  1.2430
   74SLPC   C23 6559   6.028   1.063   9.927 -0.4380 -0.0697 -0.2849
   74SLPC   H3R 6560   6.109   1.126   9.884 -2.8754  2.6318 -1.2461
   74SLPC   H3S 6561   5.951   1.134   9.961 -0.0370  1.5754 -2.5526
   74SLPC   C24 6562   5.957   0.965   9.823 -0.0484 -0.3326 -0.2096
   74SLPC   H4R 6563   5.862   0.926   9.863 -1.2270  2.2112 -0.3057
   74SLPC   H4S 6564   6.027   0.888   9.783 -0.3165  0.2991 -2.0112
   74SLPC   C25 6565   5.912   1.056   9.708 -0.1866 -0.3831  0.9633
   74SLPC   H5R 6566   6.005   1.105   9.671 -0.2051 -0.6480  0.5640
   74SLPC   H5S 6567   5.837   1.136   9.731  0.2921  0.3593  0.0226
   74SLPC   C26 6568   5.857   0.979   9.590  0.4858 -0.5196  0.4833
   74SLPC   H6R 6569   5.771   0.922   9.632 -0.2170 -0.3620 -0.7091
   74SLPC   H6S 6570   5.941   0.914   9.557  0.5292  1.2895 -3.5798
   74SLPC   C27 6571   5.829   1.065   9.465 -0.0154 -0.0155  0.9718
   74SLPC   H7R 6572   5.905   1.147   9.467  0.4537 -0.2894 -1.6936
   74SLPC   H7S 6573   5.727   1.107   9.473 -0.8070 -1.0075 -2.3272
   74SLPC   C28 6574   5.853   0.986   9.330 -0.2461 -0.5027 -0.0980
   74SLPC   H8R 6575   5.769   0.913   9.336  0.4987 -1.3248  0.7671
   74SLPC   H8S 6576   5.947   0.927   9.326  0.7206  1.0598 -2.0242
   74SLPC   C29 6577   5.857   1.068   9.203  0.0588  0.0068  0.3720
   74SLPC   H9R 6578   5.926   1.153   9.201 -0.2672  0.2820 -2.1365
   74SLPC  C210 6579   5.774   1.052   9.101 -0.0721 -0.1487  1.0370
   74SLPC  H10R 6580   5.782   1.115   9.011  1.1547 -0.6201  0.7967
   74SLPC  C211 6581   5.654   0.964   9.102 -0.2607 -0.5895  0.9229
   74SLPC  H11R 6582   5.577   1.020   9.044 -1.0728 -2.7696 -0.2456
   74SLPC  H11S 6583   5.619   0.937   9.204 -0.4889  1.9525  1.5795
   74SLPC  C212 6584   5.674   0.834   9.022  0.0070  0.6503 -0.4744
   74SLPC  H12R 6585   5.690   0.741   9.078  0.5479  0.5733 -0.7470
   74SLPC  C213 6586   5.688   0.821   8.890 -0.8897  0.3523  0.8095
   74SLPC  H13R 6587   5.697   0.725   8.838  0.6365  1.1185 -0.3773
   74SLPC  C214 6588   5.683   0.930   8.792  0.0485 -0.3648 -0.0234
   74SLPC  H14R 6589   5.785   0.976   8.795 -0.2578  0.2911  0.7919
   74SLPC  H14S 6590   5.618   1.014   8.823  0.9223 -0.7474  3.2383
   74SLPC  C215 6591   5.630   0.891   8.651 -0.4486  0.1332 -1.8673
   74SLPC  H15R 6592   5.537   0.831   8.657 -1.9840  2.5059 -0.3331
   74SLPC  H15S 6593   5.707   0.845   8.585 -0.2952 -0.7647 -1.0834
   74SLPC  C216 6594   5.604   1.021   8.575 -0.2458  0.3625 -0.7892
   74SLPC  H16R 6595   5.680   1.096   8.605 -0.2458  0.4745 -1.0662
   74SLPC  H16S 6596   5.513   1.074   8.608 -0.1331 -0.5080  1.0876
   74SLPC  C217 6597   5.601   1.008   8.425 -0.1248  0.2584  0.3482
   74SLPC  H17R 6598   5.517   0.945   8.390  0.7041 -0.8753  0.3432
   74SLPC  H17S 6599   5.692   0.955   8.391 -0.2625  0.6890 -0.7392
   74SLPC  C218 6600   5.601   1.144   8.364 -0.6008 -0.6024  0.3117
   74SLPC  H18R 6601   5.608   1.146   8.253  1.8558 -1.1145  0.4099
   74SLPC  H18S 6602   5.686   1.203   8.405 -1.0636 -1.6175  2.9604
   74SLPC  H18T 6603   5.510   1.203   8.386  0.0735  1.1526 -1.3468
   74SLPC   C33 6604   6.856   1.027  10.053  0.5084 -0.3091  0.1356
   74SLPC   H3X 6605   6.911   1.082  10.132  0.3302 -0.6905  0.5224
   74SLPC   H3Y 6606   6.845   1.107   9.976  0.9074 -0.6827 -0.3169
   74SLPC   C34 6607   6.952   0.917  10.010  0.0068 -0.3300 -0.0010
   74SLPC   H4X 6608   6.985   0.853  10.095  0.2480 -0.6329 -0.3162
   74SLPC   H4Y 6609   7.048   0.959   9.972  0.7298 -2.1438 -0.2930
   74SLPC   C35 6610   6.892   0.832   9.894  0.0383 -0.1313  0.1971
   74SLPC   H5X 6611   6.784   0.815   9.914 -0.1511  1.5442  0.8112
   74SLPC   H5Y 6612   6.944   0.734   9.890  1.1366  0.4128  0.8106
   74SLPC   C36 6613   6.906   0.900   9.755  0.6860  0.1865 -0.7405
   74SLPC   H6X 6614   7.013   0.903   9.725  0.3749  1.2668 -1.8119
   74SLPC   H6Y 6615   6.877   1.007   9.769  2.9033  0.8390 -0.7121
   74SLPC   C37 6616   6.818   0.829   9.653  0.2855 -0.6152 -1.1095
   74SLPC   H7X 6617   6.707   0.834   9.663  0.2343 -2.3138 -0.3673
   74SLPC   H7Y 6618   6.854   0.724   9.646  1.6905 -0.0795 -2.4916
   74SLPC   C38 6619   6.848   0.890   9.514  0.8074 -0.1098 -0.1654
   74SLPC   H8X 6620   6.954   0.925   9.507  0.8660 -0.5520 -1.7746
   74SLPC   H8Y 6621   6.774   0.973   9.507  0.2452 -0.6895 -1.3841
   74SLPC   C39 6622   6.818   0.790   9.407 -0.4240 -0.0417  0.7076
   74SLPC   H9X 6623   6.713   0.753   9.410 -0.5116 -0.7459 -3.8580
   74SLPC   H9Y 6624   6.879   0.697   9.403  0.6104  0.5194  2.3642
   74SLPC  C310 6625   6.840   0.853   9.268  0.1374  0.3028  0.1204
   74SLPC  H10X 6626   6.941   0.900   9.271  0.1012  0.6094 -1.7420
   74SLPC  H10Y 6627   6.773   0.942   9.259 -0.5758 -0.2396  0.0409
   74SLPC  C311 6628   6.812   0.757   9.152  0.6427  0.6376 -0.0091
   74SLPC  H11X 6629   6.791   0.817   9.061  0.4959  4.2115  2.1578
   74SLPC  H11Y 6630   6.726   0.692   9.178  1.0350  0.1196  0.0055
   74SLPC  C312 6631   6.920   0.652   9.123 -0.4478  0.1049  0.1609
   74SLPC  H12X 6632   6.940   0.599   9.218  3.4818  1.2759  0.2029
   74SLPC  H12Y 6633   7.014   0.704   9.093  1.1341 -1.3178  2.3975
   74SLPC  C313 6634   6.865   0.565   9.012 -0.2828  1.0169  0.8693
   74SLPC  H13X 6635   6.864   0.625   8.918 -0.7410  0.0406  0.2363
   74SLPC  H13Y 6636   6.761   0.533   9.034 -0.3657  1.1211  0.6382
   74SLPC  C314 6637   6.945   0.436   8.996 -0.4545  0.5958 -0.5003
   74SLPC  H14X 6638   6.888   0.356   8.945 -1.6487  1.0483  0.0957
   74SLPC  H14Y 6639   6.965   0.386   9.093  0.4167  3.3933  0.8734
   74SLPC  C315 6640   7.087   0.459   8.937 -0.0101  0.2350 -0.6209
   74SLPC  H15X 6641   7.146   0.366   8.954 -0.7563  0.1307  1.6006
   74SLPC  H15Y 6642   7.127   0.549   8.988 -1.5593 -0.0554  1.1946
   74SLPC  C316 6643   7.096   0.474   8.785  0.2582  0.3074  0.1768
   74SLPC  H16X 6644   7.200   0.460   8.748  0.2398  2.4662 -0.8502
   74SLPC  H16Y 6645   7.056   0.573   8.752 -0.5403 -0.0054  0.1825
   74SLPC  C317 6646   7.014   0.360   8.712 -0.5330 -0.1292 -0.6295
   74SLPC  H17X 6647   6.909   0.385   8.739  0.1533  1.3425  0.9185
   74SLPC  H17Y 6648   7.046   0.262   8.754 -0.0505  0.3245  0.0887
   74SLPC  C318 6649   7.032   0.356   8.564 -0.4232 -0.6508  0.0294
   74SLPC  H18X 6650   7.014   0.459   8.526 -2.2198 -0.6911  0.6864
   74SLPC  H18Y 6651   6.969   0.278   8.517 -0.8195 -0.1587 -0.2712
   74SLPC  H18Z 6652   7.135   0.324   8.537 -1.4646 -2.0547 -2.6457
   75SLPC     N 6653   2.576   4.389   6.510  0.2425  0.2397  0.6367
   75SLPC   C13 6654   2.687   4.298   6.534 -0.0282 -0.0319  0.0987
   75SLPC  H13A 6655   2.727   4.255   6.444 -3.4074  1.1282 -2.1598
   75SLPC  H13B 6656   2.758   4.356   6.591 -0.3905 -1.2320  1.8772
   75SLPC  H13C 6657   2.647   4.212   6.586 -3.1560  0.2854 -1.5195
   75SLPC   C14 6658   2.494   4.408   6.626 -0.3276  0.1028 -0.3081
   75SLPC  H14A 6659   2.556   4.457   6.700  0.4265 -1.1426 -0.0888
   75SLPC  H14B 6660   2.413   4.478   6.612 -0.2570 -0.1472 -2.1283
   75SLPC  H14C 6661   2.451   4.321   6.673  0.6028 -0.0155  0.3701
   75SLPC   C15 6662   2.488   4.334   6.402 -0.2949 -0.0243  0.2902
   75SLPC  H15A 6663   2.391   4.381   6.392 -0.1222  0.3970  0.5493
   75SLPC  H15B 6664   2.533   4.353   6.306  2.0974  1.6494  1.6187
   75SLPC  H15C 6665   2.476   4.227   6.411  0.8911 -0.0803  1.5439
   75SLPC   C12 6666   2.631   4.521   6.455 -0.0063 -0.9196 -0.5002
   75SLPC  H12A 6667   2.547   4.586   6.434  0.0647 -0.3286  0.9303
   75SLPC  H12B 6668   2.687   4.506   6.364 -1.3407  0.1314 -1.5319
   75SLPC   C11 6669   2.712   4.611   6.556  0.4063 -0.5639  0.1986
   75SLPC  H11A 6670   2.651   4.632   6.646  1.2023  1.8097  0.2667
   75SLPC  H11B 6671   2.735   4.708   6.505 -2.5444  0.0429 -0.1741
   75SLPC     P 6672   2.928   4.647   6.681 -0.1024  0.0171  0.0785
   75SLPC   O13 6673   2.966   4.754   6.590  0.4151  0.2474 -0.1059
   75SLPC   O14 6674   2.862   4.692   6.809  0.3751 -0.2745  0.1503
   75SLPC   O12 6675   2.833   4.546   6.604 -0.6169 -0.1925  0.0057
   75SLPC   O11 6676   3.054   4.567   6.721  0.4558 -0.1206 -0.3185
   75SLPC    C1 6677   3.064   4.426   6.725 -0.3103 -0.3981  0.3343
   75SLPC    HA 6678   3.019   4.385   6.632 -1.5454  0.3600  0.5795
   75SLPC    HB 6679   3.170   4.394   6.734  0.0260  0.6435  0.1197
   75SLPC    C2 6680   2.990   4.364   6.847 -0.0926 -0.4050  0.7398
   75SLPC    HS 6681   2.882   4.384   6.832  0.2055  1.7394  1.1219
   75SLPC   O21 6682   3.035   4.424   6.970  0.3688 -0.4456  0.2804
   75SLPC   C21 6683   2.947   4.436   7.061  0.0314 -0.6805  0.1984
   75SLPC   O22 6684   2.830   4.395   7.052 -0.2817 -0.0594 -0.3395
   75SLPC   C22 6685   3.001   4.523   7.177 -0.2098  0.4702  0.3982
   75SLPC   H2R 6686   3.101   4.479   7.197 -0.0704  0.4191 -0.3816
   75SLPC   H2S 6687   3.014   4.626   7.138 -0.6126 -0.4426 -2.2878
   75SLPC    C3 6688   3.006   4.214   6.855 -0.0414 -1.0088 -0.0732
   75SLPC    HX 6689   3.110   4.192   6.885  0.0795 -0.5377 -0.1340
   75SLPC    HY 6690   2.995   4.175   6.751  1.6966 -1.5878 -0.0643
   75SLPC   O31 6691   2.904   4.155   6.933 -0.1642 -0.4312 -0.3405
   75SLPC   C31 6692   2.939   4.125   7.062  0.2654  0.7725  0.1322
   75SLPC   O32 6693   3.055   4.128   7.103 -0.3228  0.4782  0.8950
   75SLPC   C32 6694   2.820   4.078   7.137  0.0803 -0.2685  0.3690
   75SLPC   H2X 6695   2.784   3.984   7.092  1.5974  0.1642 -1.9076
   75SLPC   H2Y 6696   2.738   4.152   7.128  0.7314  0.4567  0.2937
   75SLPC   C23 6697   2.915   4.516   7.307  0.3891 -0.1932  0.1929
   75SLPC   H3R 6698   2.830   4.445   7.300 -0.7094  1.0300  0.7943
   75SLPC   H3S 6699   2.864   4.612   7.329 -0.3076 -0.2321 -1.1493
   75SLPC   C24 6700   3.009   4.474   7.422  0.4302 -0.2034 -0.2252
   75SLPC   H4R 6701   3.077   4.561   7.437 -2.3083  2.0070  0.2586
   75SLPC   H4S 6702   3.073   4.387   7.396  0.4259 -0.0975 -0.5993
   75SLPC   C25 6703   2.939   4.453   7.558  0.3337 -0.2749  0.9210
   75SLPC   H5R 6704   2.942   4.342   7.571  1.4171 -0.4211 -0.3051
   75SLPC   H5S 6705   2.834   4.487   7.552 -0.6251 -3.2041 -2.1736
   75SLPC   C26 6706   3.009   4.507   7.681  0.4582  0.4196 -0.7449
   75SLPC   H6R 6707   3.007   4.618   7.680 -2.9710  0.4938  0.4692
   75SLPC   H6S 6708   3.115   4.475   7.678  0.4866  0.3785  0.3828
   75SLPC   C27 6709   2.933   4.461   7.807  0.3116 -0.1891  0.4265
   75SLPC   H7R 6710   2.892   4.359   7.791  2.5349 -0.7959 -2.0460
   75SLPC   H7S 6711   2.849   4.532   7.828  1.4353  0.5857  2.7014
   75SLPC   C28 6712   3.019   4.456   7.933  0.5758 -0.4911 -0.4459
   75SLPC   H8R 6713   3.117   4.408   7.911 -0.8096 -3.7955 -0.0198
   75SLPC   H8S 6714   2.971   4.398   8.016  0.9103 -2.7552 -1.7439
   75SLPC   C29 6715   3.052   4.597   7.986  0.2970 -0.6620  0.7397
   75SLPC   H9R 6716   3.104   4.664   7.917 -0.5769  1.4697  2.0380
   75SLPC  C210 6717   3.002   4.655   8.099  0.8978  0.2286 -0.0530
   75SLPC  H10R 6718   3.030   4.754   8.137 -1.3734  0.1210  2.1960
   75SLPC  C211 6719   2.907   4.585   8.200 -0.1193  0.2022  0.7026
   75SLPC  H11R 6720   2.965   4.501   8.243  0.2740 -0.8826 -1.7857
   75SLPC  H11S 6721   2.822   4.543   8.142  0.9077 -0.7271 -0.1593
   75SLPC  C212 6722   2.861   4.674   8.310 -0.7221 -0.1135  0.8207
   75SLPC  H12R 6723   2.863   4.779   8.280 -1.7085 -0.4787 -0.5819
   75SLPC  C213 6724   2.818   4.643   8.431  0.3446  0.0143  0.1851
   75SLPC  H13R 6725   2.801   4.721   8.507  3.1913 -2.1871  3.3923
   75SLPC  C214 6726   2.811   4.507   8.494 -0.2080  0.4440  0.1045
   75SLPC  H14R 6727   2.824   4.512   8.604 -0.2502 -0.4984  0.1628
   75SLPC  H14S 6728   2.883   4.441   8.442 -2.2140 -0.4298 -1.7091
   75SLPC  C215 6729   2.666   4.457   8.463 -0.3907 -0.0961 -0.5639
   75SLPC  H15R 6730   2.644   4.353   8.497 -0.4440 -0.9111 -2.9317
   75SLPC  H15S 6731   2.653   4.464   8.353 -0.3823  1.7416 -0.4780
   75SLPC  C216 6732   2.562   4.540   8.537  0.8788 -0.2824 -0.9902
   75SLPC  H16R 6733   2.587   4.648   8.529 -4.1077  1.2487  0.3324
   75SLPC  H16S 6734   2.578   4.514   8.644  1.1193 -0.8688 -1.1653
   75SLPC  C217 6735   2.421   4.508   8.488  0.1614  0.1702 -0.4193
   75SLPC  H17R 6736   2.406   4.406   8.529 -0.7954 -1.1077 -3.6572
   75SLPC  H17S 6737   2.414   4.508   8.377  1.5426 -0.7143 -0.5218
   75SLPC  C218 6738   2.313   4.601   8.542 -0.1028 -0.2946  0.4652
   75SLPC  H18R 6739   2.208   4.577   8.513 -1.3871  3.4916  1.4305
   75SLPC  H18S 6740   2.349   4.700   8.507 -2.3894  0.7620  0.9299
   75SLPC  H18T 6741   2.321   4.599   8.653 -3.5117  1.0441  0.8401
   75SLPC   C33 6742   2.861   4.057   7.288 -0.0692 -0.2910  0.3476
   75SLPC   H3X 6743   2.943   3.986   7.312  0.9748  0.4716 -0.8124
   75SLPC   H3Y 6744   2.884   4.154   7.337 -1.4061 -1.9141  4.6439
   75SLPC   C34 6745   2.738   4.003   7.366  0.1918 -0.0969 -0.6127
   75SLPC   H4X 6746   2.683   3.931   7.303  0.1949  0.0177 -0.7477
   75SLPC   H4Y 6747   2.673   4.092   7.382  0.2895  0.1987 -1.7906
   75SLPC   C35 6748   2.766   3.936   7.498 -0.2887  0.8368  0.9355
   75SLPC   H5X 6749   2.860   3.877   7.487 -1.1437 -0.8324  1.9871
   75SLPC   H5Y 6750   2.692   3.859   7.528 -0.0946  0.4949  0.5490
   75SLPC   C36 6751   2.777   4.038   7.609  1.1875 -0.4688  0.2407
   75SLPC   H6X 6752   2.677   4.076   7.639  0.8509 -1.5249  0.5154
   75SLPC   H6Y 6753   2.840   4.125   7.581  1.5231 -0.3942  1.1824
   75SLPC   C37 6754   2.822   3.965   7.734  0.2094 -0.2234  0.6699
   75SLPC   H7X 6755   2.915   3.908   7.712  0.4953 -0.1747  1.7326
   75SLPC   H7Y 6756   2.748   3.888   7.762  0.0597 -0.0346  0.7912
   75SLPC   C38 6757   2.844   4.060   7.854 -0.4146  0.3336 -0.2513
   75SLPC   H8X 6758   2.749   4.117   7.865 -0.2179  0.7857 -0.8388
   75SLPC   H8Y 6759   2.928   4.128   7.829 -0.0865  0.0880  0.1770
   75SLPC   C39 6760   2.884   3.975   7.973  0.7785  0.0010 -0.4795
   75SLPC   H9X 6761   2.985   3.930   7.967  0.8278 -0.0587  0.6358
   75SLPC   H9Y 6762   2.806   3.901   7.999 -0.6288  1.5233 -0.1649
   75SLPC  C310 6763   2.890   4.064   8.108 -0.9751  0.0974 -0.2741
   75SLPC  H10X 6764   2.782   4.086   8.125 -1.1810 -2.7372  3.1406
   75SLPC  H10Y 6765   2.959   4.151   8.096  2.3409 -2.3510 -0.2903
   75SLPC  C311 6766   2.948   3.982   8.224  0.3721  0.1717 -0.0366
   75SLPC  H11X 6767   3.052   3.951   8.203  0.1074 -0.1190 -0.9693
   75SLPC  H11Y 6768   2.895   3.885   8.241  1.4103 -0.2965  0.6610
   75SLPC  C312 6769   2.943   4.045   8.373 -0.0903 -0.2560 -0.3306
   75SLPC  H12X 6770   2.839   4.054   8.409  0.7080 -0.8458  2.3687
   75SLPC  H12Y 6771   2.994   4.143   8.361 -0.3093 -0.0147  0.6041
   75SLPC  C313 6772   3.026   3.950   8.464  0.0729  0.2252 -0.3268
   75SLPC  H13X 6773   3.132   3.975   8.438 -0.0278  2.5951  1.2120
   75SLPC  H13Y 6774   3.008   3.842   8.444  1.4884 -0.7031  2.7586
   75SLPC  C314 6775   3.003   3.976   8.607  0.6707  0.2598  0.0671
   75SLPC  H14X 6776   2.895   3.962   8.631  0.3559 -0.3711 -1.6157
   75SLPC  H14Y 6777   3.024   4.083   8.631  1.9341 -0.4074  2.2446
   75SLPC  C315 6778   3.083   3.895   8.710 -0.0138  0.1123 -0.3464
   75SLPC  H15X 6779   3.191   3.904   8.683  0.7344 -1.5913  1.7900
   75SLPC  H15Y 6780   3.064   3.785   8.702  0.2577  0.0177  0.2480
   75SLPC  C316 6781   3.075   3.947   8.855  0.6009  0.2761  0.1546
   75SLPC  H16X 6782   3.053   4.055   8.845 -1.8297 -0.2937 -1.5036
   75SLPC  H16Y 6783   3.166   3.924   8.915 -0.1628  0.8865  1.5979
   75SLPC  C317 6784   2.968   3.881   8.940 -0.0646  0.4655  1.0146
   75SLPC  H17X 6785   2.873   3.874   8.883  0.1918 -1.6001  0.7698
   75SLPC  H17Y 6786   2.944   3.957   9.018  2.4783  2.3595  0.0577
   75SLPC  C318 6787   2.990   3.733   8.984  0.0502 -0.3514 -0.2601
   75SLPC  H18X 6788   3.029   3.672   8.900  2.3079 -0.2206  0.6288
   75SLPC  H18Y 6789   2.895   3.690   9.021  0.9418 -1.5502  0.7142
   75SLPC  H18Z 6790   3.069   3.722   9.061 -0.5945  0.0947  0.4757
   76SLPC     N 6791   3.632   1.870   6.090 -0.2005 -0.2063  0.8094
   76SLPC   C13 6792   3.646   1.867   6.239  0.0993 -0.6198 -0.8779
   76SLPC  H13A 6793   3.649   1.963   6.288  1.3137 -0.7260 -0.7023
   76SLPC  H13B 6794   3.561   1.810   6.272 -0.4244  1.9860  2.8008
   76SLPC  H13C 6795   3.734   1.815   6.274 -0.7038 -0.2561  1.8588
   76SLPC   C14 6796   3.587   1.735   6.044 -1.0550  0.0597  0.0214
   76SLPC  H14A 6797   3.655   1.668   6.094  1.0090  1.5694 -0.6385
   76SLPC  H14B 6798   3.481   1.723   6.059 -1.1937  1.4124  0.2601
   76SLPC  H14C 6799   3.613   1.715   5.941 -1.1976  0.0977 -0.0228
   76SLPC   C15 6800   3.765   1.908   6.027  0.4868  1.0904 -0.1357
   76SLPC  H15A 6801   3.804   1.994   6.080 -1.5352  1.4655  0.8164
   76SLPC  H15B 6802   3.843   1.834   6.023 -1.2236 -0.7364 -2.1658
   76SLPC  H15C 6803   3.748   1.943   5.926 -1.8735  1.4779  0.3339
   76SLPC   C12 6804   3.518   1.970   6.055 -0.1914 -0.4213  0.4904
   76SLPC  H12A 6805   3.504   1.962   5.948  2.7135  0.0757 -0.0110
   76SLPC  H12B 6806   3.553   2.072   6.062  0.1566 -0.2896 -2.0865
   76SLPC   C11 6807   3.388   1.953   6.133 -0.4958 -0.0032 -0.4159
   76SLPC  H11A 6808   3.320   2.029   6.090  0.0104  0.2947 -0.6997
   76SLPC  H11B 6809   3.398   1.994   6.236 -1.0522 -0.3679 -0.2101
   76SLPC     P 6810   3.211   1.778   6.239  0.3732 -0.4307  0.1597
   76SLPC   O13 6811   3.106   1.885   6.230 -0.3409  0.8250 -0.2519
   76SLPC   O14 6812   3.167   1.644   6.225  1.1795  0.1095  0.1377
   76SLPC   O12 6813   3.331   1.813   6.143 -0.6543 -0.0867 -0.0076
   76SLPC   O11 6814   3.276   1.790   6.379  0.5989 -0.4206 -0.7226
   76SLPC    C1 6815   3.385   1.723   6.425  0.1151  0.3287 -0.9937
   76SLPC    HA 6816   3.433   1.675   6.336 -0.8748  1.3757 -2.1222
   76SLPC    HB 6817   3.453   1.796   6.472 -0.3046  0.4995 -0.6501
   76SLPC    C2 6818   3.345   1.628   6.532 -0.1179 -0.8697 -0.3586
   76SLPC    HS 6819   3.264   1.562   6.494 -0.5142  0.9795 -2.9533
   76SLPC   O21 6820   3.311   1.710   6.651 -0.6899 -0.1520  0.5865
   76SLPC   C21 6821   3.184   1.744   6.655 -0.1210  0.2205  0.3385
   76SLPC   O22 6822   3.099   1.700   6.579  0.3259 -0.2012 -0.3183
   76SLPC   C22 6823   3.165   1.839   6.769 -0.5327  0.1302  0.3924
   76SLPC   H2R 6824   3.250   1.819   6.839  1.0393  1.2168 -1.1009
   76SLPC   H2S 6825   3.174   1.946   6.741  0.7506 -0.4316 -1.5879
   76SLPC    C3 6826   3.465   1.533   6.568  0.0917  0.3016 -0.4033
   76SLPC    HX 6827   3.561   1.584   6.587  1.3384 -2.2989  0.7147
   76SLPC    HY 6828   3.490   1.467   6.482 -1.0445 -0.8268  0.0848
   76SLPC   O31 6829   3.435   1.453   6.691  0.0973 -0.4873  0.1525
   76SLPC   C31 6830   3.383   1.328   6.681  0.0147  0.1206  0.6114
   76SLPC   O32 6831   3.350   1.276   6.576  0.2732  0.3065  0.0274
   76SLPC   C32 6832   3.347   1.267   6.821 -0.4542  0.6373  0.2679
   76SLPC   H2X 6833   3.339   1.158   6.800 -2.5797  1.0562 -1.3876
   76SLPC   H2Y 6834   3.249   1.309   6.852 -1.9913 -0.5124 -2.6709
   76SLPC   C23 6835   3.031   1.816   6.841  0.7804 -0.3913  0.7713
   76SLPC   H3R 6836   2.941   1.837   6.779  0.1374 -0.9318  1.5052
   76SLPC   H3S 6837   3.037   1.885   6.928  1.6498  0.7749 -0.1886
   76SLPC   C24 6838   3.029   1.679   6.899 -0.0293  0.3994  0.0243
   76SLPC   H4R 6839   3.126   1.666   6.952 -0.5233  2.4102  1.5371
   76SLPC   H4S 6840   3.016   1.591   6.833  2.9131  1.2886 -1.9654
   76SLPC   C25 6841   2.920   1.666   7.011 -0.3720 -0.1172 -0.3443
   76SLPC   H5R 6842   2.823   1.668   6.957 -1.6632 -1.3315  1.7799
   76SLPC   H5S 6843   2.918   1.753   7.080 -0.4052 -0.8346  0.5699
   76SLPC   C26 6844   2.939   1.533   7.087  0.1178  0.1716 -0.5754
   76SLPC   H6R 6845   2.958   1.444   7.022 -0.9712 -0.1188 -0.5127
   76SLPC   H6S 6846   2.839   1.519   7.133  0.0962  0.4195 -0.5485
   76SLPC   C27 6847   3.039   1.531   7.206  0.6323 -0.1467  0.4029
   76SLPC   H7R 6848   2.991   1.594   7.285 -1.1812 -2.1997  1.0330
   76SLPC   H7S 6849   3.135   1.578   7.174 -0.5846  1.4696 -1.0393
   76SLPC   C28 6850   3.051   1.389   7.265  0.4071  0.8847 -0.0872
   76SLPC   H8R 6851   2.952   1.365   7.310  0.3301 -0.3902 -0.8881
   76SLPC   H8S 6852   3.063   1.315   7.182 -0.1022  1.9674 -1.1548
   76SLPC   C29 6853   3.162   1.386   7.370  0.3002  0.2529  0.5713
   76SLPC   H9R 6854   3.261   1.356   7.333  0.8405  0.6357  1.6554
   76SLPC  C210 6855   3.149   1.389   7.506 -0.4489 -0.4130 -0.2829
   76SLPC  H10R 6856   3.233   1.412   7.573 -2.0662  2.2019  1.0464
   76SLPC  C211 6857   3.017   1.404   7.583  2.0579 -0.1628  0.1326
   76SLPC  H11R 6858   2.940   1.407   7.503  1.9067 -0.6321  0.2584
   76SLPC  H11S 6859   3.005   1.504   7.630 -1.9533  0.4484 -1.7408
   76SLPC  C212 6860   2.976   1.297   7.682  0.0452 -0.9421 -0.3654
   76SLPC  H12R 6861   3.062   1.244   7.727  0.9458  1.5082  0.9629
   76SLPC  C213 6862   2.855   1.248   7.715  0.4691  0.4359 -0.9887
   76SLPC  H13R 6863   2.834   1.173   7.792 -1.6346  1.8413 -0.1007
   76SLPC  C214 6864   2.726   1.294   7.657 -0.2638  0.4330  0.6816
   76SLPC  H14R 6865   2.725   1.396   7.613 -0.2041 -0.4603 -1.4738
   76SLPC  H14S 6866   2.657   1.294   7.744 -0.5832 -0.0963  0.4291
   76SLPC  C215 6867   2.667   1.199   7.550  0.0580 -0.1626  0.3918
   76SLPC  H15R 6868   2.557   1.214   7.542 -0.1194 -1.4579  0.2501
   76SLPC  H15S 6869   2.684   1.095   7.587  1.4353  0.3113  1.1870
   76SLPC  C216 6870   2.736   1.206   7.411  0.0132  0.3291 -0.7781
   76SLPC  H16R 6871   2.846   1.209   7.426 -0.0718  2.2937 -0.2889
   76SLPC  H16S 6872   2.714   1.305   7.365 -0.2857  0.9886  0.7480
   76SLPC  C217 6873   2.698   1.101   7.310 -0.0370 -0.5657  0.5711
   76SLPC  H17R 6874   2.588   1.090   7.306 -0.1256 -0.3023  1.8757
   76SLPC  H17S 6875   2.757   1.010   7.335  2.0976  0.6699  0.2612
   76SLPC  C218 6876   2.760   1.127   7.173 -0.2631 -0.9640 -0.3522
   76SLPC  H18R 6877   2.722   1.220   7.126 -0.4350  0.5746  2.6114
   76SLPC  H18S 6878   2.732   1.044   7.104 -3.4506 -1.8707  1.7880
   76SLPC  H18T 6879   2.871   1.130   7.166 -0.3277  1.4311 -1.3599
   76SLPC   C33 6880   3.456   1.285   6.929  0.0486  0.1718  0.5995
   76SLPC   H3X 6881   3.471   1.393   6.950 -0.5192  0.4163 -0.1820
   76SLPC   H3Y 6882   3.551   1.262   6.877 -0.1851  1.6980 -0.5902
   76SLPC   C34 6883   3.437   1.198   7.055  0.0926  0.0018  0.2090
   76SLPC   H4X 6884   3.419   1.095   7.017 -1.3124  0.2129  0.2651
   76SLPC   H4Y 6885   3.343   1.232   7.104  0.8426  2.7982 -0.1235
   76SLPC   C35 6886   3.562   1.189   7.148 -0.2138  0.4732  0.2510
   76SLPC   H5X 6887   3.580   1.296   7.170 -1.7638  0.9068 -0.4262
   76SLPC   H5Y 6888   3.647   1.142   7.095 -0.1155  0.2930  0.5607
   76SLPC   C36 6889   3.529   1.116   7.272  0.3607 -0.3566 -0.4545
   76SLPC   H6X 6890   3.549   1.007   7.271 -0.1990 -0.6545  3.6058
   76SLPC   H6Y 6891   3.418   1.113   7.283  0.5688 -1.2615  2.2455
   76SLPC   C37 6892   3.574   1.176   7.404 -0.4243  0.8877  0.1705
   76SLPC   H7X 6893   3.514   1.269   7.405 -2.2316 -0.2306  1.3025
   76SLPC   H7Y 6894   3.683   1.197   7.404 -0.0430 -0.6718  2.3356
   76SLPC   C38 6895   3.550   1.089   7.535  0.1644  0.3217  0.1982
   76SLPC   H8X 6896   3.587   0.984   7.534 -0.9294 -0.0752  0.4019
   76SLPC   H8Y 6897   3.439   1.089   7.537  0.1506  2.4945  1.2572
   76SLPC   C39 6898   3.600   1.154   7.671  0.4043  0.5246 -0.2396
   76SLPC   H9X 6899   3.650   1.250   7.641 -0.2596  0.3845 -1.9147
   76SLPC   H9Y 6900   3.677   1.093   7.724 -1.1247 -0.7516  0.5816
   76SLPC  C310 6901   3.474   1.177   7.760  0.0533 -0.0642  0.3902
   76SLPC  H10X 6902   3.424   1.079   7.777 -0.4897  0.1810  0.1961
   76SLPC  H10Y 6903   3.413   1.255   7.710 -0.4831  0.0983  1.2687
   76SLPC  C311 6904   3.509   1.234   7.898  0.0643  0.4860  0.3855
   76SLPC  H11X 6905   3.415   1.269   7.947 -0.4231 -1.0485  0.6009
   76SLPC  H11Y 6906   3.584   1.315   7.891  2.1838 -1.3971 -0.0460
   76SLPC  C312 6907   3.571   1.133   7.978 -0.0800 -0.0705 -0.0360
   76SLPC  H12X 6908   3.677   1.120   7.946 -0.1723  2.6370 -1.7107
   76SLPC  H12Y 6909   3.527   1.031   7.968  0.5686 -0.6753  2.4272
   76SLPC  C313 6910   3.591   1.164   8.133  0.4361  0.3421  0.4897
   76SLPC  H13X 6911   3.600   1.275   8.139 -0.3788  0.3713  1.2367
   76SLPC  H13Y 6912   3.686   1.113   8.159  0.2704  0.2995  1.0029
   76SLPC  C314 6913   3.469   1.127   8.218  0.7657  0.4602  0.0981
   76SLPC  H14X 6914   3.459   1.017   8.219  0.7769  0.4448 -0.9187
   76SLPC  H14Y 6915   3.380   1.163   8.162  0.6566 -2.6710 -1.9728
   76SLPC  C315 6916   3.453   1.185   8.367 -0.5046 -0.2281  0.2976
   76SLPC  H15X 6917   3.547   1.175   8.425  0.9443  0.7230 -1.7536
   76SLPC  H15Y 6918   3.363   1.136   8.412  0.4799 -2.1549  0.2622
   76SLPC  C316 6919   3.421   1.334   8.360  0.4205 -0.2940 -0.2199
   76SLPC  H16X 6920   3.317   1.339   8.321 -0.2427 -1.4848  1.2957
   76SLPC  H16Y 6921   3.486   1.389   8.289 -0.8443  0.5628 -0.7351
   76SLPC  C317 6922   3.421   1.399   8.501 -0.2184 -0.2749 -0.2785
   76SLPC  H17X 6923   3.370   1.334   8.575 -0.3401 -0.3670 -0.4408
   76SLPC  H17Y 6924   3.365   1.495   8.502  0.0249 -0.1356  0.0238
   76SLPC  C318 6925   3.568   1.430   8.547  0.1732  0.6145  0.3650
   76SLPC  H18X 6926   3.592   1.518   8.484  2.4233 -0.0376  0.2304
   76SLPC  H18Y 6927   3.638   1.344   8.538  1.8865  1.9745  0.2034
   76SLPC  H18Z 6928   3.565   1.460   8.654  3.0981  0.7138  0.5147
   77SLPC     N 6929   1.630   2.212   5.973  0.7798 -0.3103  0.4241
   77SLPC   C13 6930   1.536   2.095   5.970  0.6150  0.6833  0.2875
   77SLPC  H13A 6931   1.460   2.098   5.893 -2.2507 -0.0895  2.8679
   77SLPC  H13B 6932   1.598   2.009   5.955 -0.8354 -0.1799 -1.0900
   77SLPC  H13C 6933   1.478   2.081   6.061 -0.9876 -2.8805 -1.1027
   77SLPC   C14 6934   1.559   2.349   5.994  0.0335  0.3569 -0.0285
   77SLPC  H14A 6935   1.628   2.432   5.987  1.1370 -0.4043  1.3359
   77SLPC  H14B 6936   1.484   2.346   5.917  0.2931 -0.2489 -0.2636
   77SLPC  H14C 6937   1.513   2.354   6.091  1.6814  0.0455  0.7975
   77SLPC   C15 6938   1.698   2.207   5.849  0.3488  0.5788 -0.8475
   77SLPC  H15A 6939   1.746   2.301   5.826 -1.5586  1.1383 -3.0107
   77SLPC  H15B 6940   1.772   2.128   5.847 -0.9440 -0.6828 -0.6573
   77SLPC  H15C 6941   1.633   2.183   5.766 -0.4719  4.0101 -1.3692
   77SLPC   C12 6942   1.720   2.198   6.090 -0.3370 -0.2846  0.7963
   77SLPC  H12A 6943   1.809   2.256   6.069 -0.4239 -0.4600 -0.1032
   77SLPC  H12B 6944   1.754   2.095   6.086 -0.8759 -0.4426  0.2422
   77SLPC   C11 6945   1.672   2.232   6.234  0.2618  0.0204 -0.1613
   77SLPC  H11A 6946   1.639   2.337   6.247 -0.2187 -0.3081  1.6982
   77SLPC  H11B 6947   1.746   2.225   6.318 -1.1495  0.6138  1.1846
   77SLPC     P 6948   1.454   2.174   6.377  0.7102 -0.1059  0.2727
   77SLPC   O13 6949   1.413   2.316   6.376 -0.2369 -0.0842 -0.0986
   77SLPC   O14 6950   1.338   2.080   6.369 -0.1918  0.2365  0.8318
   77SLPC   O12 6951   1.564   2.143   6.265 -0.0905  0.5021  0.4989
   77SLPC   O11 6952   1.527   2.139   6.514 -0.9490 -0.3771 -0.1573
   77SLPC    C1 6953   1.615   2.032   6.518  0.0773  0.4315  0.4658
   77SLPC    HA 6954   1.572   1.945   6.463  2.8621  0.8940 -2.8144
   77SLPC    HB 6955   1.705   2.062   6.459 -0.9711  2.7792 -0.0472
   77SLPC    C2 6956   1.656   1.995   6.665  0.4730  0.5221 -0.1870
   77SLPC    HS 6957   1.713   1.899   6.668  1.8689  1.3461  0.7157
   77SLPC   O21 6958   1.536   1.981   6.741 -0.1713 -0.5057 -0.3722
   77SLPC   C21 6959   1.479   1.867   6.724 -0.0563  0.4269  0.5224
   77SLPC   O22 6960   1.520   1.771   6.656  0.0480 -0.1036  0.3692
   77SLPC   C22 6961   1.349   1.870   6.810  0.0997  0.5308  0.4295
   77SLPC   H2R 6962   1.278   1.792   6.774  0.4787 -0.0543  0.9387
   77SLPC   H2S 6963   1.381   1.844   6.912 -1.2138  1.6031  1.1603
   77SLPC    C3 6964   1.739   2.109   6.715  0.0845 -0.2136 -0.5100
   77SLPC    HX 6965   1.681   2.201   6.692  1.7847  1.5168  1.5928
   77SLPC    HY 6966   1.836   2.106   6.660 -0.1830 -0.1841 -0.9903
   77SLPC   O31 6967   1.759   2.094   6.855  0.0950 -0.6815 -0.1967
   77SLPC   C31 6968   1.673   2.159   6.928 -0.1324 -0.2122 -0.2169
   77SLPC   O32 6969   1.582   2.233   6.891  0.1451  0.0939  0.5433
   77SLPC   C32 6970   1.696   2.118   7.080  0.2224  0.2438 -0.8467
   77SLPC   H2X 6971   1.806   2.125   7.092 -0.0677  1.7554  1.5292
   77SLPC   H2Y 6972   1.647   2.019   7.091  0.6964 -0.2229 -2.6260
   77SLPC   C23 6973   1.282   2.010   6.821 -0.2397 -0.7952  0.3453
   77SLPC   H3R 6974   1.300   2.060   6.724 -1.9036 -2.3283 -0.8096
   77SLPC   H3S 6975   1.332   2.078   6.895 -1.6581 -0.0025  0.6027
   77SLPC   C24 6976   1.139   2.013   6.867  0.5188  0.4151  0.5887
   77SLPC   H4R 6977   1.073   1.971   6.788  1.9898  1.6622 -1.4008
   77SLPC   H4S 6978   1.110   2.119   6.882 -0.4685  0.7380 -2.6364
   77SLPC   C25 6979   1.108   1.925   6.997 -0.9712  0.0018 -0.4715
   77SLPC   H5R 6980   1.124   1.815   6.988  0.9284 -0.3054  3.9223
   77SLPC   H5S 6981   0.998   1.931   7.011 -0.7674  1.5902  0.6948
   77SLPC   C26 6982   1.182   1.974   7.128 -0.9084  0.5338  0.3758
   77SLPC   H6R 6983   1.287   1.979   7.092 -0.2390 -2.9145  1.4309
   77SLPC   H6S 6984   1.173   1.895   7.206  0.8922  1.3384  1.4785
   77SLPC   C27 6985   1.158   2.111   7.175  0.1806  0.2697 -0.1400
   77SLPC   H7R 6986   1.184   2.177   7.090 -0.3543 -1.8555 -2.0643
   77SLPC   H7S 6987   1.217   2.127   7.267 -1.2327  1.9319  0.5536
   77SLPC   C28 6988   1.009   2.146   7.215 -0.7291  0.2730 -0.2313
   77SLPC   H8R 6989   0.971   2.055   7.267 -1.0012  0.9338  0.7560
   77SLPC   H8S 6990   0.942   2.167   7.128  0.2818  0.9677 -0.8709
   77SLPC   C29 6991   1.008   2.262   7.308 -0.8411  0.4336 -0.1256
   77SLPC   H9R 6992   1.028   2.361   7.265  1.7450 -0.1984 -0.5552
   77SLPC  C210 6993   0.999   2.243   7.443  1.3317 -0.0794  0.7730
   77SLPC  H10R 6994   1.001   2.332   7.506  0.8748 -0.1188  0.8469
   77SLPC  C211 6995   0.981   2.122   7.521  0.1402  0.4350 -0.4741
   77SLPC  H11R 6996   0.918   2.046   7.470 -2.8184  1.5160  1.3431
   77SLPC  H11S 6997   0.915   2.146   7.607  0.2692 -0.4238 -0.1168
   77SLPC  C212 6998   1.113   2.057   7.564 -0.1151 -0.5421 -0.3188
   77SLPC  H12R 6999   1.204   2.086   7.509  0.3203  2.9665  1.8974
   77SLPC  C213 7000   1.129   1.982   7.674 -0.2839 -0.0948  0.1711
   77SLPC  H13R 7001   1.227   1.942   7.705  0.0604  0.8819  0.3691
   77SLPC  C214 7002   1.023   1.945   7.775 -0.0598 -0.1690 -0.7221
   77SLPC  H14R 7003   1.011   1.835   7.770  3.6088 -0.7430  0.0743
   77SLPC  H14S 7004   0.928   2.001   7.757 -1.4988 -1.3008  2.4692
   77SLPC  C215 7005   1.078   1.993   7.911  0.0268  0.4041 -1.2210
   77SLPC  H15R 7006   1.073   2.104   7.914 -0.6410  0.3856  2.1431
   77SLPC  H15S 7007   1.180   1.953   7.930 -0.5886 -0.3858  0.6782
   77SLPC  C216 7008   0.993   1.936   8.034 -1.1608  0.2611  0.2825
   77SLPC  H16R 7009   1.005   1.826   8.050 -0.3386  0.5730  1.9875
   77SLPC  H16S 7010   0.887   1.970   8.029 -0.6774  2.3455  2.6259
   77SLPC  C217 7011   1.043   1.992   8.171  0.5604 -0.4410 -0.8764
   77SLPC  H17R 7012   1.034   2.103   8.169  1.5232 -0.3601 -1.0882
   77SLPC  H17S 7013   1.149   1.974   8.200  0.5192 -2.2199 -1.7465
   77SLPC  C218 7014   0.961   1.943   8.287 -0.1825  0.8766  1.0838
   77SLPC  H18R 7015   0.942   1.836   8.265 -0.8858  1.6357 -2.6379
   77SLPC  H18S 7016   0.868   2.004   8.285 -0.0052  1.1658 -0.9418
   77SLPC  H18T 7017   1.011   1.960   8.384  1.2554  3.3881 -0.0075
   77SLPC   C33 7018   1.643   2.230   7.180 -0.6570  0.2995  0.0840
   77SLPC   H3X 7019   1.535   2.258   7.178 -1.1135 -1.2366  1.1597
   77SLPC   H3Y 7020   1.689   2.329   7.158  0.4785 -0.4999 -1.3148
   77SLPC   C34 7021   1.682   2.197   7.329 -0.5588 -0.6174 -0.3062
   77SLPC   H4X 7022   1.792   2.190   7.338 -0.6670 -0.9811  0.8422
   77SLPC   H4Y 7023   1.658   2.089   7.341  0.7192 -1.0316 -1.2182
   77SLPC   C35 7024   1.625   2.296   7.432 -0.4507  0.0609  0.4881
   77SLPC   H5X 7025   1.517   2.296   7.404 -0.3782  0.2443  0.2041
   77SLPC   H5Y 7026   1.659   2.401   7.417 -1.3184  0.5024  1.4810
   77SLPC   C36 7027   1.662   2.248   7.573 -0.2959  0.4111  0.6144
   77SLPC   H6X 7028   1.604   2.314   7.640 -0.9063  0.4274  0.0745
   77SLPC   H6Y 7029   1.772   2.260   7.587 -0.1164  0.6659 -0.8252
   77SLPC   C37 7030   1.634   2.099   7.613  0.3239 -0.0666  0.4402
   77SLPC   H7X 7031   1.707   2.033   7.562  0.9711  0.1792  1.0284
   77SLPC   H7Y 7032   1.536   2.078   7.567  0.6789  1.0057 -0.8845
   77SLPC   C38 7033   1.645   2.064   7.762 -0.1998 -0.3387  0.1797
   77SLPC   H8X 7034   1.600   1.963   7.773 -0.5744 -0.1884  0.0537
   77SLPC   H8Y 7035   1.590   2.142   7.819  0.1520 -0.0783  0.1679
   77SLPC   C39 7036   1.794   2.062   7.822 -0.2284 -0.1127  0.1271
   77SLPC   H9X 7037   1.838   2.163   7.808 -0.3960  0.0020  0.4341
   77SLPC   H9Y 7038   1.855   1.981   7.776 -1.9901 -0.5134 -1.6366
   77SLPC  C310 7039   1.795   2.028   7.969 -0.1497 -0.4000 -0.8386
   77SLPC  H10X 7040   1.743   2.117   8.012 -2.3926 -2.1525  0.2878
   77SLPC  H10Y 7041   1.898   2.030   8.010  0.2431  0.3236 -1.8258
   77SLPC  C311 7042   1.732   1.892   8.014 -0.6325  0.9095  0.0500
   77SLPC  H11X 7043   1.781   1.803   7.967  1.8280  0.5495  2.9966
   77SLPC  H11Y 7044   1.624   1.891   7.989 -0.6457 -0.5217  0.0713
   77SLPC  C312 7045   1.741   1.863   8.166 -0.1191 -0.6003  0.2194
   77SLPC  H12X 7046   1.668   1.791   8.207  0.7703 -1.7923 -0.2309
   77SLPC  H12Y 7047   1.716   1.953   8.227  1.0224 -0.4634  0.5129
   77SLPC  C313 7048   1.892   1.837   8.208 -0.2043  0.5346 -0.6033
   77SLPC  H13X 7049   1.956   1.928   8.204 -0.9094  1.2208  1.8436
   77SLPC  H13Y 7050   1.925   1.759   8.136  1.1736  1.5488 -1.1015
   77SLPC  C314 7051   1.912   1.798   8.354 -0.3126 -0.4706  0.2937
   77SLPC  H14X 7052   2.019   1.773   8.371 -0.3033 -1.3742 -0.9605
   77SLPC  H14Y 7053   1.854   1.705   8.376  1.2682 -1.3545  0.8874
   77SLPC  C315 7054   1.868   1.904   8.456 -0.2863  0.3211 -0.4577
   77SLPC  H15X 7055   1.760   1.922   8.435  0.0494  1.9396 -0.8981
   77SLPC  H15Y 7056   1.918   2.003   8.447 -0.4829  0.3864 -0.8462
   77SLPC  C316 7057   1.881   1.844   8.599  0.3049  0.1181  0.6818
   77SLPC  H16X 7058   1.953   1.899   8.663  1.4892  0.1199 -0.6263
   77SLPC  H16Y 7059   1.930   1.744   8.598  2.4492  1.0983  1.2831
   77SLPC  C317 7060   1.747   1.834   8.682 -0.4476  0.0880  0.7413
   77SLPC  H17X 7061   1.685   1.757   8.631  1.4904 -0.1825 -1.3930
   77SLPC  H17Y 7062   1.692   1.928   8.700  1.2495  0.9305  1.8240
   77SLPC  C318 7063   1.770   1.778   8.821 -0.2857  0.0004  0.5728
   77SLPC  H18X 7064   1.828   1.685   8.805 -2.0731 -1.4054  1.8088
   77SLPC  H18Y 7065   1.676   1.751   8.874  0.1403 -1.6055  0.5640
   77SLPC  H18Z 7066   1.838   1.840   8.884  1.4297 -1.4963  0.2915
   78SLPC     N 7067   3.054   2.442   5.866  0.4195  0.3281  0.3731
   78SLPC   C13 7068   2.917   2.382   5.856 -0.6450  1.4822 -0.7699
   78SLPC  H13A 7069   2.861   2.417   5.941  2.0245  2.9905  0.5259
   78SLPC  H13B 7070   2.874   2.414   5.763 -0.2092  1.2330 -1.0603
   78SLPC  H13C 7071   2.937   2.276   5.857 -0.9281  1.4262  0.5311
   78SLPC   C14 7072   3.047   2.589   5.833  0.1278 -0.0742 -0.0653
   78SLPC  H14A 7073   3.143   2.637   5.831  0.0913 -0.0134 -0.9943
   78SLPC  H14B 7074   3.007   2.617   5.736  1.6659  1.3567 -0.3396
   78SLPC  H14C 7075   2.985   2.645   5.902 -0.1669  0.1607 -0.5099
   78SLPC   C15 7076   3.135   2.383   5.752 -0.0809  0.0565  0.5313
   78SLPC  H15A 7077   3.238   2.417   5.760  1.3131 -3.3824 -0.5818
   78SLPC  H15B 7078   3.143   2.275   5.750 -1.5107 -0.0534 -0.0890
   78SLPC  H15C 7079   3.104   2.415   5.654 -0.5814 -0.4605  0.5140
   78SLPC   C12 7080   3.112   2.422   6.002  0.5339 -0.6245 -0.7969
   78SLPC  H12A 7081   3.213   2.461   6.012 -0.0047  0.3664  1.2714
   78SLPC  H12B 7082   3.117   2.314   6.007 -1.1134 -0.6650  1.9848
   78SLPC   C11 7083   3.030   2.470   6.117 -0.3453  0.2581 -0.4469
   78SLPC  H11A 7084   3.080   2.429   6.208 -0.8489 -0.5427 -0.5214
   78SLPC  H11B 7085   2.938   2.408   6.126  0.0247 -0.4779 -1.5462
   78SLPC     P 7086   3.121   2.701   6.216 -0.1973  0.1597 -0.0196
   78SLPC   O13 7087   3.257   2.646   6.204  0.2673 -0.3661  0.0792
   78SLPC   O14 7088   3.102   2.836   6.163  0.6318  0.3880  0.1463
   78SLPC   O12 7089   3.020   2.615   6.131  0.1913  0.6497  0.3842
   78SLPC   O11 7090   3.077   2.695   6.365  0.7693 -0.4469 -0.7829
   78SLPC    C1 7091   2.943   2.725   6.414  0.1748 -0.2289  0.1764
   78SLPC    HA 7092   2.887   2.801   6.356 -1.4909 -0.7622  0.9983
   78SLPC    HB 7093   2.878   2.635   6.424  0.3794 -0.4582 -0.5199
   78SLPC    C2 7094   2.959   2.791   6.558 -0.2084 -0.0243  0.0774
   78SLPC    HS 7095   2.983   2.899   6.543 -0.3223 -0.3768 -3.3281
   78SLPC   O21 7096   3.056   2.721   6.641  0.5903  0.4892  0.2858
   78SLPC   C21 7097   3.175   2.768   6.640  0.0647 -0.5645  0.4956
   78SLPC   O22 7098   3.215   2.857   6.564 -0.6064  1.1257  0.2426
   78SLPC   C22 7099   3.259   2.692   6.741 -0.3565  0.3117  0.0783
   78SLPC   H2R 7100   3.194   2.620   6.795 -1.3497 -0.5805 -2.2077
   78SLPC   H2S 7101   3.335   2.637   6.681 -0.5306  0.6940 -0.4955
   78SLPC    C3 7102   2.825   2.792   6.642 -0.0544 -0.0546  0.2638
   78SLPC    HX 7103   2.752   2.720   6.600  1.9123 -1.7534 -0.4359
   78SLPC    HY 7104   2.779   2.890   6.619  0.9990  0.6180  0.9421
   78SLPC   O31 7105   2.835   2.755   6.781 -0.3080 -0.2662  0.0748
   78SLPC   C31 7106   2.883   2.856   6.848 -0.0053  0.1880 -0.2508
   78SLPC   O32 7107   2.922   2.965   6.807  0.0234  0.3018  0.7976
   78SLPC   C32 7108   2.873   2.830   7.001  0.0113  0.0020 -0.0888
   78SLPC   H2X 7109   2.933   2.738   7.018  0.6789  0.2283 -1.1390
   78SLPC   H2Y 7110   2.771   2.803   7.036  0.8370 -2.1813  0.8434
   78SLPC   C23 7111   3.331   2.787   6.838 -0.1041 -0.1608 -0.1203
   78SLPC   H3R 7112   3.259   2.849   6.896  0.1522  0.9901 -0.9899
   78SLPC   H3S 7113   3.393   2.851   6.772 -0.1220  0.0845  0.0976
   78SLPC   C24 7114   3.408   2.713   6.931 -0.3824  0.3750  0.2674
   78SLPC   H4R 7115   3.485   2.784   6.968 -0.3776  0.1212  0.7573
   78SLPC   H4S 7116   3.463   2.631   6.880 -2.5737 -0.1281 -1.4311
   78SLPC   C25 7117   3.331   2.646   7.044  0.6195 -0.0514 -0.1504
   78SLPC   H5R 7118   3.259   2.567   7.013  0.0271 -0.1402  1.3863
   78SLPC   H5S 7119   3.282   2.726   7.104  1.5235  0.4509 -0.0619
   78SLPC   C26 7120   3.439   2.573   7.141  0.5777  0.2641  0.0103
   78SLPC   H6R 7121   3.534   2.626   7.120  1.4335 -0.5836  1.5143
   78SLPC   H6S 7122   3.441   2.464   7.119  0.6243  0.2222  0.2217
   78SLPC   C27 7123   3.422   2.588   7.295  0.6774 -0.4617 -0.1937
   78SLPC   H7R 7124   3.315   2.573   7.319  0.3556  1.6009 -0.1438
   78SLPC   H7S 7125   3.439   2.695   7.319 -4.2531  1.0869 -2.3763
   78SLPC   C28 7126   3.507   2.489   7.369  0.2326  0.2272  0.6582
   78SLPC   H8R 7127   3.610   2.490   7.327  0.6238  0.3683  1.5897
   78SLPC   H8S 7128   3.463   2.393   7.337 -1.4329  1.0185  0.4878
   78SLPC   C29 7129   3.516   2.513   7.512  0.1777 -0.4669 -0.6551
   78SLPC   H9R 7130   3.568   2.605   7.543  0.6319  0.3320 -3.5068
   78SLPC  C210 7131   3.459   2.427   7.606  0.0739 -0.2391 -0.2020
   78SLPC  H10R 7132   3.472   2.447   7.713 -3.5867  0.3431  0.2737
   78SLPC  C211 7133   3.374   2.307   7.587  0.0688 -0.1999  0.1149
   78SLPC  H11R 7134   3.363   2.296   7.476  2.1613 -1.6086 -0.0043
   78SLPC  H11S 7135   3.273   2.311   7.632 -0.7305 -0.5845 -1.5450
   78SLPC  C212 7136   3.455   2.181   7.629 -0.1145 -0.2671  0.0264
   78SLPC  H12R 7137   3.501   2.135   7.540 -1.8643  0.7376 -1.4634
   78SLPC  C213 7138   3.461   2.125   7.750  0.1415  0.5663  0.5081
   78SLPC  H13R 7139   3.524   2.035   7.762 -0.6325  0.1283  1.4049
   78SLPC  C214 7140   3.396   2.176   7.875  0.1024  0.0812  0.1132
   78SLPC  H14R 7141   3.304   2.116   7.893 -0.0343 -0.1034 -1.0977
   78SLPC  H14S 7142   3.356   2.278   7.865  0.0141  0.0568  0.2174
   78SLPC  C215 7143   3.496   2.154   7.991 -0.7006 -0.0746  0.4188
   78SLPC  H15R 7144   3.532   2.050   7.985  2.2474  0.9304 -1.2953
   78SLPC  H15S 7145   3.432   2.162   8.081 -0.6601  0.8503  0.3846
   78SLPC  C216 7146   3.610   2.247   8.005 -0.5805 -0.0419  0.1174
   78SLPC  H16R 7147   3.659   2.243   7.905 -0.8064  0.9360 -0.0459
   78SLPC  H16S 7148   3.686   2.197   8.069  0.5511  0.5039 -0.7553
   78SLPC  C217 7149   3.578   2.393   8.036  0.3149 -0.1619 -0.6409
   78SLPC  H17R 7150   3.564   2.399   8.147  1.0116 -0.3107 -0.5447
   78SLPC  H17S 7151   3.483   2.425   7.988  0.5782  2.3296  0.3349
   78SLPC  C218 7152   3.699   2.489   8.014  0.3311  0.2340 -0.0215
   78SLPC  H18R 7153   3.683   2.585   8.069  1.7135 -1.1512  3.0329
   78SLPC  H18S 7154   3.700   2.513   7.906  2.2372 -2.1052 -0.6066
   78SLPC  H18T 7155   3.799   2.445   8.035 -0.5863 -2.6199 -1.1956
   78SLPC   C33 7156   2.914   2.955   7.089 -0.1355 -0.1537 -0.7737
   78SLPC   H3X 7157   2.863   3.048   7.055 -0.9038 -0.2444  0.1082
   78SLPC   H3Y 7158   3.023   2.963   7.073 -0.2376  0.5196 -1.1892
   78SLPC   C34 7159   2.887   2.954   7.242  0.7694 -0.4696 -0.1551
   78SLPC   H4X 7160   2.933   3.034   7.304  0.0623  0.6391 -1.0117
   78SLPC   H4Y 7161   2.917   2.853   7.278  0.7982 -0.7180 -0.8637
   78SLPC   C35 7162   2.737   2.955   7.272  0.8528 -0.7061 -0.7432
   78SLPC   H5X 7163   2.695   2.874   7.210 -0.7812 -0.6443  0.2182
   78SLPC   H5Y 7164   2.703   3.059   7.248  0.1023 -0.6141  0.5940
   78SLPC   C36 7165   2.704   2.916   7.418 -0.8854 -0.9003  0.3666
   78SLPC   H6X 7166   2.741   2.812   7.434  0.2162 -0.8708 -1.6817
   78SLPC   H6Y 7167   2.596   2.909   7.445 -0.6411 -1.0199  1.3752
   78SLPC   C37 7168   2.751   3.020   7.517 -0.2867  0.2136  0.8660
   78SLPC   H7X 7169   2.711   3.120   7.488 -2.1130 -1.0665 -1.3414
   78SLPC   H7Y 7170   2.859   3.044   7.528 -0.2011 -0.5315  1.8550
   78SLPC   C38 7171   2.704   2.982   7.664 -0.0834  0.1312  0.3986
   78SLPC   H8X 7172   2.707   2.871   7.673  0.3713 -0.0570 -1.6594
   78SLPC   H8Y 7173   2.601   3.021   7.682 -0.6779 -0.3162 -1.7697
   78SLPC   C39 7174   2.807   3.031   7.767  0.7773 -0.8441  0.3949
   78SLPC   H9X 7175   2.810   3.141   7.756 -0.5343 -0.6291  1.8792
   78SLPC   H9Y 7176   2.901   2.978   7.741  2.1140  1.9488 -0.8231
   78SLPC  C310 7177   2.771   3.010   7.913  0.0221  0.0017  0.4399
   78SLPC  H10X 7178   2.733   2.906   7.919  1.6449 -0.5340  2.4339
   78SLPC  H10Y 7179   2.697   3.081   7.956 -0.5176 -1.6981  2.4985
   78SLPC  C311 7180   2.902   3.033   7.992 -0.0572  0.4000 -0.1216
   78SLPC  H11X 7181   2.924   3.141   7.987  0.0288  0.3348 -1.6238
   78SLPC  H11Y 7182   2.978   2.970   7.942  0.8169  0.2812  1.3076
   78SLPC  C312 7183   2.885   2.986   8.143 -0.0965  1.3915  0.4291
   78SLPC  H12X 7184   2.803   3.044   8.190 -2.1511 -0.8545 -0.1601
   78SLPC  H12Y 7185   2.976   3.008   8.203  1.1811 -0.0316 -0.9050
   78SLPC  C313 7186   2.854   2.840   8.156  0.0953  0.8704 -0.3396
   78SLPC  H13X 7187   2.934   2.773   8.118 -1.4667  0.4758 -3.1971
   78SLPC  H13Y 7188   2.765   2.799   8.104  0.6028 -3.5996  1.8079
   78SLPC  C314 7189   2.848   2.779   8.301 -0.5735  0.4915  0.8832
   78SLPC  H14X 7190   2.752   2.818   8.341 -0.9092  0.5210  0.0664
   78SLPC  H14Y 7191   2.935   2.802   8.366 -0.8710  1.0249  1.0981
   78SLPC  C315 7192   2.827   2.627   8.293 -0.8504 -0.4455 -0.2786
   78SLPC  H15X 7193   2.921   2.584   8.250  0.0132  1.3105 -0.2219
   78SLPC  H15Y 7194   2.736   2.610   8.231 -1.3998  1.9546 -0.2237
   78SLPC  C316 7195   2.807   2.582   8.438 -0.0258 -1.0840 -0.1684
   78SLPC  H16X 7196   2.717   2.637   8.473  0.5125  1.0736 -1.8910
   78SLPC  H16Y 7197   2.890   2.626   8.498 -2.3032 -0.3581  2.6259
   78SLPC  C317 7198   2.806   2.431   8.461  0.3449 -0.6114  0.0433
   78SLPC  H17X 7199   2.819   2.405   8.568 -2.6378  1.6798  1.0912
   78SLPC  H17Y 7200   2.897   2.396   8.407  0.6521  0.2472 -0.0074
   78SLPC  C318 7201   2.677   2.370   8.394  0.6498  0.4701  0.3418
   78SLPC  H18X 7202   2.578   2.391   8.440 -0.0999 -1.6540 -0.2093
   78SLPC  H18Y 7203   2.688   2.259   8.400 -0.2913  0.2344 -1.6884
   78SLPC  H18Z 7204   2.670   2.392   8.286 -3.4770  0.5300  0.4802
   79SLPC     N 7205   5.729   4.945   6.873 -0.0693  0.2758 -1.0175
   79SLPC   C13 7206   5.864   4.946   6.925  0.1149 -0.2300 -0.6078
   79SLPC  H13A 7207   5.897   4.845   6.905 -1.4844 -1.0978  0.8048
   79SLPC  H13B 7208   5.915   5.020   6.866 -0.8784  0.4732 -0.6054
   79SLPC  H13C 7209   5.865   4.981   7.028  0.9101  2.9569 -1.5777
   79SLPC   C14 7210   5.650   4.856   6.960  0.0695  0.1338  0.1545
   79SLPC  H14A 7211   5.657   4.893   7.061  4.5848  0.1765  0.0274
   79SLPC  H14B 7212   5.548   4.865   6.925 -0.1686  0.6416  0.9411
   79SLPC  H14C 7213   5.671   4.751   6.945  2.3839  0.5191  0.3110
   79SLPC   C15 7214   5.727   4.880   6.740 -0.7914  0.2141  0.2893
   79SLPC  H15A 7215   5.809   4.916   6.680  1.5511 -1.4054  2.3460
   79SLPC  H15B 7216   5.750   4.776   6.758  1.2823 -0.0187 -2.9708
   79SLPC  H15C 7217   5.631   4.882   6.689 -1.2001 -0.5243  1.0052
   79SLPC   C12 7218   5.673   5.087   6.870 -0.5969 -0.0083  0.2558
   79SLPC  H12A 7219   5.687   5.129   6.968 -0.9140  0.1301  0.2427
   79SLPC  H12B 7220   5.568   5.067   6.860 -0.2674 -5.2104  3.7848
   79SLPC   C11 7221   5.731   5.185   6.756 -0.1907 -0.2683 -0.0068
   79SLPC  H11A 7222   5.675   5.280   6.762 -0.7670 -0.5058 -1.2462
   79SLPC  H11B 7223   5.704   5.135   6.660 -1.1670 -0.8540  0.5516
   79SLPC     P 7224   5.960   5.288   6.662 -0.0650  0.4101 -0.2478
   79SLPC   O13 7225   6.051   5.197   6.590  0.5691  0.1360 -0.5731
   79SLPC   O14 7226   5.858   5.365   6.584  0.1032  0.1479 -0.5337
   79SLPC   O12 7227   5.880   5.203   6.771  0.2912  0.5401 -0.1323
   79SLPC   O11 7228   6.041   5.383   6.762 -0.1739 -0.7447  0.0018
   79SLPC    C1 7229   6.138   5.313   6.848  0.0166  1.0156 -0.1352
   79SLPC    HA 7230   6.167   5.211   6.815  0.2964  1.7518 -2.3002
   79SLPC    HB 7231   6.233   5.371   6.850  0.2290  0.6834  2.0015
   79SLPC    C2 7232   6.093   5.282   6.994  0.3680 -0.2139 -0.9953
   79SLPC    HS 7233   6.041   5.184   6.993  0.5687 -0.3361 -0.2179
   79SLPC   O21 7234   6.002   5.387   7.047  0.0095  0.5688  0.2097
   79SLPC   C21 7235   5.921   5.339   7.137 -0.6882  0.1893  0.6604
   79SLPC   O22 7236   5.900   5.222   7.172 -0.0785 -0.0551 -0.6789
   79SLPC   C22 7237   5.852   5.469   7.196 -0.1818 -0.0069  0.3429
   79SLPC   H2R 7238   5.932   5.523   7.252 -1.2685  1.2116  0.7398
   79SLPC   H2S 7239   5.813   5.535   7.116 -2.1314 -1.8834 -0.3354
   79SLPC    C3 7240   6.213   5.267   7.088  0.2672  0.2585  0.5659
   79SLPC    HX 7241   6.258   5.366   7.114  0.9017  0.2631 -0.5043
   79SLPC    HY 7242   6.296   5.215   7.036 -1.4817 -0.8623 -1.2377
   79SLPC   O31 7243   6.186   5.202   7.208 -0.4765  0.5498 -0.0209
   79SLPC   C31 7244   6.153   5.073   7.196 -0.1926  0.4148  0.4188
   79SLPC   O32 7245   6.163   5.008   7.091 -0.4248  0.0719 -0.6732
   79SLPC   C32 7246   6.098   5.027   7.326 -0.2204 -0.6067 -0.2470
   79SLPC   H2X 7247   5.998   4.984   7.305 -0.2855 -0.1683 -0.8690
   79SLPC   H2Y 7248   6.090   5.107   7.402 -2.2872 -1.0266  0.0272
   79SLPC   C23 7249   5.756   5.424   7.306 -0.5612  0.1250  0.0930
   79SLPC   H3R 7250   5.683   5.351   7.265 -1.8986  1.8372 -0.7257
   79SLPC   H3S 7251   5.695   5.513   7.330 -0.4489  0.2385 -0.0371
   79SLPC   C24 7252   5.838   5.380   7.430  0.3821  0.2354  0.5321
   79SLPC   H4R 7253   5.893   5.470   7.463  0.6782  0.2772 -0.0644
   79SLPC   H4S 7254   5.912   5.299   7.410 -1.2164 -1.1271 -0.1865
   79SLPC   C25 7255   5.749   5.335   7.551  0.1698 -0.1389  0.1449
   79SLPC   H5R 7256   5.668   5.265   7.522 -0.8303  0.4053  1.5138
   79SLPC   H5S 7257   5.693   5.421   7.594 -0.0520 -0.0350 -0.3432
   79SLPC   C26 7258   5.835   5.259   7.657  0.1341  0.2354 -0.4388
   79SLPC   H6R 7259   5.935   5.300   7.684  0.5986 -1.8232  1.2402
   79SLPC   H6S 7260   5.857   5.160   7.610 -0.3486  0.1895 -0.5670
   79SLPC   C27 7261   5.748   5.235   7.787 -0.5715 -0.4909 -0.0191
   79SLPC   H7R 7262   5.683   5.147   7.766 -2.3967  1.0645 -1.2795
   79SLPC   H7S 7263   5.685   5.326   7.799 -0.9127 -0.8094  0.6188
   79SLPC   C28 7264   5.827   5.214   7.919 -0.4303 -0.1774 -0.6150
   79SLPC   H8R 7265   5.888   5.303   7.943  0.6079 -1.2886  1.0911
   79SLPC   H8S 7266   5.906   5.137   7.905  1.2221  1.3053  0.1188
   79SLPC   C29 7267   5.737   5.176   8.034  0.1829  0.3465 -0.1219
   79SLPC   H9R 7268   5.651   5.112   8.009  0.4051 -0.9635  2.1841
   79SLPC  C210 7269   5.753   5.215   8.159 -0.2950 -0.4704 -0.4467
   79SLPC  H10R 7270   5.665   5.202   8.225 -1.4521  2.9260 -1.0763
   79SLPC  C211 7271   5.870   5.306   8.203  0.5414 -0.0744  0.4311
   79SLPC  H11R 7272   5.828   5.347   8.298 -4.3493 -1.7130 -0.7532
   79SLPC  H11S 7273   5.879   5.397   8.139  0.3719  0.8491  1.6635
   79SLPC  C212 7274   6.004   5.252   8.224 -0.3225  0.2831 -0.4369
   79SLPC  H12R 7275   6.088   5.312   8.186  3.6531 -4.0963  0.4606
   79SLPC  C213 7276   6.052   5.143   8.288  0.3355  0.0874 -0.6580
   79SLPC  H13R 7277   6.160   5.131   8.305 -0.2286 -1.9054  2.2035
   79SLPC  C214 7278   5.969   5.034   8.343  0.7150 -0.5191  0.5057
   79SLPC  H14R 7279   5.978   4.942   8.282  1.0955 -0.5673  0.6307
   79SLPC  H14S 7280   5.861   5.061   8.343  0.5504 -1.1282  1.4645
   79SLPC  C215 7281   5.995   5.002   8.489 -0.0909  0.1715  0.5818
   79SLPC  H15R 7282   5.967   5.072   8.571  0.8535 -0.6805  1.6682
   79SLPC  H15S 7283   6.105   4.990   8.476 -0.2489  1.2903 -2.5632
   79SLPC  C216 7284   5.943   4.858   8.535 -0.1349  0.1585 -0.4116
   79SLPC  H16R 7285   6.004   4.787   8.475  0.6527  0.1501  0.3732
   79SLPC  H16S 7286   5.834   4.852   8.513 -0.3067  0.6121  0.2730
   79SLPC  C217 7287   5.975   4.816   8.678  0.1137  0.2048 -0.0931
   79SLPC  H17R 7288   5.946   4.898   8.747 -1.0224  0.0078 -0.3321
   79SLPC  H17S 7289   6.083   4.803   8.701 -0.1221 -0.5995  0.6451
   79SLPC  C218 7290   5.894   4.691   8.715 -0.0279 -1.0872  0.1275
   79SLPC  H18R 7291   5.788   4.721   8.725  0.3346  0.2164  0.2465
   79SLPC  H18S 7292   5.916   4.648   8.814 -1.2968 -2.2871 -0.0809
   79SLPC  H18T 7293   5.907   4.618   8.632 -0.8505 -0.5037 -0.5444
   79SLPC   C33 7294   6.196   4.922   7.397 -0.0814  0.2480 -0.7968
   79SLPC   H3X 7295   6.151   4.888   7.493  0.3397 -0.3134 -0.7871
   79SLPC   H3Y 7296   6.290   4.970   7.431  0.2862 -1.4902  0.7870
   79SLPC   C34 7297   6.238   4.796   7.320  0.7613 -0.3043  0.5592
   79SLPC   H4X 7298   6.317   4.824   7.246 -0.2056  1.7428  0.2346
   79SLPC   H4Y 7299   6.149   4.756   7.268  1.0069 -1.8712  1.2870
   79SLPC   C35 7300   6.301   4.695   7.414  0.4815 -0.0392  0.1648
   79SLPC   H5X 7301   6.379   4.736   7.482  2.1178 -1.7500 -0.5780
   79SLPC   H5Y 7302   6.344   4.612   7.354 -2.0152 -0.3763 -1.2788
   79SLPC   C36 7303   6.200   4.613   7.502 -0.6083  0.4131  0.0095
   79SLPC   H6X 7304   6.154   4.527   7.448  0.6306 -0.1286 -0.2096
   79SLPC   H6Y 7305   6.115   4.679   7.530 -1.4787 -0.2706 -0.9339
   79SLPC   C37 7306   6.271   4.549   7.619 -0.1686 -0.5357  0.7768
   79SLPC   H7X 7307   6.187   4.511   7.681 -1.0689 -0.6293 -0.4631
   79SLPC   H7Y 7308   6.310   4.633   7.679 -1.4854 -0.3063  1.3377
   79SLPC   C38 7309   6.376   4.443   7.584  0.3347 -0.6679  0.2966
   79SLPC   H8X 7310   6.462   4.482   7.525  0.8177  0.5715  1.7730
   79SLPC   H8Y 7311   6.331   4.363   7.521 -1.7595  1.2707 -0.7955
   79SLPC   C39 7312   6.431   4.375   7.706 -0.2850  0.6987 -0.3852
   79SLPC   H9X 7313   6.512   4.306   7.674 -3.5345 -2.6056 -2.2222
   79SLPC   H9Y 7314   6.358   4.297   7.734 -0.0800  0.2378 -1.1111
   79SLPC  C310 7315   6.469   4.456   7.828 -0.1148  0.4083  0.0353
   79SLPC  H10X 7316   6.379   4.491   7.882  2.0241  1.1769  3.3401
   79SLPC  H10Y 7317   6.512   4.545   7.779 -0.0180 -0.9546 -2.5350
   79SLPC  C311 7318   6.564   4.399   7.928  0.2792  0.1279  0.3258
   79SLPC  H11X 7319   6.658   4.368   7.878  0.0279 -1.5668  0.8604
   79SLPC  H11Y 7320   6.518   4.311   7.978 -0.4238 -0.7111 -1.6844
   79SLPC  C312 7321   6.602   4.511   8.023  0.0206 -0.7089 -0.4088
   79SLPC  H12X 7322   6.511   4.571   8.042  1.5299  2.0214 -1.2218
   79SLPC  H12Y 7323   6.677   4.577   7.973  0.7113 -2.3948 -1.6797
   79SLPC  C313 7324   6.672   4.459   8.152  0.0835 -0.1046 -0.8962
   79SLPC  H13X 7325   6.610   4.384   8.204  0.5173 -0.2591 -0.6017
   79SLPC  H13Y 7326   6.678   4.546   8.220 -0.3310  0.1275 -1.1472
   79SLPC  C314 7327   6.819   4.403   8.135 -0.4812 -0.3197  0.3079
   79SLPC  H14X 7328   6.868   4.476   8.067 -1.4748  0.1761  0.0901
   79SLPC  H14Y 7329   6.811   4.311   8.072  2.3307  0.1064 -0.8306
   79SLPC  C315 7330   6.907   4.391   8.261 -0.3832  0.4603  0.7489
   79SLPC  H15X 7331   7.007   4.346   8.240 -0.3483  1.5283 -1.7583
   79SLPC  H15Y 7332   6.839   4.331   8.325  0.4850  0.2899  1.5273
   79SLPC  C316 7333   6.923   4.530   8.336  0.0205  0.1427 -1.0076
   79SLPC  H16X 7334   6.824   4.539   8.386  0.9318  2.2120  0.5745
   79SLPC  H16Y 7335   6.941   4.610   8.262 -0.2130 -1.2479 -2.6262
   79SLPC  C317 7336   7.047   4.528   8.433  0.4856  0.0892  0.3873
   79SLPC  H17X 7337   7.139   4.516   8.371  0.6137  1.9678  0.1559
   79SLPC  H17Y 7338   7.034   4.434   8.490  0.8284 -0.1126  0.1419
   79SLPC  C318 7339   7.057   4.658   8.514 -0.2208 -0.2050  0.0927
   79SLPC  H18X 7340   7.046   4.750   8.451 -2.0559  0.7093  1.6661
   79SLPC  H18Y 7341   7.157   4.659   8.563  0.0368  1.9528 -0.3384
   79SLPC  H18Z 7342   6.983   4.674   8.595  1.0433  0.1180  1.2177
   80SLPC     N 7343   0.221   5.096   6.232 -0.9730 -0.0587  0.1047
   80SLPC   C13 7344   0.108   5.112   6.131  0.1367  0.4007 -0.5417
   80SLPC  H13A 7345   0.141   5.086   6.032  1.0168  2.5513 -0.8647
   80SLPC  H13B 7346   0.024   5.051   6.161  0.4618  0.3434  0.2914
   80SLPC  H13C 7347   0.073   5.213   6.124 -2.6502 -0.5078 -0.8863
   80SLPC   C14 7348   0.327   5.186   6.188  0.4759  0.5963 -0.2074
   80SLPC  H14A 7349   0.405   5.179   6.263  0.5852 -0.5533 -0.4080
   80SLPC  H14B 7350   0.359   5.172   6.086  1.9306  1.3444  0.1184
   80SLPC  H14C 7351   0.281   5.284   6.195 -0.3707  0.1772  0.2598
   80SLPC   C15 7352   0.253   4.953   6.209 -1.3551  0.8486  0.1104
   80SLPC  H15A 7353   0.276   4.944   6.104 -0.5712  1.5098  0.2080
   80SLPC  H15B 7354   0.349   4.923   6.248 -1.5924  0.0883  0.1265
   80SLPC  H15C 7355   0.161   4.898   6.221 -0.4590 -1.0263 -1.2045
   80SLPC   C12 7356   0.170   5.116   6.375  0.3225 -0.2914  0.1011
   80SLPC  H12A 7357   0.087   5.053   6.399 -1.3459  1.9539  0.5448
   80SLPC  H12B 7358   0.136   5.219   6.380 -0.0783 -0.4926  1.9588
   80SLPC   C11 7359   0.270   5.108   6.492 -0.7386  0.2814  0.3424
   80SLPC  H11A 7360   0.283   5.000   6.511  0.0174  0.3665  0.3278
   80SLPC  H11B 7361   0.209   5.153   6.573  1.0671 -0.7224  2.3646
   80SLPC     P 7362   0.386   5.337   6.487 -0.0603 -0.3804  0.0582
   80SLPC   O13 7363   0.490   5.397   6.405  0.0174 -0.1089  0.6937
   80SLPC   O14 7364   0.246   5.385   6.477 -0.0185 -0.1616 -0.1607
   80SLPC   O12 7365   0.389   5.184   6.462  0.3640  0.1287 -0.7171
   80SLPC   O11 7366   0.429   5.349   6.636 -0.1195 -0.4467 -0.2043
   80SLPC    C1 7367   0.574   5.323   6.657  0.6911 -0.2830 -0.4901
   80SLPC    HA 7368   0.606   5.233   6.600 -0.5623 -1.0977  0.0483
   80SLPC    HB 7369   0.644   5.404   6.628  2.7026 -1.2686  1.3782
   80SLPC    C2 7370   0.598   5.277   6.803 -0.4316  0.0099  0.3941
   80SLPC    HS 7371   0.562   5.173   6.813 -4.1681  1.1689  0.6024
   80SLPC   O21 7372   0.530   5.375   6.885  0.1616 -0.3747 -0.3244
   80SLPC   C21 7373   0.470   5.329   6.991 -0.0994  0.0382  0.6756
   80SLPC   O22 7374   0.456   5.212   7.017  0.3867  0.4037 -0.4579
   80SLPC   C22 7375   0.402   5.444   7.075 -0.2291  0.3876 -0.1645
   80SLPC   H2R 7376   0.479   5.523   7.079  0.2276  0.0653 -1.7932
   80SLPC   H2S 7377   0.322   5.477   7.004  0.0954 -2.1267 -1.8487
   80SLPC    C3 7378   0.752   5.278   6.830 -0.2775  0.7134 -0.3259
   80SLPC    HX 7379   0.797   5.378   6.842  1.5375 -0.1143  0.1816
   80SLPC    HY 7380   0.802   5.240   6.738 -0.4985 -2.5860  0.7528
   80SLPC   O31 7381   0.786   5.190   6.941 -0.1404  1.3329 -0.5514
   80SLPC   C31 7382   0.746   5.065   6.944  0.4370 -0.3292  0.2772
   80SLPC   O32 7383   0.685   4.998   6.864  0.2049 -0.3404  0.4762
   80SLPC   C32 7384   0.803   5.015   7.077  0.6362 -0.3993  0.6531
   80SLPC   H2X 7385   0.914   5.015   7.067  0.6178  1.8397 -0.1806
   80SLPC   H2Y 7386   0.768   4.911   7.087 -0.1005 -0.4399 -1.6430
   80SLPC   C23 7387   0.344   5.404   7.210 -0.1180 -0.0641  0.0431
   80SLPC   H3R 7388   0.275   5.318   7.195  1.9675 -2.3537  2.5783
   80SLPC   H3S 7389   0.296   5.497   7.247  1.0874  1.4796 -2.0375
   80SLPC   C24 7390   0.455   5.355   7.315 -0.0000 -0.3986  0.3402
   80SLPC   H4R 7391   0.494   5.447   7.364 -0.1606 -0.0566 -0.1564
   80SLPC   H4S 7392   0.539   5.299   7.269  1.4213  0.8534  1.3265
   80SLPC   C25 7393   0.383   5.261   7.423  0.2417 -0.3745 -0.0560
   80SLPC   H5R 7394   0.294   5.312   7.467  2.2911  1.8594  1.8108
   80SLPC   H5S 7395   0.454   5.238   7.505 -0.6053  3.4158  2.0051
   80SLPC   C26 7396   0.335   5.127   7.355  0.1195  0.5588 -0.0803
   80SLPC   H6R 7397   0.416   5.103   7.283 -0.7315 -0.3807 -0.7431
   80SLPC   H6S 7398   0.239   5.123   7.300  0.2798 -0.6778 -0.3062
   80SLPC   C27 7399   0.327   5.018   7.464  0.6204 -0.4517 -0.0805
   80SLPC   H7R 7400   0.242   5.049   7.528  1.0116 -0.3805  0.4096
   80SLPC   H7S 7401   0.414   5.023   7.532  2.0233  0.3572 -1.8386
   80SLPC   C28 7402   0.317   4.883   7.399  0.7462  0.1095 -0.9732
   80SLPC   H8R 7403   0.283   4.907   7.296  2.1901 -1.5755 -1.9046
   80SLPC   H8S 7404   0.243   4.821   7.454  0.5943  1.6665  0.6544
   80SLPC   C29 7405   0.451   4.815   7.386  0.2929  0.5200  0.0699
   80SLPC   H9R 7406   0.515   4.842   7.301 -0.0514  0.9050 -0.0671
   80SLPC  C210 7407   0.495   4.738   7.490 -0.6138  0.6116 -0.6140
   80SLPC  H10R 7408   0.593   4.689   7.482  0.2973  2.5590 -2.3556
   80SLPC  C211 7409   0.419   4.719   7.618  0.5722  0.7622 -0.2144
   80SLPC  H11R 7410   0.338   4.795   7.627 -0.4672 -0.4181  0.7742
   80SLPC  H11S 7411   0.488   4.731   7.705 -3.1651  0.9555  3.0372
   80SLPC  C212 7412   0.366   4.578   7.608  0.0628  0.1943 -0.0169
   80SLPC  H12R 7413   0.372   4.529   7.510 -1.1588 -0.3150  0.1481
   80SLPC  C213 7414   0.321   4.496   7.710 -0.5186  0.2587 -0.5379
   80SLPC  H13R 7415   0.301   4.392   7.678  1.8140 -0.4495  0.1227
   80SLPC  C214 7416   0.309   4.535   7.859  0.5792 -0.2413 -0.8054
   80SLPC  H14R 7417   0.207   4.503   7.892  1.2332 -1.1629  0.4122
   80SLPC  H14S 7418   0.306   4.644   7.877 -2.9579 -0.3535  0.1105
   80SLPC  C215 7419   0.400   4.460   7.960 -0.8984 -0.2894  0.3530
   80SLPC  H15R 7420   0.388   4.350   7.975  2.4590 -1.1200 -1.7820
   80SLPC  H15S 7421   0.390   4.515   8.056  1.6075  0.2494  0.3793
   80SLPC  C216 7422   0.549   4.476   7.923 -0.3370 -0.0946 -0.1119
   80SLPC  H16R 7423   0.549   4.562   7.852 -0.4932  0.4882  0.5878
   80SLPC  H16S 7424   0.579   4.380   7.876 -0.4546 -0.5625  0.7606
   80SLPC  C217 7425   0.648   4.505   8.041 -0.1368 -0.8206  0.3605
   80SLPC  H17R 7426   0.754   4.499   8.007 -0.1394 -1.7064  0.4921
   80SLPC  H17S 7427   0.627   4.422   8.112  2.3886 -1.7134  0.1664
   80SLPC  C218 7428   0.631   4.639   8.123 -0.1163  0.3478  0.3561
   80SLPC  H18R 7429   0.524   4.656   8.146 -0.8815 -0.3628 -2.3441
   80SLPC  H18S 7430   0.659   4.729   8.064  2.8314  0.1950  1.3656
   80SLPC  H18T 7431   0.697   4.628   8.212 -0.4529  0.7209  0.6531
   80SLPC   C33 7432   0.751   5.107   7.193 -0.0164  0.6705  0.0511
   80SLPC   H3X 7433   0.640   5.111   7.188  0.0378  0.5918 -3.0064
   80SLPC   H3Y 7434   0.786   5.212   7.179  2.5861 -0.2262 -0.7431
   80SLPC   C34 7435   0.805   5.065   7.336  0.5080 -0.6906 -0.4587
   80SLPC   H4X 7436   0.915   5.061   7.321  0.2324  0.7622 -3.5549
   80SLPC   H4Y 7437   0.764   4.964   7.356  0.4486 -0.6881 -0.5689
   80SLPC   C35 7438   0.768   5.164   7.457 -0.0482 -0.1385  0.0197
   80SLPC   H5X 7439   0.657   5.161   7.456 -0.0473 -0.5800 -1.0885
   80SLPC   H5Y 7440   0.810   5.266   7.450 -2.6931  0.9410 -1.9099
   80SLPC   C36 7441   0.812   5.098   7.584 -0.1856 -0.0251 -1.0024
   80SLPC   H6X 7442   0.922   5.114   7.590 -0.5380  2.2549  0.5311
   80SLPC   H6Y 7443   0.785   4.991   7.566  1.1182 -0.5114 -0.2443
   80SLPC   C37 7444   0.729   5.144   7.706 -1.0916  0.1973 -0.1139
   80SLPC   H7X 7445   0.633   5.088   7.713 -1.1760  0.0482 -2.0584
   80SLPC   H7Y 7446   0.703   5.252   7.699 -0.1504  0.4245 -0.1645
   80SLPC   C38 7447   0.797   5.118   7.839 -0.1015  0.5379 -0.3552
   80SLPC   H8X 7448   0.906   5.138   7.848 -0.1971  0.8568  0.1360
   80SLPC   H8Y 7449   0.779   5.009   7.851 -1.8187  0.9436  1.0574
   80SLPC   C39 7450   0.715   5.186   7.950  0.5357  0.2151 -1.0527
   80SLPC   H9X 7451   0.609   5.170   7.922  0.2130 -1.2687  0.8275
   80SLPC   H9Y 7452   0.745   5.293   7.950 -2.3259  1.0988 -2.3696
   80SLPC  C310 7453   0.744   5.126   8.091  0.4403 -0.0772 -0.4947
   80SLPC  H10X 7454   0.855   5.126   8.096  0.4372 -2.1759  1.2551
   80SLPC  H10Y 7455   0.719   5.017   8.092  1.9863 -0.4785 -1.5908
   80SLPC  C311 7456   0.657   5.194   8.199 -0.1551  0.4451  0.5077
   80SLPC  H11X 7457   0.669   5.129   8.289 -1.3626  1.1587  1.2265
   80SLPC  H11Y 7458   0.551   5.190   8.166  0.4670 -0.5161 -1.4461
   80SLPC  C312 7459   0.700   5.327   8.247  0.9148  0.7840 -0.3523
   80SLPC  H12X 7460   0.669   5.403   8.172  1.8459  1.2866 -0.2463
   80SLPC  H12Y 7461   0.811   5.330   8.244  0.8959  1.4667 -2.7728
   80SLPC  C313 7462   0.641   5.366   8.387 -0.4303  0.5275  1.1237
   80SLPC  H13X 7463   0.656   5.476   8.398  0.0682  0.7923 -1.4883
   80SLPC  H13Y 7464   0.696   5.307   8.463  1.1033  0.0560 -0.2968
   80SLPC  C314 7465   0.490   5.360   8.405 -0.0108  0.1546 -0.1388
   80SLPC  H14X 7466   0.456   5.268   8.353  0.5616  0.5740 -1.2842
   80SLPC  H14Y 7467   0.434   5.435   8.346 -2.2715 -1.1097  0.3091
   80SLPC  C315 7468   0.454   5.356   8.555  0.3178  0.4501  0.5727
   80SLPC  H15X 7469   0.344   5.375   8.556 -0.2551 -2.3337  2.0741
   80SLPC  H15Y 7470   0.505   5.440   8.607 -0.0762  1.6068 -0.8597
   80SLPC  C316 7471   0.489   5.222   8.628  0.2797 -1.5612  0.1363
   80SLPC  H16X 7472   0.599   5.220   8.643  0.5684  0.2275 -1.4602
   80SLPC  H16Y 7473   0.466   5.137   8.560 -1.2892 -0.2205 -1.0795
   80SLPC  C317 7474   0.400   5.193   8.752  0.1714 -0.3021  0.2334
   80SLPC  H17X 7475   0.293   5.181   8.724  0.7385  0.1939 -2.4608
   80SLPC  H17Y 7476   0.414   5.271   8.830 -0.3307 -0.6075  0.6370
   80SLPC  C318 7477   0.442   5.060   8.824  0.1224  0.7497  0.1690
   80SLPC  H18X 7478   0.548   5.066   8.857 -0.1154 -0.1420  1.1523
   80SLPC  H18Y 7479   0.435   4.975   8.752 -1.2778 -0.1420  1.3001
   80SLPC  H18Z 7480   0.382   5.031   8.913 -0.5154 -0.2683 -0.5536
   81SAPS     N 7481   3.913   2.828  10.734 -0.3511 -0.5601  0.1641
   81SAPS   HN1 7482   3.863   2.916  10.707  0.1828 -0.3597 -0.1877
   81SAPS   HN2 7483   3.996   2.810  10.674 -0.2120 -0.6513  0.3814
   81SAPS   HN3 7484   3.855   2.743  10.719  1.9374 -2.1303 -0.1534
   81SAPS   C12 7485   3.940   2.842  10.884  0.0368  0.0012  0.7449
   81SAPS  H12A 7486   3.852   2.871  10.939 -0.1011  0.2785  0.3830
   81SAPS   C13 7487   3.992   2.706  10.946  0.4814 -0.1207 -0.2268
   81SAPS  O13A 7488   4.006   2.605  10.873  0.2508  0.0957 -0.6124
   81SAPS  O13B 7489   4.037   2.713  11.065  0.4183  0.0314 -0.3467
   81SAPS   C11 7490   4.046   2.954  10.909 -0.4559  0.0753 -0.2518
   81SAPS  H11A 7491   4.133   2.925  10.846  0.5889  2.2599  0.0734
   81SAPS  H11B 7492   4.075   2.950  11.017 -0.1785 -1.6344 -0.3664
   81SAPS     P 7493   4.011   3.216  10.942  0.1168 -0.0477 -0.0643
   81SAPS   O13 7494   3.887   3.295  10.927  0.3798 -0.5365  0.4772
   81SAPS   O14 7495   4.044   3.187  11.081 -0.2606  0.0575  0.2287
   81SAPS   O12 7496   3.994   3.081  10.863 -0.2957  1.2961 -0.3013
   81SAPS   O11 7497   4.131   3.291  10.880 -0.1893 -0.5567 -0.0401
   81SAPS    C1 7498   4.216   3.251  10.766 -0.4546 -0.0412 -0.0059
   81SAPS    HA 7499   4.315   3.302  10.774 -0.7564  0.5176  0.2273
   81SAPS    HB 7500   4.221   3.140  10.765  1.6148  0.0048  0.4256
   81SAPS    C2 7501   4.153   3.297  10.631  0.2592  0.0570  0.0278
   81SAPS    HS 7502   4.069   3.228  10.608  1.4537 -0.5692 -2.9073
   81SAPS   O21 7503   4.255   3.303  10.531  1.0234  0.5463  0.3174
   81SAPS   C21 7504   4.276   3.191  10.465  0.1318 -0.0380 -0.6054
   81SAPS   O22 7505   4.197   3.105  10.441 -0.4839 -0.6277  0.1613
   81SAPS   C22 7506   4.426   3.195  10.411  0.6528 -0.0816  0.2632
   81SAPS   H2R 7507   4.476   3.271  10.474 -1.6711  2.1239 -0.3914
   81SAPS   H2S 7508   4.458   3.092  10.436 -2.0913 -1.3962 -1.2405
   81SAPS    C3 7509   4.094   3.440  10.639 -0.1992  0.7875 -0.0525
   81SAPS    HX 7510   4.185   3.497  10.664  1.5536 -2.1001  0.6268
   81SAPS    HY 7511   4.020   3.441  10.723 -0.5099  0.3275 -0.3155
   81SAPS   O31 7512   4.030   3.482  10.518  0.4707  0.0877  0.6718
   81SAPS   C31 7513   3.915   3.416  10.490 -0.2670  0.0756 -0.1662
   81SAPS   O32 7514   3.862   3.329  10.555 -0.3644 -0.8815 -0.1883
   81SAPS   C32 7515   3.867   3.469  10.357  0.1286 -0.0402  0.5282
   81SAPS   H2X 7516   3.896   3.574  10.336  2.4589 -0.6224  0.6440
   81SAPS   H2Y 7517   3.759   3.495  10.369  1.1526  4.4559  1.7791
   81SAPS   C23 7518   4.432   3.203  10.258  0.5979 -0.0194 -1.0027
   81SAPS   H3R 7519   4.358   3.279  10.225  0.7727  1.2786  1.3685
   81SAPS   H3S 7520   4.409   3.102  10.219  0.3503 -0.6454  0.6657
   81SAPS   C24 7521   4.571   3.236  10.202  0.4246 -0.1497  0.1288
   81SAPS   H4R 7522   4.611   3.325  10.256  1.6122 -0.2854 -0.5027
   81SAPS   H4S 7523   4.556   3.266  10.096 -0.9530  2.3425  0.9293
   81SAPS   C25 7524   4.667   3.122  10.214  0.2406  0.4391 -0.1350
   81SAPS   H5R 7525   4.707   3.087  10.310  2.1338 -0.7085 -1.2651
   81SAPS   C26 7526   4.716   3.057  10.111 -0.0094  0.1230  0.0911
   81SAPS   H6R 7527   4.784   2.972  10.127 -0.0810  0.7105  4.9499
   81SAPS   C27 7528   4.699   3.088   9.961  0.3989 -0.0136  0.0037
   81SAPS   H7R 7529   4.593   3.090   9.928 -0.7639  1.9937  3.3371
   81SAPS   H7S 7530   4.734   3.003   9.899  0.6708  1.1057 -1.4325
   81SAPS   C28 7531   4.771   3.209   9.906 -1.0485  0.5571 -0.2849
   81SAPS   H8R 7532   4.724   3.306   9.930 -0.4019  0.4180  1.7889
   81SAPS   C29 7533   4.884   3.212   9.833  0.5194  0.9273 -0.4169
   81SAPS   H9R 7534   4.916   3.314   9.805 -1.5212  1.0867 -2.3789
   81SAPS  C210 7535   4.968   3.099   9.778 -0.2766 -0.1159  0.0336
   81SAPS  H10R 7536   4.967   3.012   9.846  1.0936 -0.0807  0.1164
   81SAPS  H10S 7537   5.073   3.134   9.783 -0.1987 -0.3278 -0.1240
   81SAPS  C211 7538   4.921   3.034   9.641  0.0793  0.1027  0.9735
   81SAPS  H11R 7539   4.826   2.978   9.650 -0.2736  0.0563 -1.9362
   81SAPS  C212 7540   4.980   3.030   9.515  0.1140 -0.6408 -1.0071
   81SAPS  H12R 7541   4.937   2.961   9.440  1.2597 -0.7292 -1.6191
   81SAPS  C213 7542   5.117   3.091   9.478  0.5527 -0.1106  0.4598
   81SAPS  H13R 7543   5.175   3.017   9.420  0.4428 -1.7545  2.3513
   81SAPS  H13S 7544   5.179   3.107   9.568 -0.2199  1.8172  0.7053
   81SAPS  C214 7545   5.124   3.234   9.420  0.2362 -0.3741 -0.6917
   81SAPS  H14R 7546   5.087   3.313   9.487 -0.0315 -0.3314 -0.8883
   81SAPS  C215 7547   5.182   3.267   9.302 -1.0127  0.3144 -0.0735
   81SAPS  H15R 7548   5.178   3.371   9.267  2.4253  0.2428 -1.0629
   81SAPS  C216 7549   5.247   3.182   9.196  0.0222  0.2323  0.0756
   81SAPS  H16R 7550   5.218   3.220   9.096  1.2507  0.6881 -0.1244
   81SAPS  H16S 7551   5.198   3.082   9.202 -0.1300  0.3019 -0.0031
   81SAPS  C217 7552   5.392   3.161   9.204  0.4462  0.4686 -0.0373
   81SAPS  H17R 7553   5.419   3.112   9.300 -0.7198 -0.6749 -0.2715
   81SAPS  H17S 7554   5.442   3.261   9.197 -0.4829  0.9348 -0.0889
   81SAPS  C218 7555   5.455   3.071   9.097  0.2627  0.3449 -0.4131
   81SAPS  H18R 7556   5.410   2.969   9.101 -2.1710  1.3148 -0.8764
   81SAPS  H18S 7557   5.563   3.063   9.118  0.2389 -1.0042 -0.6958
   81SAPS  C219 7558   5.449   3.116   8.948  0.1154  0.4252 -0.4755
   81SAPS  H19R 7559   5.366   3.190   8.939 -1.1936 -0.6411  1.9886
   81SAPS  H19S 7560   5.430   3.022   8.891  1.0418 -1.7367  2.5069
   81SAPS  C220 7561   5.584   3.157   8.888 -0.0753  0.3301 -0.8846
   81SAPS  H20R 7562   5.652   3.194   8.967  0.4175 -1.7617 -0.2831
   81SAPS  H20S 7563   5.570   3.249   8.827 -4.3060  1.0861  0.9090
   81SAPS  H20T 7564   5.635   3.079   8.828 -0.4409  0.2938 -1.1500
   81SAPS   C33 7565   3.901   3.379  10.242 -0.4143  0.7785 -0.2454
   81SAPS   H3X 7566   3.843   3.406  10.152  0.6391  2.2551 -0.5064
   81SAPS   H3Y 7567   3.874   3.274  10.268  1.2799  0.1201 -0.9808
   81SAPS   C34 7568   4.054   3.393  10.209  0.5917 -0.1420 -0.2062
   81SAPS   H4X 7569   4.111   3.353  10.296 -0.0021 -0.8250 -0.1279
   81SAPS   H4Y 7570   4.079   3.501  10.214  0.3573  0.0565 -2.2944
   81SAPS   C35 7571   4.100   3.337  10.073  0.7088 -0.2982  0.3372
   81SAPS   H5X 7572   4.053   3.237  10.066  3.0625 -1.5581  1.4610
   81SAPS   H5Y 7573   4.210   3.320  10.077  0.5483 -3.1353 -2.8707
   81SAPS   C36 7574   4.066   3.433   9.959 -0.1426 -0.3566 -0.0293
   81SAPS   H6X 7575   4.137   3.518   9.976 -0.0920 -0.8081  2.3493
   81SAPS   H6Y 7576   3.963   3.473   9.968 -0.1829 -0.6054  0.6551
   81SAPS   C37 7577   4.085   3.374   9.819  0.0643  0.3861  0.2548
   81SAPS   H7X 7578   4.034   3.276   9.829 -0.0936  0.6250  2.1792
   81SAPS   H7Y 7579   4.191   3.355   9.792 -0.5723 -0.4386 -1.8715
   81SAPS   C38 7580   4.037   3.454   9.703 -0.3036  0.5279  0.0419
   81SAPS   H8X 7581   4.060   3.562   9.714 -1.0927  0.8202 -1.0083
   81SAPS   H8Y 7582   3.927   3.469   9.699 -0.2025  1.0207 -1.1042
   81SAPS   C39 7583   4.103   3.402   9.575  0.3804  0.0280  0.0249
   81SAPS   H9X 7584   4.090   3.292   9.580 -1.4258  0.0141 -2.7406
   81SAPS   H9Y 7585   4.212   3.423   9.567  0.1531  0.9678 -0.9057
   81SAPS  C310 7586   4.044   3.464   9.448  0.4648 -0.1884 -0.0150
   81SAPS  H10X 7587   4.045   3.573   9.472  0.3845 -0.3161  0.5670
   81SAPS  H10Y 7588   3.944   3.423   9.424  1.1949 -1.7866 -0.4188
   81SAPS  C311 7589   4.137   3.441   9.336  1.1435  0.5595 -0.2260
   81SAPS  H11X 7590   4.150   3.331   9.324 -1.5934  0.4146 -3.2152
   81SAPS  H11Y 7591   4.232   3.494   9.359  0.1088  2.3929  0.0108
   81SAPS  C312 7592   4.080   3.464   9.194 -0.3216  0.6089 -0.7839
   81SAPS  H12X 7593   4.065   3.572   9.175 -0.1139  0.5440 -1.3644
   81SAPS  H12Y 7594   3.979   3.418   9.182 -0.8304  1.3259  0.6024
   81SAPS  C313 7595   4.178   3.414   9.091 -0.1717 -0.5754  0.0242
   81SAPS  H13X 7596   4.185   3.304   9.109  2.4852 -0.3820  0.5483
   81SAPS  H13Y 7597   4.284   3.446   9.100  0.4161 -2.1775 -0.6940
   81SAPS  C314 7598   4.141   3.419   8.936  0.6280  0.2654 -0.9508
   81SAPS  H14X 7599   4.215   3.365   8.873  1.0443  1.3996 -1.4694
   81SAPS  H14Y 7600   4.160   3.521   8.895 -0.8485  1.1998  0.5517
   81SAPS  C315 7601   3.998   3.370   8.901 -0.0583  0.5587  0.4401
   81SAPS  H15X 7602   3.926   3.454   8.887  1.0668  1.4918  0.1346
   81SAPS  H15Y 7603   3.982   3.299   8.985  2.8732 -0.3177  0.3484
   81SAPS  C316 7604   3.980   3.279   8.764 -0.3901  0.9417 -0.0187
   81SAPS  H16X 7605   4.075   3.223   8.753 -0.8153 -0.0202  0.9804
   81SAPS  H16Y 7606   3.977   3.350   8.679 -1.6881  0.3310 -0.5003
   81SAPS  C317 7607   3.862   3.187   8.772  1.1660 -0.8909  0.3387
   81SAPS  H17X 7608   3.776   3.257   8.778  2.2602  0.4449  1.0638
   81SAPS  H17Y 7609   3.859   3.127   8.865 -0.1681 -1.8178 -0.2784
   81SAPS  C318 7610   3.845   3.094   8.649  0.6632  0.0617 -0.2686
   81SAPS  H18X 7611   3.748   3.039   8.650 -0.0115  1.1922 -1.3184
   81SAPS  H18Y 7612   3.923   3.015   8.658 -1.0744 -1.6641  0.5795
   81SAPS  H18Z 7613   3.861   3.156   8.559 -0.3691 -0.2194 -0.6697
   82SAPS     N 7614   1.347   6.236  10.862  0.5749  0.1043  0.4323
   82SAPS   HN1 7615   1.428   6.285  10.819 -0.2089 -0.8113 -2.2297
   82SAPS   HN2 7616   1.361   6.132  10.860  0.9532  0.1665 -1.3908
   82SAPS   HN3 7617   1.258   6.263  10.817 -0.7795  1.3431  3.5123
   82SAPS   C12 7618   1.337   6.293  10.997 -0.1070  0.5988  0.1347
   82SAPS  H12A 7619   1.303   6.395  10.994 -0.4989  0.5687  2.1781
   82SAPS   C13 7620   1.251   6.216  11.107 -0.4556 -0.5428  0.9587
   82SAPS  O13A 7621   1.183   6.109  11.085 -0.1165  0.1428  0.8204
   82SAPS  O13B 7622   1.249   6.266  11.219 -0.0842  0.0377  0.8197
   82SAPS   C11 7623   1.490   6.306  11.034 -0.3062  0.0193  0.2691
   82SAPS  H11A 7624   1.548   6.214  11.016 -1.3696 -1.3172  3.1339
   82SAPS  H11B 7625   1.483   6.320  11.144 -0.8609  1.0398  0.1205
   82SAPS     P 7626   1.658   6.418  10.859 -0.2487  0.1478  0.4397
   82SAPS   O13 7627   1.681   6.550  10.798  0.4941  0.4565  0.4788
   82SAPS   O14 7628   1.773   6.336  10.900  0.0907 -0.1081 -0.1891
   82SAPS   O12 7629   1.557   6.420  10.978 -0.4669 -0.3234 -0.2632
   82SAPS   O11 7630   1.564   6.337  10.755  0.0520  0.4323 -0.2845
   82SAPS    C1 7631   1.613   6.227  10.682 -0.4091 -0.1937 -0.2138
   82SAPS    HA 7632   1.669   6.152  10.742  0.2422 -0.1222 -0.7177
   82SAPS    HB 7633   1.529   6.166  10.641  1.7243 -1.1565 -3.5441
   82SAPS    C2 7634   1.685   6.265  10.550 -0.8485  0.4656  0.2907
   82SAPS    HS 7635   1.756   6.344  10.585 -0.0985 -0.7250  1.5428
   82SAPS   O21 7636   1.581   6.305  10.463 -0.0434  0.1208  0.2109
   82SAPS   C21 7637   1.622   6.389  10.365  0.4469  0.7245 -0.0818
   82SAPS   O22 7638   1.734   6.442  10.375  0.3813 -0.2548  0.1289
   82SAPS   C22 7639   1.506   6.420  10.264  0.2039 -0.2624 -0.2366
   82SAPS   H2R 7640   1.486   6.330  10.201 -2.6485  0.2335 -0.1784
   82SAPS   H2S 7641   1.404   6.433  10.308  1.0063  0.0248  1.6302
   82SAPS    C3 7642   1.758   6.146  10.498 -0.4537  0.5826  0.3841
   82SAPS    HX 7643   1.689   6.060  10.481  2.6990 -1.7271 -2.0139
   82SAPS    HY 7644   1.817   6.114  10.586  0.6297  1.6556  0.0708
   82SAPS   O31 7645   1.840   6.169  10.388  0.6048  0.1581  0.7944
   82SAPS   C31 7646   1.954   6.245  10.405  1.0354 -0.0395  1.1154
   82SAPS   O32 7647   2.001   6.275  10.513  0.6430 -0.3753  0.1535
   82SAPS   C32 7648   2.011   6.283  10.266  0.2526  0.4704  0.8799
   82SAPS   H2X 7649   2.102   6.226  10.236  1.0721  2.3101 -0.3449
   82SAPS   H2Y 7650   2.044   6.389  10.257  0.4517  0.6484  2.9943
   82SAPS   C23 7651   1.536   6.546  10.168  0.6459  0.1858 -0.1385
   82SAPS   H3R 7652   1.644   6.540  10.145  0.7237 -0.2089  0.3221
   82SAPS   H3S 7653   1.520   6.629  10.241  1.3234 -2.2762  3.0522
   82SAPS   C24 7654   1.466   6.559  10.029 -0.3784 -0.4438  0.4504
   82SAPS   H4R 7655   1.479   6.470   9.965  3.2034  0.9498 -1.0264
   82SAPS   H4S 7656   1.531   6.639   9.986  0.0281  0.0921  1.9847
   82SAPS   C25 7657   1.322   6.592  10.047 -0.4917 -0.1262  0.8639
   82SAPS   H5R 7658   1.280   6.597  10.148 -3.0008  0.9934 -0.1592
   82SAPS   C26 7659   1.237   6.607   9.942  0.0782 -0.3940  0.5732
   82SAPS   H6R 7660   1.132   6.634   9.960 -0.7893 -1.9151 -1.7551
   82SAPS   C27 7661   1.282   6.603   9.795  0.6231  0.0202  0.5206
   82SAPS   H7R 7662   1.372   6.538   9.785 -0.0388 -0.6998 -1.0526
   82SAPS   H7S 7663   1.320   6.704   9.767  1.6256 -1.0500 -2.4081
   82SAPS   C28 7664   1.171   6.553   9.702  0.0792  0.2569  0.7620
   82SAPS   H8R 7665   1.088   6.493   9.742  2.7255 -4.0174  0.4549
   82SAPS   C29 7666   1.161   6.580   9.573  0.4165  0.3122 -0.1680
   82SAPS   H9R 7667   1.073   6.547   9.516  0.1806  0.1262  0.3037
   82SAPS  C210 7668   1.247   6.665   9.493 -0.9108  0.3995  0.7655
   82SAPS  H10R 7669   1.266   6.601   9.405  0.9328  1.2135  0.5153
   82SAPS  H10S 7670   1.349   6.685   9.534 -0.3987  1.9388 -1.0914
   82SAPS  C211 7671   1.184   6.787   9.450 -0.1047 -0.0574  0.3930
   82SAPS  H11R 7672   1.160   6.862   9.526 -1.1531  0.2616 -0.2144
   82SAPS  C212 7673   1.150   6.816   9.323  0.1582 -0.2610  0.1324
   82SAPS  H12R 7674   1.116   6.918   9.300  0.3026 -0.4951 -1.2281
   82SAPS  C213 7675   1.172   6.730   9.199  0.7688  0.2940  0.7792
   82SAPS  H13R 7676   1.092   6.653   9.196  0.3541  0.7488 -0.4911
   82SAPS  H13S 7677   1.266   6.673   9.211  0.3669 -0.2145  1.6226
   82SAPS  C214 7678   1.175   6.808   9.067  0.5298 -0.1843  0.7790
   82SAPS  H14R 7679   1.194   6.915   9.082 -0.1805 -0.1839  1.7471
   82SAPS  C215 7680   1.173   6.757   8.944 -0.0501 -0.1928  0.1049
   82SAPS  H15R 7681   1.184   6.821   8.855 -1.8054 -0.6454 -0.4768
   82SAPS  C216 7682   1.145   6.612   8.905  0.4496 -0.1638  0.8729
   82SAPS  H16R 7683   1.141   6.549   8.996 -1.7840 -0.0309  0.9121
   82SAPS  H16S 7684   1.239   6.578   8.856 -0.5355 -0.6300 -0.7957
   82SAPS  C217 7685   1.021   6.584   8.812 -0.1640  0.3118 -0.0245
   82SAPS  H17R 7686   0.938   6.602   8.884 -0.4176  2.2733 -0.7466
   82SAPS  H17S 7687   1.031   6.476   8.787  2.6073 -0.0827  2.2011
   82SAPS  C218 7688   0.996   6.658   8.679 -0.4357 -0.1005  0.0766
   82SAPS  H18R 7689   1.084   6.656   8.611 -0.3339  0.2443  0.1974
   82SAPS  H18S 7690   0.949   6.758   8.690 -0.1685  0.1033 -0.5666
   82SAPS  C219 7691   0.884   6.581   8.601  0.0953 -0.4485 -0.1111
   82SAPS  H19R 7692   0.796   6.584   8.669 -0.5339 -0.9591 -0.8765
   82SAPS  H19S 7693   0.916   6.476   8.585  2.7289  0.2725 -0.0238
   82SAPS  C220 7694   0.842   6.643   8.463 -0.3733 -0.1757  0.0136
   82SAPS  H20R 7695   0.757   6.588   8.416 -0.9448  1.2451 -0.6844
   82SAPS  H20S 7696   0.936   6.631   8.405  1.4365  0.5809  2.5970
   82SAPS  H20T 7697   0.824   6.753   8.468  2.0965  0.2627  0.6828
   82SAPS   C33 7698   1.910   6.277  10.149 -0.1194 -0.6147 -0.6510
   82SAPS   H3X 7699   1.824   6.345  10.166  1.0417  1.2131 -1.7389
   82SAPS   H3Y 7700   1.874   6.173  10.133  2.5918 -1.5049 -1.4629
   82SAPS   C34 7701   1.982   6.310  10.018 -0.3857 -0.5327  0.2343
   82SAPS   H4X 7702   2.069   6.242  10.002 -0.0027 -0.2615  1.0926
   82SAPS   H4Y 7703   2.017   6.416  10.020 -0.6733 -0.4467  2.1397
   82SAPS   C35 7704   1.911   6.291   9.883 -0.1541  0.0379  0.3931
   82SAPS   H5X 7705   1.853   6.198   9.894 -0.6041  0.0527 -1.5260
   82SAPS   H5Y 7706   1.988   6.283   9.803 -0.3705  0.8683  0.0930
   82SAPS   C36 7707   1.800   6.391   9.856  0.3395 -0.3330 -0.2721
   82SAPS   H6X 7708   1.846   6.492   9.863 -0.9036  0.3042 -0.8615
   82SAPS   H6Y 7709   1.713   6.395   9.925  0.7903  3.2460  0.2878
   82SAPS   C37 7710   1.753   6.387   9.710  0.6626 -0.9644  0.1094
   82SAPS   H7X 7711   1.684   6.301   9.696  0.4020 -0.8740  0.8073
   82SAPS   H7Y 7712   1.838   6.376   9.639 -1.7597 -0.5088 -3.1183
   82SAPS   C38 7713   1.670   6.523   9.678 -0.6852 -0.2628 -0.0035
   82SAPS   H8X 7714   1.745   6.601   9.703  1.4310 -2.0961 -0.2374
   82SAPS   H8Y 7715   1.598   6.533   9.762  1.3785 -0.6783  1.9002
   82SAPS   C39 7716   1.616   6.516   9.538  0.4919  0.0483  0.0630
   82SAPS   H9X 7717   1.536   6.590   9.521  1.2240  0.8552  0.0533
   82SAPS   H9Y 7718   1.565   6.419   9.520 -0.4474  0.2267  1.5582
   82SAPS  C310 7719   1.726   6.545   9.427 -0.2371 -0.1022  0.3251
   82SAPS  H10X 7720   1.776   6.449   9.403  1.0551 -0.0512  2.5632
   82SAPS  H10Y 7721   1.795   6.624   9.463 -1.5595  0.2243  2.3351
   82SAPS  C311 7722   1.675   6.595   9.287  0.1655 -0.4245 -0.7383
   82SAPS  H11X 7723   1.767   6.591   9.224  2.5710 -1.3488  2.5409
   82SAPS  H11Y 7724   1.633   6.698   9.292  1.0996 -0.0870  1.4948
   82SAPS  C312 7725   1.565   6.506   9.227 -0.3706  0.6940  0.7953
   82SAPS  H12X 7726   1.476   6.490   9.291 -0.7814  0.0902  0.0959
   82SAPS  H12Y 7727   1.612   6.407   9.209 -1.1219  0.2460  1.2538
   82SAPS  C313 7728   1.522   6.563   9.091  0.2525 -0.2472 -0.5182
   82SAPS  H13X 7729   1.492   6.669   9.093  1.9154  0.3056 -1.9055
   82SAPS  H13Y 7730   1.433   6.503   9.064  0.4087 -1.4307  1.3756
   82SAPS  C314 7731   1.623   6.561   8.973  0.2349 -0.5815 -0.0447
   82SAPS  H14X 7732   1.667   6.461   8.990 -0.3976 -0.7489  0.6695
   82SAPS  H14Y 7733   1.695   6.645   8.978  1.3408 -1.3218 -2.2932
   82SAPS  C315 7734   1.546   6.547   8.841 -0.2076  0.7671  0.3933
   82SAPS  H15X 7735   1.456   6.483   8.860  1.2574 -1.5868 -0.1713
   82SAPS  H15Y 7736   1.606   6.498   8.762  0.0957  1.1306  0.3995
   82SAPS  C316 7737   1.484   6.684   8.790  0.0238  0.4700 -0.1164
   82SAPS  H16X 7738   1.577   6.745   8.782 -0.8241  1.5804 -2.4782
   82SAPS  H16Y 7739   1.423   6.735   8.867  0.9138  2.3459 -0.5983
   82SAPS  C317 7740   1.419   6.692   8.649 -0.1586 -0.5145  0.4167
   82SAPS  H17X 7741   1.319   6.646   8.664  0.7429 -2.3986  1.0048
   82SAPS  H17Y 7742   1.484   6.645   8.572 -2.1789  2.4948 -3.4954
   82SAPS  C318 7743   1.402   6.837   8.598 -0.2904 -0.5847 -0.2521
   82SAPS  H18X 7744   1.502   6.886   8.608 -0.0842 -0.6799 -1.5716
   82SAPS  H18Y 7745   1.323   6.889   8.656 -0.6554  0.6582 -1.7947
   82SAPS  H18Z 7746   1.378   6.848   8.490 -1.9943  0.5115  0.2078
   83SAPS     N 7747   5.097   4.706  11.217 -0.3751 -0.2640 -0.9197
   83SAPS   HN1 7748   5.120   4.802  11.249 -0.0180 -0.9983  1.1383
   83SAPS   HN2 7749   5.145   4.699  11.125 -0.9685  1.1091 -1.3687
   83SAPS   HN3 7750   4.994   4.710  11.201 -1.0396 -0.5015  2.5406
   83SAPS   C12 7751   5.143   4.602  11.313  0.0766 -1.1582 -0.1197
   83SAPS  H12A 7752   5.244   4.620  11.347  0.1174  1.4006 -1.3069
   83SAPS   C13 7753   5.052   4.592  11.437 -0.3134  0.1835  0.0372
   83SAPS  O13A 7754   4.943   4.650  11.446  0.3559 -0.0911  0.4256
   83SAPS  O13B 7755   5.097   4.521  11.530  0.3053 -0.1707  0.4985
   83SAPS   C11 7756   5.131   4.469  11.239  0.2951  0.6027 -0.1839
   83SAPS  H11A 7757   5.025   4.455  11.208  0.8027 -0.5765 -1.4473
   83SAPS  H11B 7758   5.171   4.393  11.310  1.3591 -0.0883 -1.4980
   83SAPS     P 7759   5.369   4.423  11.118  0.0600 -0.2891  0.1268
   83SAPS   O13 7760   5.442   4.518  11.031 -0.0298 -0.0573  0.0743
   83SAPS   O14 7761   5.422   4.413  11.255  0.3010 -0.4857  0.3479
   83SAPS   O12 7762   5.209   4.455  11.116 -0.1819  0.6345 -0.1835
   83SAPS   O11 7763   5.369   4.288  11.038 -0.3395  0.0856  0.0019
   83SAPS    C1 7764   5.269   4.189  11.032 -0.0492 -0.2641  0.7917
   83SAPS    HA 7765   5.318   4.092  11.055  1.3560  0.6924  2.0762
   83SAPS    HB 7766   5.191   4.203  11.110 -0.0418 -1.3608  1.0177
   83SAPS    C2 7767   5.211   4.177  10.894 -0.0313 -0.6984 -0.2636
   83SAPS    HS 7768   5.158   4.080  10.883 -0.7702 -0.1285 -2.2047
   83SAPS   O21 7769   5.313   4.169  10.793 -0.3066 -0.2733 -0.1403
   83SAPS   C21 7770   5.362   4.048  10.773  0.1399 -0.4878  0.4156
   83SAPS   O22 7771   5.343   3.946  10.836 -0.2670  0.0739 -0.0440
   83SAPS   C22 7772   5.448   4.052  10.649 -1.6527 -0.6696 -0.3352
   83SAPS   H2R 7773   5.389   4.074  10.557 -2.5236  0.1940  0.4060
   83SAPS   H2S 7774   5.531   4.123  10.668 -0.6070 -2.0888  0.6531
   83SAPS    C3 7775   5.116   4.297  10.864 -1.1166 -0.3079 -0.6853
   83SAPS    HX 7776   5.175   4.392  10.867  0.9735 -1.5459 -0.6918
   83SAPS    HY 7777   5.036   4.311  10.940 -0.9576  0.8174 -0.7070
   83SAPS   O31 7778   5.068   4.292  10.728  0.9822 -0.6176  0.2864
   83SAPS   C31 7779   4.977   4.204  10.696  0.8128 -0.0648 -0.0049
   83SAPS   O32 7780   4.920   4.132  10.776 -0.4550 -0.1489  0.0859
   83SAPS   C32 7781   4.938   4.219  10.549  0.0403  0.3561  0.1817
   83SAPS   H2X 7782   4.869   4.134  10.529 -0.2687  0.9110 -1.2102
   83SAPS   H2Y 7783   5.028   4.199  10.487  0.4591  0.7542  0.6528
   83SAPS   C23 7784   5.514   3.911  10.625 -0.5282 -0.6354  0.1250
   83SAPS   H3R 7785   5.433   3.838  10.601  2.1728 -3.1686 -2.0138
   83SAPS   H3S 7786   5.568   3.873  10.714 -2.4476 -1.3869  1.0214
   83SAPS   C24 7787   5.625   3.902  10.520  0.2749  0.2283 -0.3527
   83SAPS   H4R 7788   5.662   3.798  10.517 -1.1416 -0.3858  1.7991
   83SAPS   H4S 7789   5.720   3.953  10.548  1.0059 -0.4956 -1.4110
   83SAPS   C25 7790   5.581   3.965  10.385  0.6380 -0.1592 -0.3141
   83SAPS   H5R 7791   5.551   4.071  10.390  2.8212  0.4537  0.8740
   83SAPS   C26 7792   5.579   3.911  10.258  0.2000 -0.0925 -0.0289
   83SAPS   H6R 7793   5.531   3.973  10.180 -0.7287 -2.9642 -1.9134
   83SAPS   C27 7794   5.610   3.766  10.219  0.0012 -0.5764 -0.4042
   83SAPS   H7R 7795   5.694   3.718  10.273 -1.1238 -0.2719  1.7358
   83SAPS   H7S 7796   5.619   3.761  10.108 -1.3359 -1.0726 -0.5096
   83SAPS   C28 7797   5.494   3.680  10.269  0.4824 -0.5470 -0.8016
   83SAPS   H8R 7798   5.434   3.719  10.353  1.1505  1.6677 -1.2728
   83SAPS   C29 7799   5.454   3.554  10.225  0.2573  0.0638  0.6587
   83SAPS   H9R 7800   5.370   3.506  10.278 -2.4589  2.2711 -1.2730
   83SAPS  C210 7801   5.513   3.477  10.106  0.5097 -1.0568  0.1336
   83SAPS  H10R 7802   5.610   3.523  10.077  0.2245  0.3669  1.3384
   83SAPS  H10S 7803   5.449   3.492  10.016 -0.7081  2.8172  1.4613
   83SAPS  C211 7804   5.509   3.327  10.128 -0.3035  0.1048  0.0887
   83SAPS  H11R 7805   5.429   3.279  10.187 -1.6743  1.1742 -0.8426
   83SAPS  C212 7806   5.606   3.255  10.077 -0.1904  0.4904  0.2055
   83SAPS  H12R 7807   5.613   3.148  10.100 -1.0507  0.2560 -0.5743
   83SAPS  C213 7808   5.724   3.301   9.990 -0.2231 -0.6816 -0.1037
   83SAPS  H13R 7809   5.725   3.410   9.968 -3.0126 -0.8292 -1.4302
   83SAPS  H13S 7810   5.719   3.253   9.890  1.6407 -1.9010  0.3345
   83SAPS  C214 7811   5.847   3.268  10.063 -0.1749  0.1117  0.1076
   83SAPS  H14R 7812   5.868   3.333  10.150 -0.1405 -1.2642  1.1513
   83SAPS  C215 7813   5.932   3.172  10.028  0.6809  0.2509 -0.0726
   83SAPS  H15R 7814   6.018   3.160  10.096  0.7266  0.4738 -0.0885
   83SAPS  C216 7815   5.922   3.076   9.909 -0.0226 -0.6513 -0.9095
   83SAPS  H16R 7816   5.812   3.060   9.907 -0.0981 -0.3237  0.1490
   83SAPS  H16S 7817   5.961   2.976   9.934 -2.6323 -1.1727  1.5552
   83SAPS  C217 7818   5.981   3.130   9.781 -0.2747  0.4626 -0.0427
   83SAPS  H17R 7819   5.928   3.221   9.744 -1.2553 -0.9260 -2.2791
   83SAPS  H17S 7820   5.969   3.057   9.698  0.1964  0.7803 -0.3990
   83SAPS  C218 7821   6.136   3.152   9.787  0.0123  0.4451  0.5702
   83SAPS  H18R 7822   6.185   3.070   9.843  0.0860  0.2393  0.2035
   83SAPS  H18S 7823   6.164   3.243   9.846  0.3912  0.0179  1.0583
   83SAPS  C219 7824   6.203   3.158   9.653  0.9730 -0.2397  0.1582
   83SAPS  H19R 7825   6.193   3.059   9.602 -0.8013 -0.2462  0.4327
   83SAPS  H19S 7826   6.312   3.179   9.658  0.8284  0.4943  0.2734
   83SAPS  C220 7827   6.144   3.270   9.568  0.2418 -0.1606  0.4046
   83SAPS  H20R 7828   6.168   3.236   9.465 -0.9805  1.7088 -0.5532
   83SAPS  H20S 7829   6.187   3.369   9.594 -0.3961 -0.2876  2.0422
   83SAPS  H20T 7830   6.033   3.269   9.577  0.1427  0.7286 -0.5546
   83SAPS   C33 7831   4.875   4.365  10.533  0.0965  0.1477  1.1008
   83SAPS   H3X 7832   4.927   4.450  10.583  1.7150 -0.9938  1.4325
   83SAPS   H3Y 7833   4.784   4.349  10.596 -0.3227 -0.9148  0.2626
   83SAPS   C34 7834   4.838   4.402  10.391 -0.2595 -0.3791  0.0041
   83SAPS   H4X 7835   4.935   4.421  10.340 -0.4882 -3.3595 -1.7442
   83SAPS   H4Y 7836   4.772   4.491  10.382  0.8146  0.3936 -0.5930
   83SAPS   C35 7837   4.778   4.289  10.302 -0.3313 -0.8412  0.1422
   83SAPS   H5X 7838   4.678   4.267  10.345 -0.8967  1.2245  0.0240
   83SAPS   H5Y 7839   4.844   4.201  10.307  0.7698  0.0026  1.0864
   83SAPS   C36 7840   4.782   4.331  10.154 -0.3294 -0.4998 -0.4543
   83SAPS   H6X 7841   4.890   4.345  10.133 -0.3383 -1.2902 -1.0869
   83SAPS   H6Y 7842   4.734   4.431  10.154 -0.5535 -0.5479  2.0694
   83SAPS   C37 7843   4.719   4.240  10.053  0.1547 -0.8581  0.1121
   83SAPS   H7X 7844   4.608   4.252  10.058  0.2724  0.7575 -0.4445
   83SAPS   H7Y 7845   4.742   4.134  10.074  2.8395 -0.8717 -2.3293
   83SAPS   C38 7846   4.755   4.266   9.905  0.0520 -0.2707  0.1180
   83SAPS   H8X 7847   4.858   4.232   9.882 -0.3533 -2.6762  1.5614
   83SAPS   H8Y 7848   4.745   4.377   9.897  0.6317 -0.1642  0.8596
   83SAPS   C39 7849   4.666   4.202   9.799 -0.0259  0.1437 -0.0560
   83SAPS   H9X 7850   4.560   4.229   9.820 -0.1300  1.3082 -1.8640
   83SAPS   H9Y 7851   4.672   4.094   9.824 -1.7398  0.4341  1.8771
   83SAPS  C310 7852   4.719   4.243   9.656 -0.0697  0.2180  0.0603
   83SAPS  H10X 7853   4.829   4.233   9.662 -0.2101 -0.9929  0.8922
   83SAPS  H10Y 7854   4.702   4.353   9.647  1.0967  0.5856  1.9432
   83SAPS  C311 7855   4.669   4.165   9.540  0.0908 -0.7489  0.6641
   83SAPS  H11X 7856   4.559   4.165   9.523  0.3475  0.2525 -1.2327
   83SAPS  H11Y 7857   4.693   4.056   9.542 -1.2191 -1.0927 -0.5199
   83SAPS  C312 7858   4.737   4.215   9.410  0.3205 -0.3260 -0.6061
   83SAPS  H12X 7859   4.843   4.189   9.430 -0.5551 -4.0519  0.0070
   83SAPS  H12Y 7860   4.708   4.322   9.409  0.1616 -0.3726 -1.8017
   83SAPS  C313 7861   4.684   4.146   9.280 -0.4204 -0.5211 -0.7398
   83SAPS  H13X 7862   4.575   4.125   9.288 -0.8372  1.9070  1.5368
   83SAPS  H13Y 7863   4.734   4.047   9.275 -1.3347 -1.1109  1.0323
   83SAPS  C314 7864   4.749   4.202   9.150 -0.1612  0.0332  0.1905
   83SAPS  H14X 7865   4.856   4.213   9.174 -0.4858  0.1290  1.6670
   83SAPS  H14Y 7866   4.702   4.301   9.131  1.7486  0.5862 -2.1326
   83SAPS  C315 7867   4.725   4.128   9.022  0.6260 -0.9485 -0.2711
   83SAPS  H15X 7868   4.617   4.103   9.026  0.2190  0.6997  0.1404
   83SAPS  H15Y 7869   4.782   4.033   9.021 -0.7678 -1.8249  0.8508
   83SAPS  C316 7870   4.763   4.206   8.891 -0.1951 -0.7811  0.1037
   83SAPS  H16X 7871   4.872   4.185   8.885 -0.7055 -4.0016  0.1004
   83SAPS  H16Y 7872   4.755   4.316   8.905  1.7056 -0.7806  1.6744
   83SAPS  C317 7873   4.686   4.167   8.766 -0.4325 -0.0142 -0.0395
   83SAPS  H17X 7874   4.577   4.186   8.766 -0.3449  0.7114  1.6487
   83SAPS  H17Y 7875   4.682   4.056   8.762  0.7261 -0.2542  2.8806
   83SAPS  C318 7876   4.742   4.237   8.640  0.1337  0.8402 -0.1039
   83SAPS  H18X 7877   4.852   4.241   8.631  0.0655  1.3182 -0.8230
   83SAPS  H18Y 7878   4.715   4.345   8.636  1.2082  1.0820 -2.4205
   83SAPS  H18Z 7879   4.691   4.184   8.556 -3.2320  1.8981  1.0887
   84SAPS     N 7880   5.575   5.327  11.107 -0.1203  0.4320 -0.0024
   84SAPS   HN1 7881   5.655   5.332  11.173 -0.5597  1.1164  0.4947
   84SAPS   HN2 7882   5.614   5.305  11.013 -2.1587 -0.0163 -0.8070
   84SAPS   HN3 7883   5.530   5.421  11.109  1.2355  1.1448  3.5716
   84SAPS   C12 7884   5.488   5.219  11.160 -0.3524 -0.3875  0.1746
   84SAPS  H12A 7885   5.539   5.124  11.160  2.6925  1.1507  0.8570
   84SAPS   C13 7886   5.444   5.235  11.306  0.0476  0.0669 -0.6049
   84SAPS  O13A 7887   5.485   5.332  11.368 -0.5925  0.3137 -0.5183
   84SAPS  O13B 7888   5.386   5.139  11.356  0.1258 -0.0499 -0.2413
   84SAPS   C11 7889   5.354   5.216  11.076  0.0080 -0.2402  0.2496
   84SAPS  H11A 7890   5.321   5.322  11.084  3.0655  0.9707 -1.6268
   84SAPS  H11B 7891   5.274   5.154  11.122  1.0974 -1.8673  0.0372
   84SAPS     P 7892   5.259   5.151  10.844  0.1340  0.4282 -0.5803
   84SAPS   O13 7893   5.260   5.006  10.826 -0.0778  0.2522  0.2517
   84SAPS   O14 7894   5.136   5.206  10.902  0.1808  0.1431 -0.0731
   84SAPS   O12 7895   5.376   5.192  10.938 -0.3646  0.1489  0.1512
   84SAPS   O11 7896   5.299   5.227  10.716  0.0615 -0.6194  0.7183
   84SAPS    C1 7897   5.378   5.347  10.716  0.1693  0.0387 -0.2396
   84SAPS    HA 7898   5.452   5.359  10.798 -1.5017 -1.0026  1.5291
   84SAPS    HB 7899   5.438   5.341  10.623 -2.2275  0.5988 -1.9420
   84SAPS    C2 7900   5.293   5.469  10.704 -0.2914 -0.6022  0.5555
   84SAPS    HS 7901   5.227   5.470  10.793 -1.9348  1.5419 -0.5834
   84SAPS   O21 7902   5.222   5.479  10.579 -0.5500  0.1020 -0.4096
   84SAPS   C21 7903   5.103   5.540  10.586 -0.8818 -0.3519  0.7607
   84SAPS   O22 7904   5.038   5.559  10.689  0.2225 -0.1106  0.1219
   84SAPS   C22 7905   5.077   5.601  10.449 -0.2802  0.1900  0.0200
   84SAPS   H2R 7906   5.176   5.622  10.403  0.0766 -0.8122  0.3056
   84SAPS   H2S 7907   5.023   5.520  10.396  0.6550 -0.0278 -0.6193
   84SAPS    C3 7908   5.391   5.590  10.703  0.8891  0.0987  0.2796
   84SAPS    HX 7909   5.452   5.579  10.611 -1.2698 -0.1758 -1.1874
   84SAPS    HY 7910   5.461   5.581  10.790 -0.7464 -0.8710  1.5600
   84SAPS   O31 7911   5.313   5.714  10.704  0.0387 -0.3267  0.4595
   84SAPS   C31 7912   5.392   5.824  10.724  0.1314 -0.6260  0.3085
   84SAPS   O32 7913   5.508   5.815  10.765  0.2503 -0.0489  0.3425
   84SAPS   C32 7914   5.309   5.942  10.705 -0.0665  0.0732  0.2216
   84SAPS   H2X 7915   5.312   6.007  10.795  0.1280  0.5923 -0.1506
   84SAPS   H2Y 7916   5.202   5.924  10.684 -0.0342 -0.5217  0.5443
   84SAPS   C23 7917   5.000   5.733  10.458  0.1030 -0.0961  0.2125
   84SAPS   H3R 7918   5.059   5.802  10.522  1.9689  0.3179 -1.8284
   84SAPS   H3S 7919   4.901   5.722  10.508 -0.3592  0.0363 -0.6466
   84SAPS   C24 7920   4.987   5.810  10.331 -0.0431 -0.3447  0.3566
   84SAPS   H4R 7921   5.090   5.814  10.290 -0.9212 -1.3503 -2.0988
   84SAPS   H4S 7922   4.959   5.914  10.358  2.7043  0.7751 -0.7305
   84SAPS   C25 7923   4.897   5.738  10.229  0.4698 -0.2696  0.1443
   84SAPS   H5R 7924   4.804   5.714  10.282  0.8657 -0.2611  0.8580
   84SAPS   C26 7925   4.916   5.697  10.101  0.2732  0.0202 -0.0143
   84SAPS   H6R 7926   4.827   5.661  10.048 -1.9932  1.0010  2.8483
   84SAPS   C27 7927   5.039   5.724  10.024  0.3075 -0.1202  0.8408
   84SAPS   H7R 7928   5.099   5.808  10.064  0.5801  1.1685 -2.0123
   84SAPS   H7S 7929   5.010   5.750   9.920 -0.8591  1.0990  1.4408
   84SAPS   C28 7930   5.116   5.593  10.031 -0.5953 -1.0206  0.0468
   84SAPS   H8R 7931   5.132   5.552  10.132  1.9697 -1.3327 -0.4318
   84SAPS   C29 7932   5.176   5.521   9.931 -0.1437  0.5866  0.1154
   84SAPS   H9R 7933   5.222   5.423   9.949  0.3420  0.6286 -0.8426
   84SAPS  C210 7934   5.174   5.561   9.785  0.4645 -0.3152 -0.1970
   84SAPS  H10R 7935   5.144   5.667   9.767 -0.5264 -0.4228  0.7318
   84SAPS  H10S 7936   5.099   5.504   9.726 -0.8946  2.1152 -0.9904
   84SAPS  C211 7937   5.298   5.537   9.713 -0.2975 -0.6234 -0.4085
   84SAPS  H11R 7938   5.391   5.541   9.771 -0.6881  0.6611  0.1583
   84SAPS  C212 7939   5.314   5.522   9.578 -0.7599 -0.8255  0.4933
   84SAPS  H12R 7940   5.414   5.507   9.537 -0.8514  1.2194 -0.5744
   84SAPS  C213 7941   5.205   5.533   9.474 -0.3133  0.9169  0.2895
   84SAPS  H13R 7942   5.144   5.626   9.478 -3.2366 -0.8921  0.6636
   84SAPS  H13S 7943   5.126   5.456   9.490 -0.4401  1.5276  3.2196
   84SAPS  C214 7944   5.259   5.532   9.336 -0.8485  0.3059 -0.0177
   84SAPS  H14R 7945   5.351   5.590   9.320 -0.7735  0.7128  1.7583
   84SAPS  C215 7946   5.190   5.502   9.222  0.3832 -0.1266  0.4083
   84SAPS  H15R 7947   5.246   5.528   9.130  1.6998  1.2006  1.5202
   84SAPS  C216 7948   5.049   5.458   9.216  0.3961  0.3862 -0.3683
   84SAPS  H16R 7949   5.001   5.468   9.116  0.5637 -3.8559 -1.0884
   84SAPS  H16S 7950   4.983   5.499   9.295  0.0465 -0.0288 -0.4350
   84SAPS  C217 7951   5.032   5.303   9.241 -0.6868  0.1337  0.2374
   84SAPS  H17R 7952   4.926   5.279   9.264 -0.0264 -1.2177  2.1279
   84SAPS  H17S 7953   5.074   5.295   9.344 -1.3980  0.5724  0.5686
   84SAPS  C218 7954   5.089   5.218   9.125  0.3556 -0.5008  0.2170
   84SAPS  H18R 7955   5.199   5.227   9.119  0.3537  1.9745  2.2057
   84SAPS  H18S 7956   5.045   5.255   9.030 -0.6528 -0.7972  0.5472
   84SAPS  C219 7957   5.047   5.067   9.155 -0.2665  0.1075 -0.2466
   84SAPS  H19R 7958   4.938   5.056   9.134 -0.1397 -0.7865 -0.4650
   84SAPS  H19S 7959   5.063   5.063   9.265  4.0640  3.3262 -0.4684
   84SAPS  C220 7960   5.123   4.972   9.067 -0.3854  0.1071 -0.2398
   84SAPS  H20R 7961   5.095   4.972   8.960  0.4230  1.5239 -0.4608
   84SAPS  H20S 7962   5.113   4.867   9.104  2.5193 -1.0779 -2.4112
   84SAPS  H20T 7963   5.231   4.997   9.062 -0.3209  0.3268  1.5774
   84SAPS   C33 7964   5.366   6.027  10.587  0.7550 -0.7127  1.1413
   84SAPS   H3X 7965   5.470   6.065  10.601  1.8277 -1.3289 -3.4319
   84SAPS   H3Y 7966   5.298   6.115  10.586  0.6986 -0.6868 -1.5313
   84SAPS   C34 7967   5.353   5.957  10.446  0.0809 -0.1818  0.1690
   84SAPS   H4X 7968   5.250   5.916  10.456 -1.0895  2.7793  1.2946
   84SAPS   H4Y 7969   5.428   5.874  10.450 -0.2178 -0.4128  1.2841
   84SAPS   C35 7970   5.368   6.049  10.328  0.9834 -0.9190  0.6755
   84SAPS   H5X 7971   5.452   6.121  10.338  1.7477 -1.8409  1.0933
   84SAPS   H5Y 7972   5.270   6.101  10.323  2.4371  1.9070 -1.5111
   84SAPS   C36 7973   5.387   5.975  10.199 -0.2335 -0.6024  0.6423
   84SAPS   H6X 7974   5.317   5.889  10.197  0.9986 -1.6310 -0.5599
   84SAPS   H6Y 7975   5.493   5.940  10.200  0.4375  1.1719 -1.0908
   84SAPS   C37 7976   5.367   6.057  10.071  0.0232  0.8524  0.2974
   84SAPS   H7X 7977   5.457   6.115  10.042  1.8803 -2.3996 -0.9422
   84SAPS   H7Y 7978   5.286   6.130  10.095  1.3181  1.9879  1.3355
   84SAPS   C38 7979   5.327   5.977   9.947  0.2013  0.0683  0.2365
   84SAPS   H8X 7980   5.297   6.061   9.881 -0.5351  1.6421  2.4558
   84SAPS   H8Y 7981   5.242   5.907   9.964  0.4988  0.1100  2.0514
   84SAPS   C39 7982   5.448   5.900   9.910  0.0650 -0.1150  0.5187
   84SAPS   H9X 7983   5.453   5.816   9.983 -1.2077 -0.7774 -0.1347
   84SAPS   H9Y 7984   5.538   5.960   9.936 -1.1906  1.2850  1.8198
   84SAPS  C310 7985   5.449   5.835   9.771  0.4703 -0.3109 -0.3447
   84SAPS  H10X 7986   5.346   5.796   9.755  0.2239 -0.1918  0.8797
   84SAPS  H10Y 7987   5.514   5.745   9.778 -2.8715 -2.8474  0.4734
   84SAPS  C311 7988   5.489   5.934   9.660 -0.1544  0.1731  0.4057
   84SAPS  H11X 7989   5.593   5.970   9.679  0.6996 -0.6169 -2.3509
   84SAPS  H11Y 7990   5.423   6.023   9.664 -0.3674  0.0442 -0.1417
   84SAPS  C312 7991   5.500   5.872   9.520 -0.3281  0.0376 -0.5779
   84SAPS  H12X 7992   5.403   5.841   9.474  0.6617 -3.4673 -0.6034
   84SAPS  H12Y 7993   5.550   5.774   9.534  1.6039  1.1313  0.6097
   84SAPS  C313 7994   5.587   5.944   9.410  0.1995 -0.7486 -0.1301
   84SAPS  H13X 7995   5.693   5.946   9.444  0.3219  0.9657 -0.5547
   84SAPS  H13Y 7996   5.541   6.045   9.419  1.3442 -0.3615  2.4101
   84SAPS  C314 7997   5.565   5.880   9.276  0.0539  0.3476 -0.1345
   84SAPS  H14X 7998   5.589   5.773   9.289  1.9868  0.7598  0.0388
   84SAPS  H14Y 7999   5.641   5.921   9.206  0.3854  2.7128  1.4550
   84SAPS  C315 8000   5.431   5.904   9.205 -0.2767 -0.1692 -0.2314
   84SAPS  H15X 8001   5.425   6.012   9.177 -1.0821 -0.2027 -0.2333
   84SAPS  H15Y 8002   5.342   5.892   9.271  2.0032 -0.6184  3.0364
   84SAPS  C316 8003   5.414   5.809   9.083 -0.3205  0.2926 -0.3705
   84SAPS  H16X 8004   5.370   5.712   9.114  1.4324 -0.3935  0.0237
   84SAPS  H16Y 8005   5.516   5.792   9.042  0.6978  1.2553  1.6500
   84SAPS  C317 8006   5.321   5.864   8.969  0.6560 -0.2248 -0.2956
   84SAPS  H17X 8007   5.376   5.945   8.917  2.1618 -0.5392  0.7152
   84SAPS  H17Y 8008   5.234   5.905   9.025 -0.9091  0.2639 -2.9195
   84SAPS  C318 8009   5.270   5.772   8.857 -0.1536  0.3014  0.4230
   84SAPS  H18X 8010   5.199   5.811   8.781 -1.2943 -2.8168 -0.2303
   84SAPS  H18Y 8011   5.230   5.681   8.907 -0.1512  0.9586  1.6829
   84SAPS  H18Z 8012   5.359   5.745   8.797  0.1300 -2.3341  1.8912
   85SAPS     N 8013   2.939   0.798  11.327 -0.3674  0.1013  0.2762
   85SAPS   HN1 8014   2.997   0.880  11.353  0.0843  0.1988 -0.9370
   85SAPS   HN2 8015   2.849   0.788  11.376 -1.4735  2.2757 -1.1658
   85SAPS   HN3 8016   3.001   0.717  11.351 -0.5834 -0.1986 -0.1541
   85SAPS   C12 8017   2.893   0.815  11.187 -0.9171  0.3569 -0.0214
   85SAPS  H12A 8018   2.874   0.716  11.148  1.8062  0.3672 -1.6719
   85SAPS   C13 8019   2.757   0.886  11.193 -0.0600 -0.2824 -0.5070
   85SAPS  O13A 8020   2.681   0.876  11.288  0.0751 -0.3333 -0.2930
   85SAPS  O13B 8021   2.710   0.923  11.078  0.0363 -0.2142  0.0471
   85SAPS   C11 8022   3.001   0.890  11.109 -0.6500  0.4360  0.0479
   85SAPS  H11A 8023   3.015   0.995  11.143 -0.9725  0.1832  0.9644
   85SAPS  H11B 8024   2.975   0.900  11.001  1.2150  0.3571 -0.4463
   85SAPS     P 8025   3.268   0.896  11.095 -0.2181  0.1233  0.5696
   85SAPS   O13 8026   3.249   1.040  11.128  0.3891  0.6204 -0.2689
   85SAPS   O14 8027   3.372   0.818  11.171  0.0061 -0.3046 -0.2489
   85SAPS   O12 8028   3.129   0.821  11.119 -0.3812 -0.2763 -0.5983
   85SAPS   O11 8029   3.293   0.867  10.935 -0.0661  0.1227  0.5074
   85SAPS    C1 8030   3.190   0.896  10.842 -0.1571 -0.6763  0.1647
   85SAPS    HA 8031   3.113   0.817  10.847 -0.5428 -0.3945 -0.8979
   85SAPS    HB 8032   3.149   0.997  10.865  1.6433  0.9293 -2.8882
   85SAPS    C2 8033   3.248   0.905  10.699  0.0837  0.2438  0.3135
   85SAPS    HS 8034   3.175   0.947  10.627  0.8871 -2.1328 -2.0909
   85SAPS   O21 8035   3.296   0.776  10.645 -0.3863  0.1844 -0.8208
   85SAPS   C21 8036   3.197   0.695  10.596 -0.3698  0.8053 -0.5121
   85SAPS   O22 8037   3.076   0.700  10.615 -0.6370  0.7130  0.5539
   85SAPS   C22 8038   3.271   0.591  10.513  0.3680 -0.2650 -0.6958
   85SAPS   H2R 8039   3.376   0.587  10.549 -0.1226  2.0163  1.1753
   85SAPS   H2S 8040   3.232   0.489  10.536 -0.7277  0.3413  0.2359
   85SAPS    C3 8041   3.370   0.998  10.689  0.3454  0.2083  0.2747
   85SAPS    HX 8042   3.460   0.951  10.735  0.5670 -0.2505 -0.5939
   85SAPS    HY 8043   3.355   1.090  10.749 -0.6176  0.0926  0.2214
   85SAPS   O31 8044   3.399   1.035  10.558 -0.0719 -0.6180  0.7888
   85SAPS   C31 8045   3.492   0.956  10.493 -0.3513 -0.3391 -0.1709
   85SAPS   O32 8046   3.547   0.857  10.535 -0.1095  0.3265 -0.2149
   85SAPS   C32 8047   3.503   1.010  10.355  0.6283  0.0699  0.8704
   85SAPS   H2X 8048   3.456   1.111  10.348  1.7238  0.5236 -0.5375
   85SAPS   H2Y 8049   3.465   0.939  10.278 -0.4913  1.9902 -0.4492
   85SAPS   C23 8050   3.244   0.624  10.368  0.0572  0.2520  0.2903
   85SAPS   H3R 8051   3.258   0.734  10.356  0.9947  0.0794 -0.2756
   85SAPS   H3S 8052   3.142   0.593  10.334  0.8680 -1.0988 -1.0310
   85SAPS   C24 8053   3.334   0.541  10.270 -0.3059  0.5999 -0.0098
   85SAPS   H4R 8054   3.289   0.544  10.169 -0.9799  0.6164  0.2886
   85SAPS   H4S 8055   3.329   0.436  10.305  3.0959 -0.0700 -1.1609
   85SAPS   C25 8056   3.477   0.593  10.260  0.2596  0.4413 -0.6409
   85SAPS   H5R 8057   3.538   0.552  10.343 -1.1756 -0.2631  0.0926
   85SAPS   C26 8058   3.530   0.674  10.165 -0.1201 -0.5625  0.4529
   85SAPS   H6R 8059   3.636   0.706  10.168  0.1689 -1.4942  0.6027
   85SAPS   C27 8060   3.454   0.719  10.043 -0.0674 -0.8271  0.6096
   85SAPS   H7R 8061   3.525   0.786   9.990  0.5357 -1.0238  1.1569
   85SAPS   H7S 8062   3.367   0.778  10.080 -0.2334  1.3048 -2.7602
   85SAPS   C28 8063   3.394   0.611   9.954 -0.0238  0.3699  1.1474
   85SAPS   H8R 8064   3.374   0.510   9.991 -0.6213 -0.8230 -2.1304
   85SAPS   C29 8065   3.362   0.628   9.823  0.1216  0.2484 -0.2514
   85SAPS   H9R 8066   3.319   0.541   9.772  0.4833 -0.1824  0.1731
   85SAPS  C210 8067   3.380   0.751   9.739  0.0787  0.0528  0.4227
   85SAPS  H10R 8068   3.447   0.817   9.799  0.4709  0.0007  0.0464
   85SAPS  H10S 8069   3.273   0.781   9.727 -0.8293 -1.5446  3.4317
   85SAPS  C211 8070   3.439   0.715   9.606  0.0171  0.4372 -0.4197
   85SAPS  H11R 8071   3.461   0.608   9.604 -1.8037 -0.0170  0.7000
   85SAPS  C212 8072   3.478   0.804   9.513 -0.6297  0.3847 -0.2504
   85SAPS  H12R 8073   3.515   0.769   9.415 -1.3957  0.7073 -0.6596
   85SAPS  C213 8074   3.469   0.951   9.516 -0.5745 -0.0574 -0.5834
   85SAPS  H13R 8075   3.409   0.977   9.606  0.2058 -0.1080 -0.0301
   85SAPS  H13S 8076   3.413   0.998   9.433 -1.5090  0.0418  0.0929
   85SAPS  C214 8077   3.605   1.015   9.532 -0.1041  0.0687 -0.1532
   85SAPS  H14R 8078   3.669   0.950   9.593 -1.9743 -0.2131  1.6165
   85SAPS  C215 8079   3.648   1.137   9.480  0.3546 -0.2903 -0.6203
   85SAPS  H15R 8080   3.757   1.149   9.492  0.4488 -2.9962  2.4134
   85SAPS  C216 8081   3.590   1.248   9.393 -0.2287  0.4541 -0.4913
   85SAPS  H16R 8082   3.606   1.349   9.436  2.4131  0.7377 -1.9230
   85SAPS  H16S 8083   3.481   1.227   9.382  0.2052 -0.9384 -2.9656
   85SAPS  C217 8084   3.651   1.252   9.251  0.0651 -0.9634  0.3172
   85SAPS  H17R 8085   3.756   1.288   9.246 -0.2141 -0.2254 -3.2413
   85SAPS  H17S 8086   3.598   1.337   9.203  1.6137 -0.8029 -1.2531
   85SAPS  C218 8087   3.644   1.125   9.167  0.5558 -0.4921  0.0994
   85SAPS  H18R 8088   3.538   1.092   9.157  1.1526 -2.2524 -0.5976
   85SAPS  H18S 8089   3.709   1.045   9.208  1.6054  0.4212  0.2609
   85SAPS  C219 8090   3.707   1.146   9.029 -0.2601 -0.4524  0.3970
   85SAPS  H19R 8091   3.721   1.048   8.980  0.9882  0.3284 -0.8676
   85SAPS  H19S 8092   3.807   1.194   9.035  0.5645 -2.1635  1.0220
   85SAPS  C220 8093   3.624   1.226   8.924  0.9396 -0.2380  0.5121
   85SAPS  H20R 8094   3.521   1.186   8.912  0.5901  0.1247  2.0068
   85SAPS  H20S 8095   3.671   1.229   8.824 -1.2385 -0.0240 -0.5542
   85SAPS  H20T 8096   3.619   1.334   8.949  0.0486 -0.1756  0.1126
   85SAPS   C33 8097   3.650   1.045  10.328 -0.4169  0.6288 -0.0503
   85SAPS   H3X 8098   3.705   0.949  10.325 -1.0560  0.2265  0.6491
   85SAPS   H3Y 8099   3.691   1.106  10.411 -0.0178 -0.8479  0.8623
   85SAPS   C34 8100   3.662   1.119  10.191  0.2792  0.1539 -0.5013
   85SAPS   H4X 8101   3.608   1.059  10.114 -2.7566  0.3062  1.3480
   85SAPS   H4Y 8102   3.769   1.117  10.161 -0.0863  2.5445 -2.2389
   85SAPS   C35 8103   3.604   1.257  10.175  0.2072  0.1242  0.4568
   85SAPS   H5X 8104   3.618   1.316  10.268 -1.7095 -0.3680  1.1070
   85SAPS   H5Y 8105   3.495   1.244  10.158  0.4444  0.0511 -1.1395
   85SAPS   C36 8106   3.655   1.336  10.055 -0.3315 -0.0238  0.3039
   85SAPS   H6X 8107   3.633   1.272   9.967  0.0248 -0.1868  0.3301
   85SAPS   H6Y 8108   3.761   1.369  10.061  0.3408 -2.0450  0.3236
   85SAPS   C37 8109   3.570   1.462  10.039  0.1856  0.2257 -0.1030
   85SAPS   H7X 8110   3.591   1.532  10.123 -2.3369  0.3556  0.4923
   85SAPS   H7Y 8111   3.463   1.436  10.046  0.3508 -0.4671 -0.1061
   85SAPS   C38 8112   3.590   1.544   9.905  0.1757  0.3242  0.1290
   85SAPS   H8X 8113   3.529   1.636   9.912 -1.7721 -0.9583  0.5836
   85SAPS   H8Y 8114   3.538   1.481   9.829 -0.3339 -0.5578  1.1822
   85SAPS   C39 8115   3.729   1.569   9.852 -0.5077 -0.3387 -0.1018
   85SAPS   H9X 8116   3.791   1.480   9.831  1.8620  1.7492 -2.9028
   85SAPS   H9Y 8117   3.781   1.616   9.938  0.3390 -3.1415  1.0073
   85SAPS  C310 8118   3.738   1.659   9.730  0.1288 -0.5303 -0.0331
   85SAPS  H10X 8119   3.836   1.712   9.730 -0.8876  1.4587 -0.1535
   85SAPS  H10Y 8120   3.659   1.737   9.738 -0.7791 -1.5184  0.9574
   85SAPS  C311 8121   3.726   1.586   9.599 -0.5402  0.2653  0.4421
   85SAPS  H11X 8122   3.621   1.560   9.571 -0.2793  1.4094 -1.8449
   85SAPS  H11Y 8123   3.791   1.497   9.607  0.6869  1.0590 -0.3604
   85SAPS  C312 8124   3.788   1.678   9.483 -0.2365 -0.0255 -0.9762
   85SAPS  H12X 8125   3.898   1.666   9.486 -0.1399  0.7306  2.1613
   85SAPS  H12Y 8126   3.762   1.783   9.506  0.7294 -0.1710  1.0173
   85SAPS  C313 8127   3.737   1.642   9.342 -1.3815  0.0780  0.1316
   85SAPS  H13X 8128   3.750   1.532   9.337  0.2784 -0.0703  3.8631
   85SAPS  H13Y 8129   3.806   1.697   9.274  0.4122 -0.1792  1.6530
   85SAPS  C314 8130   3.598   1.698   9.312 -0.0902 -0.3274  0.9837
   85SAPS  H14X 8131   3.584   1.794   9.365  1.6447 -0.6774  2.1341
   85SAPS  H14Y 8132   3.518   1.625   9.337 -0.3636 -1.2178 -2.0181
   85SAPS  C315 8133   3.577   1.723   9.162 -0.3789 -0.3169  0.0795
   85SAPS  H15X 8134   3.674   1.739   9.109  0.3497 -1.5059  0.9945
   85SAPS  H15Y 8135   3.523   1.816   9.137  0.5555 -0.2575 -1.8944
   85SAPS  C316 8136   3.496   1.612   9.087  0.5775 -0.4056  0.4713
   85SAPS  H16X 8137   3.404   1.591   9.145 -1.3227 -1.2716 -2.6635
   85SAPS  H16Y 8138   3.555   1.518   9.087 -1.4581 -1.7701  2.0827
   85SAPS  C317 8139   3.462   1.647   8.940 -0.1879  0.4616 -0.5675
   85SAPS  H17X 8140   3.563   1.666   8.897  0.9566  0.1855  1.8335
   85SAPS  H17Y 8141   3.407   1.742   8.926  2.7099  1.9357 -3.2181
   85SAPS  C318 8142   3.369   1.540   8.874 -0.3008  0.0974  0.5938
   85SAPS  H18X 8143   3.414   1.440   8.888  0.2246  0.3954  1.1400
   85SAPS  H18Y 8144   3.357   1.553   8.765  0.3094  1.0385  0.6197
   85SAPS  H18Z 8145   3.261   1.540   8.901 -0.5105  0.5078 -0.2067
   86SAPS     N 8146   4.455   0.615  10.897  0.0195  0.3309  0.0889
   86SAPS   HN1 8147   4.546   0.575  10.868  1.5067  3.7204 -0.3725
   86SAPS   HN2 8148   4.377   0.594  10.830 -1.1994 -0.2708  1.6367
   86SAPS   HN3 8149   4.466   0.718  10.902  1.8081  0.1839 -0.2812
   86SAPS   C12 8150   4.412   0.553  11.030 -0.1392  0.2275 -0.2618
   86SAPS  H12A 8151   4.490   0.564  11.105 -0.6390  1.7045  0.0697
   86SAPS   C13 8152   4.284   0.616  11.103 -1.1333 -0.8596  0.3715
   86SAPS  O13A 8153   4.241   0.730  11.073  0.2318  0.0998 -0.5226
   86SAPS  O13B 8154   4.264   0.562  11.220 -0.4882  0.1956  0.6824
   86SAPS   C11 8155   4.362   0.409  10.994  0.2297 -0.9314 -0.1496
   86SAPS  H11A 8156   4.264   0.415  10.942  0.2970  1.3234 -0.1154
   86SAPS  H11B 8157   4.338   0.347  11.083  0.8957  0.2868  0.9169
   86SAPS     P 8158   4.561   0.238  10.969 -0.2692 -0.2479  0.2576
   86SAPS   O13 8159   4.696   0.303  10.960 -0.1673  0.2183  0.0926
   86SAPS   O14 8160   4.514   0.184  11.101 -0.2691 -0.5699 -0.4238
   86SAPS   O12 8161   4.453   0.341  10.912  0.1122  0.0309 -0.8654
   86SAPS   O11 8162   4.550   0.131  10.851  0.0262  0.2874 -0.2900
   86SAPS    C1 8163   4.468   0.136  10.741 -0.1602  0.0387  0.4936
   86SAPS    HA 8164   4.420   0.036  10.735 -1.1397  0.4235  1.5729
   86SAPS    HB 8165   4.383   0.207  10.750 -1.0815 -0.6923 -1.7107
   86SAPS    C2 8166   4.559   0.165  10.618  0.0258  0.2893  0.4143
   86SAPS    HS 8167   4.494   0.134  10.534 -3.4121  1.2548  2.5476
   86SAPS   O21 8168   4.682   0.089  10.628  0.4135  0.3946  0.1246
   86SAPS   C21 8169   4.658  -0.039  10.615  0.7301 -0.0265  0.8119
   86SAPS   O22 8170   4.549  -0.095  10.583 -0.0289 -0.1251 -0.4909
   86SAPS   C22 8171   4.788  -0.113  10.643  0.1163 -0.1363 -0.6908
   86SAPS   H2R 8172   4.863  -0.052  10.697 -1.9837  0.5685  1.6416
   86SAPS   H2S 8173   4.745  -0.192  10.709 -2.8780 -0.5575 -2.9321
   86SAPS    C3 8174   4.598   0.313  10.613  0.0249 -0.2474  0.1602
   86SAPS    HX 8175   4.661   0.337  10.702  1.3032  2.0499 -1.2729
   86SAPS    HY 8176   4.508   0.377  10.612  0.5388  0.4763 -0.1673
   86SAPS   O31 8177   4.682   0.349  10.500  0.4546  0.6528 -0.3690
   86SAPS   C31 8178   4.623   0.348  10.383 -0.5286 -0.6304  0.6335
   86SAPS   O32 8179   4.504   0.337  10.365 -0.2677  0.1444  0.0838
   86SAPS   C32 8180   4.728   0.326  10.280  0.3210 -0.4117  0.1335
   86SAPS   H2X 8181   4.797   0.244  10.311  1.6721  1.4914  2.4630
   86SAPS   H2Y 8182   4.785   0.422  10.278  0.2272 -0.3024 -3.3893
   86SAPS   C23 8183   4.839  -0.188  10.518 -0.3284  0.1224  0.2548
   86SAPS   H3R 8184   4.751  -0.234  10.467  0.0177 -1.6575  1.1700
   86SAPS   H3S 8185   4.901  -0.272  10.556  1.7872  0.4345 -2.2739
   86SAPS   C24 8186   4.917  -0.107  10.412  0.4996 -0.9799  0.3202
   86SAPS   H4R 8187   4.980  -0.182  10.359 -0.0108 -1.4801  0.4211
   86SAPS   H4S 8188   4.989  -0.036  10.459 -0.0249  1.6847 -2.5917
   86SAPS   C25 8189   4.818  -0.024  10.321 -0.4341  0.1873 -0.7254
   86SAPS   H5R 8190   4.765   0.051  10.382  0.9088  0.0415  0.6878
   86SAPS   C26 8191   4.782  -0.052  10.194  0.2498 -0.7849 -0.4404
   86SAPS   H6R 8192   4.709   0.011  10.142 -1.2223 -0.1711  2.2057
   86SAPS   C27 8193   4.836  -0.162  10.108  0.0504  0.7553 -0.3121
   86SAPS   H7R 8194   4.756  -0.207  10.045 -1.5225 -0.1782  2.1767
   86SAPS   H7S 8195   4.865  -0.245  10.175 -1.0833  0.7381  0.1795
   86SAPS   C28 8196   4.961  -0.135  10.039  0.6499  0.0310 -0.5081
   86SAPS   H8R 8197   5.046  -0.103  10.100 -0.3854 -0.2889  1.1647
   86SAPS   C29 8198   4.974  -0.142   9.908 -0.5716  0.6416 -0.3768
   86SAPS   H9R 8199   5.075  -0.122   9.869  1.0607  0.9859  3.5643
   86SAPS  C210 8200   4.862  -0.163   9.807  1.2904 -1.3259  1.1017
   86SAPS  H10R 8201   4.876  -0.084   9.731  0.9549 -2.6892 -0.4419
   86SAPS  H10S 8202   4.761  -0.143   9.850  0.6957 -0.9504 -0.4328
   86SAPS  C211 8203   4.851  -0.297   9.741 -0.4734  0.4842 -0.9443
   86SAPS  H11R 8204   4.842  -0.378   9.816  0.0151  0.5101 -0.8576
   86SAPS  C212 8205   4.882  -0.330   9.618 -0.2227  0.2073  0.1253
   86SAPS  H12R 8206   4.857  -0.433   9.589 -0.3517 -0.0534  1.1521
   86SAPS  C213 8207   4.930  -0.249   9.510 -0.6640 -0.5311  0.3157
   86SAPS  H13R 8208   4.997  -0.310   9.445 -0.4986 -1.9235  1.7402
   86SAPS  H13S 8209   5.001  -0.169   9.543 -1.0196  0.3518 -0.9774
   86SAPS  C214 8210   4.822  -0.187   9.425 -0.1642  0.3531  0.0134
   86SAPS  H14R 8211   4.775  -0.106   9.482  4.0247  2.5487  0.7828
   86SAPS  C215 8212   4.784  -0.219   9.303 -0.3457 -1.0460 -0.0248
   86SAPS  H15R 8213   4.717  -0.148   9.252  0.4556  1.6960  2.4369
   86SAPS  C216 8214   4.834  -0.333   9.220  0.0951  0.2750  0.0762
   86SAPS  H16R 8215   4.766  -0.421   9.230 -1.1817  1.2074 -0.1345
   86SAPS  H16S 8216   4.937  -0.368   9.243  0.0346 -1.1177 -1.5603
   86SAPS  C217 8217   4.839  -0.306   9.067 -0.4832  0.1871  0.1398
   86SAPS  H17R 8218   4.917  -0.229   9.048 -1.1821  0.8060 -0.2761
   86SAPS  H17S 8219   4.736  -0.273   9.041  0.1372  3.0465  0.9272
   86SAPS  C218 8220   4.878  -0.430   8.983  0.6200 -0.0652  0.2679
   86SAPS  H18R 8221   4.875  -0.401   8.876  2.2067  1.7032  0.6475
   86SAPS  H18S 8222   4.802  -0.510   9.001  0.1149  0.8148  2.3628
   86SAPS  C219 8223   5.024  -0.482   9.008  0.3067  0.1244  0.2574
   86SAPS  H19R 8224   5.031  -0.542   9.101  4.9050 -1.1669 -0.6845
   86SAPS  H19S 8225   5.088  -0.392   9.018  3.1314 -1.6885 -0.2596
   86SAPS  C220 8226   5.078  -0.568   8.890  0.3399 -0.4649  0.0227
   86SAPS  H20R 8227   5.059  -0.523   8.790  1.5073 -0.7791 -0.3515
   86SAPS  H20S 8228   5.022  -0.663   8.873  0.8570 -0.6045 -0.9892
   86SAPS  H20T 8229   5.188  -0.582   8.895  0.7604  1.9022 -1.2025
   86SAPS   C33 8230   4.672   0.313  10.137 -0.5805  0.3289  0.4268
   86SAPS   H3X 8231   4.586   0.381  10.118 -0.7857 -0.3286 -1.1136
   86SAPS   H3Y 8232   4.620   0.215  10.131 -0.1669  0.0972  0.5877
   86SAPS   C34 8233   4.780   0.317  10.027 -0.0831  0.0289 -0.2458
   86SAPS   H4X 8234   4.863   0.246  10.049  1.3891  2.0446  1.0454
   86SAPS   H4Y 8235   4.818   0.420  10.010  0.7215 -0.3106 -0.5415
   86SAPS   C35 8236   4.718   0.270   9.889 -0.5686 -0.2062  0.3349
   86SAPS   H5X 8237   4.620   0.322   9.884 -0.7028 -0.1740  2.4332
   86SAPS   H5Y 8238   4.695   0.162   9.883  1.6874 -0.7875  1.3621
   86SAPS   C36 8239   4.797   0.298   9.764  0.3962 -0.1809  0.2073
   86SAPS   H6X 8240   4.894   0.244   9.768 -0.1410 -1.1083  1.2496
   86SAPS   H6Y 8241   4.812   0.407   9.752  1.3271 -0.1668  1.3292
   86SAPS   C37 8242   4.726   0.239   9.638  0.9615 -0.1270 -0.1897
   86SAPS   H7X 8243   4.622   0.277   9.646  0.8890 -0.5576  1.1998
   86SAPS   H7Y 8244   4.713   0.129   9.640  0.8257 -0.0990  1.6766
   86SAPS   C38 8245   4.789   0.286   9.508  0.2648  0.4629 -0.2345
   86SAPS   H8X 8246   4.898   0.293   9.528  0.0196 -0.9310  1.8071
   86SAPS   H8Y 8247   4.750   0.390   9.509  2.0034  1.2025  2.2432
   86SAPS   C39 8248   4.759   0.210   9.385 -0.3181  0.1533 -0.2056
   86SAPS   H9X 8249   4.769   0.100   9.392  1.6816  0.2810 -0.6363
   86SAPS   H9Y 8250   4.827   0.255   9.310 -2.3990  1.6345 -1.3334
   86SAPS  C310 8251   4.617   0.224   9.336 -0.1920 -0.4387 -0.2004
   86SAPS  H10X 8252   4.596   0.330   9.310 -1.7622  0.0254  2.5939
   86SAPS  H10Y 8253   4.535   0.195   9.404 -0.0993  2.6028  1.3831
   86SAPS  C311 8254   4.584   0.143   9.205 -0.4048  0.5875  0.5691
   86SAPS  H11X 8255   4.479   0.161   9.172 -0.2697 -0.3030 -0.4069
   86SAPS  H11Y 8256   4.589   0.035   9.232 -0.6390  0.9131  1.9788
   86SAPS  C312 8257   4.663   0.188   9.076  0.4103 -0.2410  0.8250
   86SAPS  H12X 8258   4.772   0.163   9.076 -0.1601 -3.8144 -2.9651
   86SAPS  H12Y 8259   4.664   0.299   9.070  1.3296 -0.2713  0.1990
   86SAPS  C313 8260   4.611   0.125   8.942  0.2626 -1.1285 -0.4920
   86SAPS  H13X 8261   4.500   0.127   8.931  0.0595  1.8029  1.1784
   86SAPS  H13Y 8262   4.647   0.020   8.950  2.2351 -0.4296  0.3589
   86SAPS  C314 8263   4.677   0.195   8.821 -0.0050 -0.0606 -0.0929
   86SAPS  H14X 8264   4.786   0.181   8.837  0.0218  1.2453  1.0098
   86SAPS  H14Y 8265   4.667   0.305   8.819  0.5640 -0.0057 -0.2379
   86SAPS  C315 8266   4.631   0.128   8.693  0.2120  0.4552  0.0877
   86SAPS  H15X 8267   4.520   0.132   8.691  0.2465  1.7293 -0.0555
   86SAPS  H15Y 8268   4.663   0.021   8.693 -0.7233  0.1711  0.1638
   86SAPS  C316 8269   4.679   0.197   8.557  0.6623 -0.1205 -0.6001
   86SAPS  H16X 8270   4.665   0.307   8.564 -2.1320 -0.2754 -2.4001
   86SAPS  H16Y 8271   4.611   0.161   8.477  0.2803  2.5650 -1.5735
   86SAPS  C317 8272   4.822   0.166   8.524  0.3575 -0.0062  0.4926
   86SAPS  H17X 8273   4.839   0.058   8.507  2.7895  0.2750  0.8233
   86SAPS  H17Y 8274   4.882   0.189   8.615  0.5680  1.2212  0.0602
   86SAPS  C318 8275   4.864   0.253   8.404 -0.0235  0.0774 -0.0512
   86SAPS  H18X 8276   4.815   0.350   8.426  0.5930  0.5067 -0.5327
   86SAPS  H18Y 8277   4.834   0.217   8.303  0.8514  0.9636 -0.6453
   86SAPS  H18Z 8278   4.975   0.265   8.406 -0.0633  1.0243 -1.7146
   87SAPS     N 8279   0.129   2.258  10.721  0.2300 -0.2303  0.2975
   87SAPS   HN1 8280   0.060   2.323  10.677 -1.1523 -1.7461  0.1083
   87SAPS   HN2 8281   0.217   2.313  10.722 -0.7713  1.4488 -0.2687
   87SAPS   HN3 8282   0.134   2.173  10.661 -2.5498  0.1242 -0.5969
   87SAPS   C12 8283   0.095   2.228  10.862  0.0703  0.1555 -0.4963
   87SAPS  H12A 8284   0.182   2.185  10.908 -0.2093  1.0867  0.9612
   87SAPS   C13 8285   0.058   2.358  10.942 -0.2835  0.1128 -0.0038
   87SAPS  O13A 8286   0.065   2.468  10.878 -0.5976  0.5579  0.2747
   87SAPS  O13B 8287   0.009   2.347  11.058 -0.6233 -0.2550  0.5752
   87SAPS   C11 8288  -0.020   2.126  10.860  0.1072 -0.1065 -0.1680
   87SAPS  H11A 8289  -0.105   2.171  10.804 -0.4508 -3.1048 -1.9410
   87SAPS  H11B 8290  -0.055   2.114  10.965 -1.0071  1.5449 -0.3073
   87SAPS     P 8291  -0.094   1.908  10.769 -0.2558  0.4950 -0.1597
   87SAPS   O13 8292  -0.029   1.779  10.752  0.8856  0.2717  0.4990
   87SAPS   O14 8293  -0.199   1.912  10.874  0.5834 -0.4633  1.0208
   87SAPS   O12 8294   0.021   2.007  10.802  0.0712 -0.4686  0.4634
   87SAPS   O11 8295  -0.152   1.951  10.633  0.0903  0.6590  0.2950
   87SAPS    C1 8296  -0.062   2.001  10.529  0.2733  0.3570 -0.2062
   87SAPS    HA 8297  -0.037   2.108  10.543 -1.1248  0.6740 -0.0244
   87SAPS    HB 8298   0.029   1.938  10.529 -0.0781 -0.1618 -0.5737
   87SAPS    C2 8299  -0.120   1.990  10.385  0.1560 -0.3915  0.2768
   87SAPS    HS 8300  -0.216   2.045  10.378  1.0237  1.3492  1.3318
   87SAPS   O21 8301  -0.134   1.851  10.340  0.4811 -0.4382 -0.8151
   87SAPS   C21 8302  -0.228   1.812  10.264 -0.3278 -0.6168  0.5444
   87SAPS   O22 8303  -0.324   1.880  10.230 -0.0841 -0.6948  0.0841
   87SAPS   C22 8304  -0.206   1.669  10.216 -0.6479 -0.7391  0.5803
   87SAPS   H2R 8305  -0.165   1.608  10.300  0.2372  0.3501  0.9597
   87SAPS   H2S 8306  -0.307   1.635  10.184 -1.0946  0.6067  0.5038
   87SAPS    C3 8307  -0.016   2.066  10.291  0.0605  0.0351  0.3141
   87SAPS    HX 8308   0.073   2.008  10.322 -1.8146 -2.8239  0.7679
   87SAPS    HY 8309  -0.012   2.172  10.323 -0.2209  0.0943  0.1643
   87SAPS   O31 8310  -0.038   2.046  10.147  0.5244 -0.0959  0.1742
   87SAPS   C31 8311  -0.136   2.130  10.102  0.2300  0.6765 -0.6012
   87SAPS   O32 8312  -0.183   2.224  10.155  0.1093 -0.2140 -0.5007
   87SAPS   C32 8313  -0.179   2.081   9.966  0.2731 -0.9343  1.0238
   87SAPS   H2X 8314  -0.225   1.980   9.965  0.3160 -0.9759 -0.8576
   87SAPS   H2Y 8315  -0.084   2.079   9.908 -0.4827 -1.6230 -0.2314
   87SAPS   C23 8316  -0.096   1.649  10.105 -0.2953 -0.1654  0.1328
   87SAPS   H3R 8317   0.004   1.675  10.143 -0.7021  1.4974  0.1087
   87SAPS   H3S 8318  -0.114   1.709  10.013  0.3404  1.7230  1.1896
   87SAPS   C24 8319  -0.087   1.492  10.067  0.0104  0.0045 -0.4721
   87SAPS   H4R 8320  -0.034   1.445  10.153 -1.3145 -1.0363 -0.1815
   87SAPS   H4S 8321  -0.017   1.483   9.981 -0.1947  2.2817 -0.9340
   87SAPS   C25 8322  -0.219   1.432  10.036  0.0959 -0.5461  0.5070
   87SAPS   H5R 8323  -0.287   1.436  10.122 -1.3023  0.9277 -0.6022
   87SAPS   C26 8324  -0.263   1.367   9.929  0.2835 -0.4472  0.0064
   87SAPS   H6R 8325  -0.370   1.342   9.924  0.2750 -0.8231  1.4219
   87SAPS   C27 8326  -0.189   1.328   9.800 -0.1352  0.1330  0.2297
   87SAPS   H7R 8327  -0.089   1.376   9.794 -0.8084  1.4268 -1.1210
   87SAPS   H7S 8328  -0.234   1.371   9.708  0.2257  0.5531  0.2498
   87SAPS   C28 8329  -0.188   1.176   9.775  0.0922 -0.3760  0.2033
   87SAPS   H8R 8330  -0.128   1.114   9.843  0.6028 -1.8629 -1.4996
   87SAPS   C29 8331  -0.256   1.112   9.679 -0.0341 -0.8232 -0.2848
   87SAPS   H9R 8332  -0.239   1.003   9.669 -4.2641 -1.7991  1.0652
   87SAPS  C210 8333  -0.346   1.171   9.579  0.1109  0.1987  0.1339
   87SAPS  H10R 8334  -0.287   1.216   9.497  0.8990  1.5584  1.3883
   87SAPS  H10S 8335  -0.390   1.268   9.610  0.0173  0.4474 -0.7538
   87SAPS  C211 8336  -0.454   1.077   9.527 -0.2573  0.0118  0.0537
   87SAPS  H11R 8337  -0.546   1.071   9.587 -1.0355 -1.4272 -1.2036
   87SAPS  C212 8338  -0.443   1.006   9.414 -0.5691  0.0102  0.3848
   87SAPS  H12R 8339  -0.529   0.944   9.383 -0.4034 -1.0594  1.9360
   87SAPS  C213 8340  -0.318   1.019   9.327  0.1039 -1.0724 -0.1983
   87SAPS  H13R 8341  -0.222   1.041   9.379 -0.0298  1.7570 -0.9625
   87SAPS  H13S 8342  -0.325   1.106   9.258  0.9112 -0.6114  0.2841
   87SAPS  C214 8343  -0.303   0.887   9.251 -0.4405 -0.0065  0.7126
   87SAPS  H14R 8344  -0.264   0.800   9.305  0.1027  1.5242  2.9317
   87SAPS  C215 8345  -0.366   0.875   9.130  0.2946  0.1142 -0.3577
   87SAPS  H15R 8346  -0.351   0.776   9.084 -0.5527 -0.3827  0.3935
   87SAPS  C216 8347  -0.455   0.973   9.055 -0.6464  0.0404  0.2991
   87SAPS  H16R 8348  -0.412   1.002   8.957 -2.3564  0.0371 -0.4901
   87SAPS  H16S 8349  -0.462   1.065   9.116  2.1149 -0.4801  1.5338
   87SAPS  C217 8350  -0.588   0.921   9.009  0.0755  0.8924  0.0196
   87SAPS  H17R 8351  -0.658   1.004   8.987 -2.4920 -0.9326  0.8309
   87SAPS  H17S 8352  -0.635   0.890   9.105  2.7724  1.0501  1.4779
   87SAPS  C218 8353  -0.595   0.811   8.906 -0.4831  0.1158 -0.6191
   87SAPS  H18R 8354  -0.559   0.712   8.943  1.7556  1.5150  1.1570
   87SAPS  H18S 8355  -0.527   0.843   8.824 -1.0359 -1.0065 -1.5593
   87SAPS  C219 8356  -0.738   0.785   8.859  0.0837 -0.4114 -0.0074
   87SAPS  H19R 8357  -0.820   0.826   8.922 -1.3978  2.1610 -3.3378
   87SAPS  H19S 8358  -0.754   0.675   8.855  1.6524 -0.6373 -0.7133
   87SAPS  C220 8359  -0.775   0.827   8.716 -0.1412  0.3021 -0.4425
   87SAPS  H20R 8360  -0.736   0.930   8.701  2.2266 -0.5143 -0.4404
   87SAPS  H20S 8361  -0.881   0.806   8.690 -1.0722  0.4406  2.8230
   87SAPS  H20T 8362  -0.711   0.771   8.644  1.3367  2.0100 -0.5179
   87SAPS   C33 8363  -0.278   2.179   9.897  0.8163 -0.3406  0.6221
   87SAPS   H3X 8364  -0.255   2.287   9.908 -1.1295  0.0414  1.3942
   87SAPS   H3Y 8365  -0.377   2.161   9.945  0.8224  0.8322  1.1050
   87SAPS   C34 8366  -0.285   2.154   9.752  0.4449 -0.6736  0.2463
   87SAPS   H4X 8367  -0.320   2.050   9.739  0.4484 -0.8909  1.8205
   87SAPS   H4Y 8368  -0.181   2.156   9.714  0.1451 -0.3685 -0.5785
   87SAPS   C35 8369  -0.387   2.246   9.669 -0.5839 -0.1661 -0.3841
   87SAPS   H5X 8370  -0.363   2.350   9.700  0.0164 -0.1855 -0.7649
   87SAPS   H5Y 8371  -0.488   2.228   9.712  0.3578  2.3205  3.3847
   87SAPS   C36 8372  -0.387   2.239   9.517  0.1054  0.1901 -0.5204
   87SAPS   H6X 8373  -0.384   2.136   9.478 -0.8038  0.4722 -1.3736
   87SAPS   H6Y 8374  -0.291   2.287   9.485  0.3697 -0.1428 -0.2307
   87SAPS   C37 8375  -0.514   2.317   9.461 -0.0328  0.1890  0.1558
   87SAPS   H7X 8376  -0.531   2.414   9.513 -2.0198  1.0301 -1.8971
   87SAPS   H7Y 8377  -0.601   2.253   9.486  0.4998 -0.1538  1.2161
   87SAPS   C38 8378  -0.502   2.329   9.306  0.0302 -0.4622  0.1353
   87SAPS   H8X 8379  -0.445   2.240   9.272  0.5385 -0.0776 -0.0386
   87SAPS   H8Y 8380  -0.438   2.413   9.272  0.8532 -1.5836 -1.2131
   87SAPS   C39 8381  -0.636   2.345   9.230  0.3461  0.1819 -0.6439
   87SAPS   H9X 8382  -0.692   2.439   9.250  1.4380  1.4454 -3.0512
   87SAPS   H9Y 8383  -0.692   2.265   9.283  2.2735 -0.0507  1.1631
   87SAPS  C310 8384  -0.624   2.334   9.081 -0.6044 -0.0561 -0.2305
   87SAPS  H10X 8385  -0.537   2.390   9.039 -0.1923 -0.5420 -0.0335
   87SAPS  H10Y 8386  -0.711   2.377   9.026 -2.1047  1.0102  2.7722
   87SAPS  C311 8387  -0.603   2.188   9.029  0.1704  0.4684 -0.5937
   87SAPS  H11X 8388  -0.701   2.135   9.035 -0.5090  1.4799 -1.9609
   87SAPS  H11Y 8389  -0.533   2.127   9.089 -1.1266 -2.7033 -2.0714
   87SAPS  C312 8390  -0.562   2.179   8.884  0.1190  0.8074 -0.1113
   87SAPS  H12X 8391  -0.540   2.075   8.854  0.0545  0.6353  0.4385
   87SAPS  H12Y 8392  -0.465   2.232   8.868  1.6708 -1.7310  0.3008
   87SAPS  C313 8393  -0.679   2.226   8.792 -0.9190 -0.6952  0.4622
   87SAPS  H13X 8394  -0.775   2.212   8.846 -2.4094  1.1677 -1.5492
   87SAPS  H13Y 8395  -0.686   2.163   8.700  0.7964  0.5568 -0.5932
   87SAPS  C314 8396  -0.661   2.375   8.757  0.2039 -0.3681  0.1568
   87SAPS  H14X 8397  -0.579   2.372   8.683  0.0581 -0.4509 -0.0036
   87SAPS  H14Y 8398  -0.618   2.437   8.838 -0.5951  1.1606 -0.5445
   87SAPS  C315 8399  -0.798   2.430   8.697  0.3441 -0.0987 -0.0750
   87SAPS  H15X 8400  -0.872   2.416   8.779 -0.0175  1.7543 -0.0337
   87SAPS  H15Y 8401  -0.836   2.379   8.606 -2.0670  1.1870  0.1233
   87SAPS  C316 8402  -0.793   2.582   8.667  0.6698  0.4439 -0.2553
   87SAPS  H16X 8403  -0.714   2.609   8.593 -0.0831  1.1588 -0.8112
   87SAPS  H16Y 8404  -0.767   2.616   8.769  2.9504 -0.3001 -0.5236
   87SAPS  C317 8405  -0.930   2.635   8.614 -0.0234 -0.3470 -0.4097
   87SAPS  H17X 8406  -0.906   2.743   8.612  0.2612 -0.4208 -1.1531
   87SAPS  H17Y 8407  -1.000   2.603   8.695 -0.6885  0.0016 -0.8398
   87SAPS  C318 8408  -0.951   2.570   8.472 -0.3786 -0.5818 -0.5447
   87SAPS  H18X 8409  -0.995   2.468   8.475 -0.7529 -0.5510 -2.9484
   87SAPS  H18Y 8410  -0.853   2.574   8.420 -0.7880  0.1666 -1.2698
   87SAPS  H18Z 8411  -1.024   2.631   8.415  1.7464 -0.5915 -3.4700
   88SAPS     N 8412   2.508   6.502  11.184 -0.1497 -0.0090 -0.3950
   88SAPS   HN1 8413   2.552   6.522  11.276 -0.8069  0.9473 -0.2721
   88SAPS   HN2 8414   2.573   6.447  11.125  0.5866 -0.0969  0.4827
   88SAPS   HN3 8415   2.484   6.591  11.136 -2.5044 -0.1560  0.3526
   88SAPS   C12 8416   2.375   6.446  11.199  0.4302  0.0451  0.3066
   88SAPS  H12A 8417   2.385   6.353  11.254  0.5519  0.0813  0.3463
   88SAPS   C13 8418   2.273   6.536  11.274 -0.8443 -1.4136 -0.2936
   88SAPS  O13A 8419   2.308   6.660  11.285 -0.0287  0.1463 -0.3738
   88SAPS  O13B 8420   2.162   6.505  11.315  0.0051  0.3433 -0.0147
   88SAPS   C11 8421   2.321   6.425  11.052  0.2025  0.1240  0.2410
   88SAPS  H11A 8422   2.330   6.511  10.982  2.4196  0.1003  0.4234
   88SAPS  H11B 8423   2.215   6.396  11.066  0.5465 -0.6443  1.3862
   88SAPS     P 8424   2.330   6.238  10.876  0.1460  0.0369 -0.0415
   88SAPS   O13 8425   2.372   6.095  10.893 -0.0435 -0.2658  0.1028
   88SAPS   O14 8426   2.185   6.257  10.883  0.4774 -0.2099 -0.2348
   88SAPS   O12 8427   2.398   6.329  10.989 -0.2816 -0.1892 -0.2517
   88SAPS   O11 8428   2.382   6.300  10.743  0.4852 -0.4168  0.2808
   88SAPS    C1 8429   2.506   6.375  10.739  0.3839  0.1248  0.0467
   88SAPS    HA 8430   2.495   6.473  10.789  0.7898  1.0597 -1.6133
   88SAPS    HB 8431   2.591   6.323  10.788  0.4225 -1.8408 -1.9371
   88SAPS    C2 8432   2.562   6.395  10.595 -0.2176 -0.6350 -0.3271
   88SAPS    HS 8433   2.496   6.471  10.548  1.0229  1.2144  0.8116
   88SAPS   O21 8434   2.553   6.273  10.515 -0.3127 -0.3711 -0.0090
   88SAPS   C21 8435   2.618   6.162  10.555  0.2637 -0.4139  0.2521
   88SAPS   O22 8436   2.695   6.165  10.652  0.1527  0.0816  0.6107
   88SAPS   C22 8437   2.569   6.038  10.472  0.1276  0.0059  0.5874
   88SAPS   H2R 8438   2.603   5.947  10.526 -0.9906 -0.0211  1.2894
   88SAPS   H2S 8439   2.458   6.032  10.466  0.1036  0.0205  0.9661
   88SAPS    C3 8440   2.699   6.460  10.584 -0.1606  0.5510  0.2709
   88SAPS    HX 8441   2.778   6.389  10.618  0.3364  1.1264  0.3277
   88SAPS    HY 8442   2.707   6.547  10.653 -1.2101  0.1782  0.8874
   88SAPS   O31 8443   2.717   6.507  10.443  0.4382  0.2360  1.0039
   88SAPS   C31 8444   2.848   6.493  10.402 -0.1902  0.4029  0.3751
   88SAPS   O32 8445   2.935   6.423  10.456  0.1434  0.3150  0.4899
   88SAPS   C32 8446   2.856   6.578  10.276 -0.0250 -0.2644  0.2645
   88SAPS   H2X 8447   2.954   6.628  10.290 -0.4656  0.2316  1.6494
   88SAPS   H2Y 8448   2.780   6.659  10.274  0.8393  0.5809  0.7574
   88SAPS   C23 8449   2.622   6.039  10.329 -0.0480 -0.0850  0.3087
   88SAPS   H3R 8450   2.614   6.145  10.298 -0.5242 -0.3020 -0.3342
   88SAPS   H3S 8451   2.555   5.976  10.265  1.5839 -0.0459 -1.5174
   88SAPS   C24 8452   2.764   5.986  10.305 -0.4630  0.3247 -0.4884
   88SAPS   H4R 8453   2.769   5.935  10.206 -0.7816 -0.5585 -0.0555
   88SAPS   H4S 8454   2.784   5.909  10.382 -2.1677 -0.6886 -0.9908
   88SAPS   C25 8455   2.863   6.094  10.308 -0.3615  0.5497  0.1875
   88SAPS   H5R 8456   2.851   6.144  10.406  2.3236 -1.9921  2.0013
   88SAPS   C26 8457   2.949   6.141  10.212  0.2682  0.1701 -0.3140
   88SAPS   H6R 8458   3.006   6.232  10.236 -0.7297  1.5386 -2.7385
   88SAPS   C27 8459   2.969   6.091  10.068 -0.2697 -0.0190 -0.4496
   88SAPS   H7R 8460   3.010   6.176  10.010 -0.6955  0.2798 -0.3190
   88SAPS   H7S 8461   2.876   6.065  10.012  1.1795 -0.6126 -2.7025
   88SAPS   C28 8462   3.068   5.971  10.057 -0.2195  0.2661  0.6387
   88SAPS   H8R 8463   3.074   5.918  10.153 -2.3839 -1.4346 -0.0570
   88SAPS   C29 8464   3.159   5.947   9.959  0.1285  0.4049  0.4545
   88SAPS   H9R 8465   3.228   5.865   9.984 -0.9544 -0.8143 -0.3792
   88SAPS  C210 8466   3.182   6.019   9.826  0.4424 -1.1620 -0.4223
   88SAPS  H10R 8467   3.291   6.023   9.802  0.7871 -3.0148  0.6058
   88SAPS  H10S 8468   3.140   6.121   9.839  3.5827 -0.0246  2.0243
   88SAPS  C211 8469   3.111   5.944   9.714  0.3119 -0.3414  0.2607
   88SAPS  H11R 8470   3.040   5.867   9.747  1.3218 -0.7131  1.6836
   88SAPS  C212 8471   3.115   5.986   9.585 -0.3355  0.9689 -0.5186
   88SAPS  H12R 8472   3.082   5.915   9.508  2.3890  1.1931 -1.9929
   88SAPS  C213 8473   3.192   6.108   9.541  0.5960 -0.9140 -0.8847
   88SAPS  H13R 8474   3.301   6.087   9.541  0.9556  0.8609 -0.4022
   88SAPS  H13S 8475   3.182   6.193   9.611 -0.1746 -0.9477 -0.9470
   88SAPS  C214 8476   3.153   6.147   9.403 -0.6102 -0.4145  0.1402
   88SAPS  H14R 8477   3.052   6.186   9.386 -0.0243  0.2379 -2.1079
   88SAPS  C215 8478   3.240   6.139   9.301  0.7873 -0.3191  0.5431
   88SAPS  H15R 8479   3.217   6.188   9.205  1.6478  0.1713  0.5790
   88SAPS  C216 8480   3.380   6.080   9.314 -0.6969 -0.0106  0.4605
   88SAPS  H16R 8481   3.391   5.998   9.388 -1.0827 -2.1221 -1.6782
   88SAPS  H16S 8482   3.449   6.160   9.348 -0.9947  0.2837  0.3778
   88SAPS  C217 8483   3.451   6.031   9.177 -0.2793 -0.4722  0.2853
   88SAPS  H17R 8484   3.385   5.960   9.122 -0.0264 -1.8506  1.6883
   88SAPS  H17S 8485   3.548   5.990   9.212 -0.3459 -1.1196 -0.2684
   88SAPS  C218 8486   3.501   6.135   9.081  0.7157 -1.0386 -0.2890
   88SAPS  H18R 8487   3.590   6.097   9.026 -0.3699 -2.5286 -1.0864
   88SAPS  H18S 8488   3.527   6.223   9.143  1.1161  0.6430 -2.6940
   88SAPS  C219 8489   3.403   6.166   8.969 -0.0483  0.5057  0.1123
   88SAPS  H19R 8490   3.299   6.183   9.004  0.0327  1.7461 -0.1661
   88SAPS  H19S 8491   3.379   6.083   8.899 -1.0581 -0.2062  1.2517
   88SAPS  C220 8492   3.440   6.291   8.898 -0.7731  0.3306 -0.5607
   88SAPS  H20R 8493   3.438   6.379   8.966  1.2247  1.5289 -1.9335
   88SAPS  H20S 8494   3.369   6.301   8.814 -0.2157 -1.5019 -1.2953
   88SAPS  H20T 8495   3.544   6.297   8.858 -0.3557  0.5689  0.5222
   88SAPS   C33 8496   2.870   6.492  10.147  0.3140 -0.0243  0.5920
   88SAPS   H3X 8497   2.777   6.431  10.151  0.5038 -0.2866  1.2588
   88SAPS   H3Y 8498   2.949   6.414  10.154  1.8657  1.5149  0.8583
   88SAPS   C34 8499   2.890   6.583  10.028  0.3115  0.1799  0.1681
   88SAPS   H4X 8500   2.965   6.659  10.059 -2.5271  2.6844  1.4343
   88SAPS   H4Y 8501   2.802   6.651  10.013 -0.5795 -1.3582 -2.0939
   88SAPS   C35 8502   2.925   6.505   9.904  0.9567 -0.0646  0.5544
   88SAPS   H5X 8503   2.842   6.432   9.900  0.5520  0.4542 -1.3037
   88SAPS   H5Y 8504   3.027   6.466   9.925  0.4687 -1.0228  1.1726
   88SAPS   C36 8505   2.941   6.579   9.770 -0.1298 -0.3429  0.1525
   88SAPS   H6X 8506   3.010   6.665   9.779 -1.6242  0.7323  1.9015
   88SAPS   H6Y 8507   2.845   6.631   9.751 -1.9585 -2.6418  2.4106
   88SAPS   C37 8508   2.973   6.491   9.644  0.5483 -0.3677 -0.1675
   88SAPS   H7X 8509   2.896   6.411   9.637 -1.0000  1.0781 -0.2441
   88SAPS   H7Y 8510   3.072   6.443   9.659  0.0102 -1.3509  0.3432
   88SAPS   C38 8511   2.954   6.563   9.513  0.7726 -0.4588 -0.5000
   88SAPS   H8X 8512   3.029   6.644   9.521 -1.5858  1.6193  2.2044
   88SAPS   H8Y 8513   2.857   6.616   9.502  1.0364 -0.2666 -2.3184
   88SAPS   C39 8514   2.975   6.465   9.395  0.0733  0.3495 -1.0815
   88SAPS   H9X 8515   2.890   6.393   9.403  0.7960 -0.3290  1.5408
   88SAPS   H9Y 8516   3.072   6.415   9.418  1.0092  2.1928 -0.9097
   88SAPS  C310 8517   2.995   6.535   9.259 -0.0757  0.0993  0.8095
   88SAPS  H10X 8518   3.084   6.601   9.271 -0.0488  1.1381 -3.4398
   88SAPS  H10Y 8519   2.904   6.595   9.241 -0.8497 -1.1414  0.4475
   88SAPS  C311 8520   3.015   6.443   9.143 -0.4012  0.4264  0.5491
   88SAPS  H11X 8521   2.949   6.354   9.155  1.2932 -1.3165 -1.8564
   88SAPS  H11Y 8522   3.115   6.394   9.157 -0.9099 -0.1873  2.2555
   88SAPS  C312 8523   2.992   6.512   9.006 -0.3788  0.4143  0.5395
   88SAPS  H12X 8524   3.072   6.585   8.979  0.2919  0.6959  3.0658
   88SAPS  H12Y 8525   2.899   6.572   9.021 -1.2495 -0.5458 -0.7333
   88SAPS  C313 8526   2.956   6.399   8.901 -0.2290 -0.9721 -0.2738
   88SAPS  H13X 8527   2.888   6.323   8.943  1.1248 -0.8219  2.3866
   88SAPS  H13Y 8528   3.047   6.339   8.880 -0.3408 -1.9011  1.6944
   88SAPS  C314 8529   2.890   6.458   8.779 -0.0143 -0.2622 -0.1177
   88SAPS  H14X 8530   2.799   6.509   8.819  1.2261  0.5182  1.8997
   88SAPS  H14Y 8531   2.862   6.371   8.717  0.7640 -1.9489  1.7808
   88SAPS  C315 8532   2.982   6.552   8.691 -0.2852 -0.2571 -0.0329
   88SAPS  H15X 8533   3.004   6.650   8.739  0.3336  0.0667 -0.9524
   88SAPS  H15Y 8534   2.936   6.582   8.594  2.1884 -0.3023 -1.2996
   88SAPS  C316 8535   3.119   6.493   8.652  0.3686  0.0488 -0.0431
   88SAPS  H16X 8536   3.096   6.416   8.576  1.4082  0.7541 -1.1151
   88SAPS  H16Y 8537   3.170   6.441   8.736  0.8852  0.2707 -0.2135
   88SAPS  C317 8538   3.220   6.597   8.597  0.2699 -0.3547  0.0915
   88SAPS  H17X 8539   3.241   6.667   8.680  1.2699 -1.5434  0.8891
   88SAPS  H17Y 8540   3.163   6.655   8.521  2.0525  1.9479  0.4365
   88SAPS  C318 8541   3.356   6.533   8.550  0.5140 -0.0980 -0.2539
   88SAPS  H18X 8542   3.328   6.439   8.497 -1.8575  0.1617  0.4103
   88SAPS  H18Y 8543   3.417   6.509   8.639 -0.1575 -0.2878  0.1631
   88SAPS  H18Z 8544   3.413   6.600   8.482 -1.3859  2.6199  0.6485
   89SAPS     N 8545   0.790   3.628  10.960 -0.1668  0.3933 -0.5672
   89SAPS   HN1 8546   0.713   3.697  10.949 -1.7575 -0.1442  4.6016
   89SAPS   HN2 8547   0.829   3.598  10.868  1.6864 -0.1593  0.3561
   89SAPS   HN3 8548   0.766   3.548  11.023  1.4379  1.2085  1.1850
   89SAPS   C12 8549   0.901   3.707  11.029  0.9185 -0.4347  0.1288
   89SAPS  H12A 8550   0.852   3.751  11.115  1.6695  0.7675 -0.0459
   89SAPS   C13 8551   1.015   3.621  11.082  0.1509 -0.4703 -0.3195
   89SAPS  O13A 8552   1.012   3.493  11.073 -0.3374 -0.3804 -0.1632
   89SAPS  O13B 8553   1.094   3.678  11.165  0.1309 -0.5499  0.1295
   89SAPS   C11 8554   0.963   3.816  10.934 -0.5328  1.2488  0.9678
   89SAPS  H11A 8555   1.054   3.847  10.989 -0.8256  1.5006  1.3140
   89SAPS  H11B 8556   0.886   3.895  10.923 -1.3092  0.1799 -2.1662
   89SAPS     P 8557   1.048   3.868  10.703 -0.1435 -0.2324  0.0496
   89SAPS   O13 8558   1.152   3.945  10.777 -0.4692 -0.0110 -0.1046
   89SAPS   O14 8559   1.087   3.814  10.575  0.5448 -0.4696  0.3953
   89SAPS   O12 8560   0.986   3.761  10.799  0.2074  0.1049 -0.4940
   89SAPS   O11 8561   0.919   3.964  10.677  0.2057  0.4207  0.6782
   89SAPS    C1 8562   0.795   3.904  10.645  0.2005  0.2932  0.1880
   89SAPS    HA 8563   0.799   3.795  10.627 -1.1395  0.4151 -1.0645
   89SAPS    HB 8564   0.721   3.918  10.726 -3.0624 -1.2824 -2.3168
   89SAPS    C2 8565   0.739   3.961  10.510 -0.5905 -0.0984 -0.0817
   89SAPS    HS 8566   0.648   3.903  10.483 -0.4707 -0.6160  0.5986
   89SAPS   O21 8567   0.849   3.951  10.412 -0.0465 -0.5157 -0.2767
   89SAPS   C21 8568   0.850   3.842  10.348  0.2834 -0.0139  0.1998
   89SAPS   O22 8569   0.779   3.747  10.375 -0.5228  0.2142  0.8086
   89SAPS   C22 8570   0.951   3.836  10.238 -0.3787 -0.6603 -0.3762
   89SAPS   H2R 8571   0.969   3.939  10.199 -1.1438 -0.2535  0.3069
   89SAPS   H2S 8572   1.042   3.813  10.298 -0.1578  0.8517 -0.0845
   89SAPS    C3 8573   0.705   4.111  10.524  0.4295 -0.5709 -0.3708
   89SAPS    HX 8574   0.797   4.166  10.552 -0.7707  1.1611  0.3237
   89SAPS    HY 8575   0.627   4.105  10.603  2.0821  1.0952  1.4629
   89SAPS   O31 8576   0.647   4.166  10.404  0.8011 -0.4703  0.5846
   89SAPS   C31 8577   0.729   4.233  10.326  0.5662 -0.1596  0.4689
   89SAPS   O32 8578   0.847   4.265  10.349 -0.7398  0.3180 -0.3937
   89SAPS   C32 8579   0.659   4.243  10.190  0.3859 -0.1793  0.0038
   89SAPS   H2X 8580   0.573   4.312  10.200 -0.2481 -0.6828 -1.6681
   89SAPS   H2Y 8581   0.616   4.145  10.160 -1.4131  1.1319 -1.9429
   89SAPS   C23 8582   0.924   3.725  10.129  0.1380  0.3443 -0.7332
   89SAPS   H3R 8583   0.897   3.623  10.164 -1.2412  0.2851 -1.8652
   89SAPS   H3S 8584   1.017   3.724  10.068  1.5187  1.4649  1.2359
   89SAPS   C24 8585   0.798   3.757  10.037 -0.1928  0.3565 -0.5050
   89SAPS   H4R 8586   0.711   3.776  10.104  0.7876  0.4877  0.7660
   89SAPS   H4S 8587   0.776   3.670   9.971  1.0297 -1.2066  1.0508
   89SAPS   C25 8588   0.802   3.889   9.962 -0.3500  0.0057 -0.2318
   89SAPS   H5R 8589   0.825   3.970  10.033  1.4222 -1.1297  0.5488
   89SAPS   C26 8590   0.782   3.909   9.828  0.9187  0.0870  0.0235
   89SAPS   H6R 8591   0.788   4.011   9.787 -1.7635  0.8947  1.4154
   89SAPS   C27 8592   0.753   3.801   9.729  0.1497  0.0164 -0.5254
   89SAPS   H7R 8593   0.720   3.840   9.629  1.3166  0.7174 -0.6551
   89SAPS   H7S 8594   0.674   3.730   9.760  1.0672  0.1445  2.3373
   89SAPS   C28 8595   0.875   3.715   9.706 -0.0541  0.3130 -0.1256
   89SAPS   H8R 8596   0.922   3.680   9.799  0.7029  0.8084 -0.3112
   89SAPS   C29 8597   0.924   3.683   9.583  0.4455 -0.1295 -0.1675
   89SAPS   H9R 8598   1.004   3.608   9.578  1.3702  0.3848  3.5641
   89SAPS  C210 8599   0.863   3.726   9.451  0.6648 -0.5061 -0.2717
   89SAPS  H10R 8600   0.833   3.833   9.461 -0.6204 -0.9669  1.1637
   89SAPS  H10S 8601   0.773   3.663   9.439 -1.1002  1.9189 -0.6021
   89SAPS  C211 8602   0.967   3.705   9.341 -0.0989 -0.6872 -0.4758
   89SAPS  H11R 8603   1.047   3.636   9.369  0.5849 -0.2371 -1.2618
   89SAPS  C212 8604   0.975   3.776   9.226 -0.3300  0.3438  0.4724
   89SAPS  H12R 8605   1.040   3.761   9.139 -1.1146  1.1750 -0.2739
   89SAPS  C213 8606   0.882   3.885   9.182 -0.1656 -0.4079 -0.5610
   89SAPS  H13R 8607   0.929   3.940   9.097 -2.8493  1.2245 -1.1340
   89SAPS  H13S 8608   0.873   3.958   9.265  2.2594  0.6547 -1.1578
   89SAPS  C214 8609   0.748   3.841   9.123 -0.0610  0.8995  0.0138
   89SAPS  H14R 8610   0.714   3.744   9.161  1.2831  0.8200  1.0949
   89SAPS  C215 8611   0.666   3.922   9.060 -0.5293 -0.2701 -0.1999
   89SAPS  H15R 8612   0.564   3.887   9.039 -0.9210  1.0577 -0.6389
   89SAPS  C216 8613   0.697   4.064   9.038  0.0896  0.2499 -0.8375
   89SAPS  H16R 8614   0.806   4.082   9.040  0.0826  0.5140 -2.0647
   89SAPS  H16S 8615   0.653   4.134   9.114 -2.8599 -1.3287 -0.9172
   89SAPS  C217 8616   0.648   4.106   8.896  0.4192 -0.0184 -0.0236
   89SAPS  H17R 8617   0.538   4.094   8.881  0.3410  2.1909 -1.8181
   89SAPS  H17S 8618   0.695   4.048   8.815  1.0499 -0.2599  0.5081
   89SAPS  C218 8619   0.691   4.252   8.861  0.1714 -0.1338  0.0162
   89SAPS  H18R 8620   0.801   4.249   8.875  0.1894  0.2704 -0.0173
   89SAPS  H18S 8621   0.651   4.324   8.936  0.4993  0.1343 -0.0649
   89SAPS  C219 8622   0.672   4.310   8.720 -0.2560  0.2730  0.1507
   89SAPS  H19R 8623   0.747   4.254   8.662 -1.0103  1.0762 -1.6807
   89SAPS  H19S 8624   0.707   4.415   8.729  1.6409 -0.3899  0.9524
   89SAPS  C220 8625   0.538   4.291   8.649 -0.0231  0.1615 -0.2723
   89SAPS  H20R 8626   0.457   4.342   8.706 -1.3942 -3.3999  1.3007
   89SAPS  H20S 8627   0.507   4.185   8.636 -0.2498 -0.0083  1.3782
   89SAPS  H20T 8628   0.544   4.333   8.547  0.5226  0.5161 -0.0979
   89SAPS   C33 8629   0.749   4.300  10.076  0.2692  0.9178 -0.4820
   89SAPS   H3X 8630   0.844   4.244  10.088 -0.2695 -0.2864 -1.6298
   89SAPS   H3Y 8631   0.765   4.410  10.070 -0.6294  0.9824 -2.9659
   89SAPS   C34 8632   0.680   4.275   9.940 -0.8947 -0.0162 -0.3945
   89SAPS   H4X 8633   0.576   4.315   9.934 -0.8223  0.0661 -1.1698
   89SAPS   H4Y 8634   0.660   4.169   9.912 -2.6384  0.4222 -0.9807
   89SAPS   C35 8635   0.764   4.332   9.823  0.1706  0.3485 -0.3738
   89SAPS   H5X 8636   0.866   4.289   9.830 -0.1015 -0.0176  2.3879
   89SAPS   H5Y 8637   0.774   4.443   9.829 -1.1034  0.5603 -1.6196
   89SAPS   C36 8638   0.709   4.291   9.687  0.4526  0.3828  0.0458
   89SAPS   H6X 8639   0.603   4.322   9.699  0.9697  1.5595  2.0223
   89SAPS   H6Y 8640   0.718   4.180   9.686  0.5173  0.3655 -2.3555
   89SAPS   C37 8641   0.757   4.353   9.560  0.0142  0.0143  0.6630
   89SAPS   H7X 8642   0.867   4.333   9.555 -0.0719 -1.0646  2.1689
   89SAPS   H7Y 8643   0.740   4.461   9.575  0.0542  0.1677 -0.3597
   89SAPS   C38 8644   0.690   4.300   9.434  0.1816 -1.0321 -0.5972
   89SAPS   H8X 8645   0.583   4.329   9.442  0.5184  0.1019  0.1266
   89SAPS   H8Y 8646   0.691   4.189   9.435 -1.4687 -1.1005  1.6055
   89SAPS   C39 8647   0.750   4.366   9.309 -0.0888 -0.4604  0.8209
   89SAPS   H9X 8648   0.717   4.322   9.212 -0.8461  1.4225  0.1933
   89SAPS   H9Y 8649   0.861   4.360   9.309  0.0236  0.9801 -0.9337
   89SAPS  C310 8650   0.708   4.511   9.286  0.0307 -0.3596 -0.0415
   89SAPS  H10X 8651   0.747   4.574   9.369 -0.1316  1.1425 -1.0629
   89SAPS  H10Y 8652   0.598   4.522   9.283  0.1022  0.2761 -0.5415
   89SAPS  C311 8653   0.768   4.563   9.158  0.2635  0.0292  0.1364
   89SAPS  H11X 8654   0.749   4.499   9.069 -1.6694  1.8437 -0.8326
   89SAPS  H11Y 8655   0.879   4.560   9.163  0.2917 -3.7626  0.3977
   89SAPS  C312 8656   0.700   4.701   9.112  0.0332 -0.1485 -0.4813
   89SAPS  H12X 8657   0.746   4.788   9.164 -2.0829  0.7449 -0.0298
   89SAPS  H12Y 8658   0.594   4.693   9.143  0.1799 -1.5814 -0.2369
   89SAPS  C313 8659   0.707   4.719   8.963  0.4903  0.1887  0.0080
   89SAPS  H13X 8660   0.635   4.797   8.930  0.9815 -0.1913 -2.0916
   89SAPS  H13Y 8661   0.679   4.624   8.912  0.6801 -0.5673  1.2676
   89SAPS  C314 8662   0.845   4.753   8.907 -0.0927  0.4195  0.1743
   89SAPS  H14X 8663   0.904   4.659   8.912  0.2900  0.6954  4.6822
   89SAPS  H14Y 8664   0.870   4.839   8.973  1.1223  1.6999 -1.8334
   89SAPS  C315 8665   0.856   4.805   8.761  0.0673  0.6976 -0.3370
   89SAPS  H15X 8666   0.962   4.837   8.754  1.5846 -3.2271  1.7534
   89SAPS  H15Y 8667   0.788   4.893   8.757  1.3930  1.7738 -0.0480
   89SAPS  C316 8668   0.830   4.695   8.655 -0.7543 -0.8596  0.7825
   89SAPS  H16X 8669   0.727   4.654   8.666 -1.1645  0.4402  2.0973
   89SAPS  H16Y 8670   0.912   4.622   8.666  2.6078  2.8194  2.4864
   89SAPS  C317 8671   0.835   4.735   8.507  0.0989 -0.0113 -0.8714
   89SAPS  H17X 8672   0.823   4.649   8.437 -1.6983 -0.2495 -0.3163
   89SAPS  H17Y 8673   0.931   4.785   8.481  0.0395 -1.1606 -3.7755
   89SAPS  C318 8674   0.718   4.825   8.474 -0.1575 -0.1516 -0.3050
   89SAPS  H18X 8675   0.621   4.772   8.482 -1.2720  1.8477 -0.0255
   89SAPS  H18Y 8676   0.729   4.843   8.365 -0.0274 -1.9127 -0.6115
   89SAPS  H18Z 8677   0.714   4.918   8.534  0.6602  2.5229 -4.0002
   90SAPS     N 8678   4.215   2.494  11.143  0.0350 -0.1806  0.1062
   90SAPS   HN1 8679   4.139   2.445  11.194  1.2971 -0.3222  1.9357
   90SAPS   HN2 8680   4.175   2.560  11.073 -0.1680 -0.9471 -0.5053
   90SAPS   HN3 8681   4.278   2.422  11.103  1.3279  0.9755 -0.0050
   90SAPS   C12 8682   4.296   2.563  11.246  0.2619 -0.4960  0.4397
   90SAPS  H12A 8683   4.244   2.651  11.281  0.3162  0.9958 -2.8823
   90SAPS   C13 8684   4.333   2.476  11.367 -0.6576  0.2918 -0.2045
   90SAPS  O13A 8685   4.338   2.351  11.358  0.4898 -0.4388  0.0655
   90SAPS  O13B 8686   4.385   2.531  11.465  0.2642  0.4042  0.0061
   90SAPS   C11 8687   4.428   2.615  11.178 -0.2105 -0.0564 -0.2767
   90SAPS  H11A 8688   4.499   2.530  11.171 -0.8709 -0.4952 -2.5119
   90SAPS  H11B 8689   4.471   2.699  11.237 -0.1682  0.7223 -1.3830
   90SAPS     P 8690   4.492   2.742  10.955 -0.1440 -0.0238 -0.2647
   90SAPS   O13 8691   4.501   2.878  11.004 -1.1191  0.3601 -0.1842
   90SAPS   O14 8692   4.624   2.674  10.949  0.7582 -0.1422 -0.0754
   90SAPS   O12 8693   4.403   2.654  11.045  0.4131 -0.8088  0.2014
   90SAPS   O11 8694   4.418   2.736  10.815  0.2484  0.0301  0.2133
   90SAPS    C1 8695   4.327   2.638  10.766 -0.3394  0.0800 -0.2316
   90SAPS    HA 8696   4.296   2.569  10.848 -0.4201 -0.0031 -0.3322
   90SAPS    HB 8697   4.238   2.690  10.725  0.5138  1.0776 -0.8707
   90SAPS    C2 8698   4.387   2.568  10.646  0.0467  0.4564 -0.2465
   90SAPS    HS 8699   4.488   2.540  10.682 -1.4051 -2.6589  1.7955
   90SAPS   O21 8700   4.380   2.655  10.531  0.1166 -0.1628  0.3777
   90SAPS   C21 8701   4.477   2.645  10.445 -0.4404  0.2789 -0.5438
   90SAPS   O22 8702   4.582   2.584  10.465  0.1270  0.1075  0.2571
   90SAPS   C22 8703   4.443   2.727  10.319 -0.1008 -0.6954 -1.2728
   90SAPS   H2R 8704   4.412   2.831  10.344  2.0445 -0.3121  0.0509
   90SAPS   H2S 8705   4.539   2.736  10.265 -1.6896  1.9327 -3.9848
   90SAPS    C3 8706   4.312   2.442  10.625  0.1053  1.3001 -0.1584
   90SAPS    HX 8707   4.309   2.377  10.715 -2.6837 -0.9883 -1.7650
   90SAPS    HY 8708   4.362   2.384  10.544  0.0364  1.2268 -0.1476
   90SAPS   O31 8709   4.178   2.476  10.588 -0.2355  0.4619 -0.1406
   90SAPS   C31 8710   4.132   2.447  10.469 -0.2603 -0.2531 -0.2168
   90SAPS   O32 8711   4.188   2.378  10.386  0.0040  0.0209 -0.5048
   90SAPS   C32 8712   3.999   2.511  10.451  0.4129 -0.5329 -0.1586
   90SAPS   H2X 8713   4.024   2.617  10.431  1.0754 -0.1712  2.2534
   90SAPS   H2Y 8714   3.930   2.513  10.538 -1.5735 -2.6749 -1.5664
   90SAPS   C23 8715   4.333   2.678  10.224 -0.0339  0.6273 -0.4842
   90SAPS   H3R 8716   4.233   2.723  10.242  0.8722  1.9946  1.4811
   90SAPS   H3S 8717   4.335   2.567  10.229  0.7873  0.6806  1.1312
   90SAPS   C24 8718   4.375   2.694  10.075 -0.2517 -0.4546 -0.9177
   90SAPS   H4R 8719   4.309   2.633  10.009 -4.6083  0.9058  1.7172
   90SAPS   H4S 8720   4.476   2.655  10.053  0.2421  1.2653 -1.8627
   90SAPS   C25 8721   4.395   2.840  10.038 -0.0929 -0.4905  0.1150
   90SAPS   H5R 8722   4.473   2.904  10.082 -1.1847 -0.2939  1.8710
   90SAPS   C26 8723   4.324   2.901   9.939 -0.2053 -0.4638  0.0238
   90SAPS   H6R 8724   4.341   3.008   9.919  1.6989 -0.4504  1.4457
   90SAPS   C27 8725   4.227   2.835   9.845  0.8794  0.2819  0.3733
   90SAPS   H7R 8726   4.148   2.780   9.901 -0.1116  2.1083  0.8618
   90SAPS   H7S 8727   4.276   2.757   9.783 -0.0276  0.4151 -0.5326
   90SAPS   C28 8728   4.159   2.933   9.750  0.2690 -0.7541  0.0511
   90SAPS   H8R 8729   4.050   2.942   9.766  0.6906  2.9364  1.6892
   90SAPS   C29 8730   4.208   3.025   9.666  0.1519 -0.7112  0.0634
   90SAPS   H9R 8731   4.149   3.092   9.600  1.4901  1.5052  1.0167
   90SAPS  C210 8732   4.350   3.062   9.637  0.6047  0.0939 -0.3289
   90SAPS  H10R 8733   4.421   3.021   9.712  0.3430 -0.5988 -0.4596
   90SAPS  H10S 8734   4.361   3.172   9.625  1.1987  0.1593  0.6701
   90SAPS  C211 8735   4.399   3.003   9.510 -0.2695  0.2212 -0.3688
   90SAPS  H11R 8736   4.363   2.902   9.486  1.7204 -0.3025 -1.3666
   90SAPS  C212 8737   4.482   3.054   9.409  0.2408 -0.1816 -0.3364
   90SAPS  H12R 8738   4.506   2.983   9.328  0.9475 -0.2264 -0.1016
   90SAPS  C213 8739   4.533   3.197   9.400 -0.2922  0.2724  0.2636
   90SAPS  H13R 8740   4.545   3.240   9.502  0.2513  3.1499 -0.9230
   90SAPS  H13S 8741   4.448   3.255   9.358 -0.0778 -0.7477 -1.6611
   90SAPS  C214 8742   4.653   3.218   9.312  0.5532 -0.7605  0.1868
   90SAPS  H14R 8743   4.751   3.194   9.355  1.1610  0.5092 -0.4472
   90SAPS  C215 8744   4.658   3.274   9.194 -0.1494  0.5923  0.1183
   90SAPS  H15R 8745   4.753   3.286   9.139 -0.3730  1.0556 -0.1729
   90SAPS  C216 8746   4.543   3.328   9.115  0.1385  0.0927 -0.2522
   90SAPS  H16R 8747   4.561   3.437   9.103 -3.7853  0.6603 -2.9529
   90SAPS  H16S 8748   4.443   3.319   9.164 -0.2939 -0.2106 -1.1529
   90SAPS  C217 8749   4.536   3.271   8.974  0.7206 -0.3267 -0.2780
   90SAPS  H17R 8750   4.638   3.275   8.931  1.8892  1.5651  2.3384
   90SAPS  H17S 8751   4.468   3.337   8.917  1.7622  0.9506 -0.0781
   90SAPS  C218 8752   4.479   3.131   8.983  0.1609  0.6033  0.4521
   90SAPS  H18R 8753   4.375   3.159   9.007  0.2984  1.0878  0.4889
   90SAPS  H18S 8754   4.526   3.058   9.053  3.0897  1.1599 -0.7694
   90SAPS  C219 8755   4.470   3.068   8.842 -0.4044  0.7312  0.4103
   90SAPS  H19R 8756   4.442   2.961   8.845 -0.4555  0.7579  0.8672
   90SAPS  H19S 8757   4.573   3.062   8.800 -0.5000  1.8321 -0.0284
   90SAPS  C220 8758   4.365   3.136   8.751  0.4785  0.6809  0.0368
   90SAPS  H20R 8759   4.349   3.084   8.655 -1.2090  0.2591  0.5241
   90SAPS  H20S 8760   4.385   3.246   8.744  0.8403  0.6570  0.6377
   90SAPS  H20T 8761   4.260   3.128   8.787  0.0724 -2.1498 -1.5005
   90SAPS   C33 8762   3.922   2.464  10.326  0.5870 -0.4940  0.4290
   90SAPS   H3X 8763   3.825   2.515  10.339  0.4260 -0.9603  1.1191
   90SAPS   H3Y 8764   3.904   2.354  10.327 -0.8150 -0.2943 -0.5606
   90SAPS   C34 8765   3.977   2.508  10.188 -0.4375  0.6892  0.3520
   90SAPS   H4X 8766   4.081   2.475  10.167 -1.0456 -0.1110 -1.6457
   90SAPS   H4Y 8767   3.980   2.619  10.182  1.0849  0.6134 -1.4855
   90SAPS   C35 8768   3.888   2.452  10.069 -0.4104  0.4395 -0.6424
   90SAPS   H5X 8769   3.779   2.464  10.089 -0.2548 -0.4854  0.9459
   90SAPS   H5Y 8770   3.899   2.342  10.072  2.2603  0.6614  1.3597
   90SAPS   C36 8771   3.933   2.519   9.939 -0.5210  0.4600  0.3103
   90SAPS   H6X 8772   4.037   2.483   9.941 -0.8361 -0.4468  1.1448
   90SAPS   H6Y 8773   3.940   2.629   9.953 -1.0117  0.4648  0.5762
   90SAPS   C37 8774   3.854   2.478   9.810 -0.3320 -0.1046 -0.2982
   90SAPS   H7X 8775   3.751   2.517   9.798  0.2158  1.2222 -0.8967
   90SAPS   H7Y 8776   3.863   2.367   9.808  0.4197 -0.0503 -0.1840
   90SAPS   C38 8777   3.926   2.523   9.679 -0.0281  0.0763 -1.0638
   90SAPS   H8X 8778   4.028   2.478   9.675 -0.9798 -2.2636 -0.7844
   90SAPS   H8Y 8779   3.937   2.633   9.671  0.7087 -0.0638 -2.1065
   90SAPS   C39 8780   3.860   2.470   9.549 -0.2018 -0.8450  1.0528
   90SAPS   H9X 8781   3.761   2.520   9.536 -0.9522 -2.5878 -0.3484
   90SAPS   H9Y 8782   3.842   2.363   9.570 -1.0070 -0.9702 -0.1975
   90SAPS  C310 8783   3.945   2.488   9.425 -0.3521  0.2599 -0.5786
   90SAPS  H10X 8784   4.041   2.434   9.443 -1.2267 -0.9262  0.7521
   90SAPS  H10Y 8785   3.957   2.597   9.413 -1.7037  0.7535  1.8335
   90SAPS  C311 8786   3.881   2.425   9.295 -0.2764 -0.2044 -0.2621
   90SAPS  H11X 8787   3.802   2.494   9.256 -0.7729  0.0603  1.1437
   90SAPS  H11Y 8788   3.840   2.327   9.328 -2.4460  0.3640 -1.0885
   90SAPS  C312 8789   3.995   2.410   9.195 -0.0233  0.0481  0.5310
   90SAPS  H12X 8790   4.080   2.350   9.233 -0.2593 -1.1831 -0.8134
   90SAPS  H12Y 8791   4.034   2.512   9.176 -3.7486  1.4209 -0.7498
   90SAPS  C313 8792   3.947   2.352   9.066  0.1647  0.1960  0.8061
   90SAPS  H13X 8793   3.853   2.399   9.031  0.2453 -1.3479 -1.7235
   90SAPS  H13Y 8794   3.927   2.243   9.073  1.4192 -0.1890 -0.9143
   90SAPS  C314 8795   4.060   2.360   8.959 -0.8626 -0.4388  0.2989
   90SAPS  H14X 8796   4.153   2.312   8.995 -1.2104 -2.1025 -0.9342
   90SAPS  H14Y 8797   4.074   2.469   8.941  1.3283 -0.5610  0.9676
   90SAPS  C315 8798   4.041   2.283   8.830 -0.7093 -0.1002  0.0740
   90SAPS  H15X 8799   3.945   2.310   8.781 -0.0679  1.8620 -0.1614
   90SAPS  H15Y 8800   4.019   2.177   8.855  1.1072 -1.2794 -2.8107
   90SAPS  C316 8801   4.158   2.299   8.730 -0.2121 -0.2200  0.5654
   90SAPS  H16X 8802   4.184   2.407   8.728  1.1733 -0.5457 -0.8081
   90SAPS  H16Y 8803   4.122   2.282   8.626  0.6041  0.5265  0.1413
   90SAPS  C317 8804   4.270   2.195   8.728  0.0736 -0.5371 -1.4880
   90SAPS  H17X 8805   4.303   2.171   8.624 -2.1295  1.8194 -2.8619
   90SAPS  H17Y 8806   4.218   2.101   8.759 -1.6728  1.4850  2.4372
   90SAPS  C318 8807   4.389   2.221   8.824 -0.9047  0.2557 -0.1403
   90SAPS  H18X 8808   4.356   2.276   8.915  2.0546  0.3476  1.0041
   90SAPS  H18Y 8809   4.470   2.271   8.767  0.5959 -1.1863  0.6437
   90SAPS  H18Z 8810   4.424   2.122   8.859 -0.1569 -0.0075 -1.5657
   91SAPS     N 8811   0.089   6.652   5.973  0.0254 -0.4117 -0.4684
   91SAPS   HN1 8812   0.099   6.635   6.075 -2.5917 -2.5194 -0.4328
   91SAPS   HN2 8813   0.067   6.560   5.930 -1.4051 -0.8665  1.1422
   91SAPS   HN3 8814   0.175   6.695   5.934 -0.1776  1.4863  1.0046
   91SAPS   C12 8815  -0.027   6.741   5.943  0.7135  0.6812  0.1971
   91SAPS  H12A 8816  -0.036   6.809   6.027  0.3036 -0.2451  0.9287
   91SAPS   C13 8817  -0.016   6.833   5.812  1.1683 -0.1941 -0.4950
   91SAPS  O13A 8818   0.094   6.842   5.757 -0.6095 -0.2646 -0.0222
   91SAPS  O13B 8819  -0.114   6.907   5.778  0.1065 -0.2943 -0.4710
   91SAPS   C11 8820  -0.166   6.662   5.934  0.2897 -0.0857  0.0536
   91SAPS  H11A 8821  -0.177   6.616   5.833 -0.6602 -0.3248  0.2541
   91SAPS  H11B 8822  -0.251   6.733   5.937 -0.1421 -0.6250  1.0374
   91SAPS     P 8823  -0.293   6.585   6.153  0.3644  0.0214  0.2366
   91SAPS   O13 8824  -0.421   6.607   6.084  0.2044 -0.0713 -0.4356
   91SAPS   O14 8825  -0.294   6.467   6.244 -0.0668  0.4891 -0.3348
   91SAPS   O12 8826  -0.178   6.570   6.041  0.5081  0.0652 -0.4918
   91SAPS   O11 8827  -0.249   6.716   6.232  0.1223  0.0787 -0.0199
   91SAPS    C1 8828  -0.343   6.768   6.329  0.1599  0.0494 -0.0050
   91SAPS    HA 8829  -0.344   6.879   6.333 -0.6225  0.0070  2.0751
   91SAPS    HB 8830  -0.448   6.741   6.306  0.3958  0.2819 -1.4531
   91SAPS    C2 8831  -0.300   6.712   6.463  0.1799  0.2259 -0.4781
   91SAPS    HS 8832  -0.311   6.602   6.456 -0.9836  0.3617 -1.0913
   91SAPS   O21 8833  -0.385   6.768   6.565 -0.0652  0.1075 -0.1287
   91SAPS   C21 8834  -0.497   6.708   6.581  0.1515  0.8057 -0.2059
   91SAPS   O22 8835  -0.535   6.601   6.526  0.1870 -0.0027  0.2888
   91SAPS   C22 8836  -0.583   6.785   6.674  0.2222 -0.0395 -0.1507
   91SAPS   H2R 8837  -0.585   6.894   6.651  1.1433 -0.4714 -2.5557
   91SAPS   H2S 8838  -0.685   6.743   6.665  0.5401 -0.8225 -0.1505
   91SAPS    C3 8839  -0.158   6.759   6.493 -0.6403  0.1193 -0.8470
   91SAPS    HX 8840  -0.145   6.869   6.484 -0.4080  0.4175  2.2083
   91SAPS    HY 8841  -0.083   6.717   6.422  2.9335 -0.1218  2.6991
   91SAPS   O31 8842  -0.109   6.720   6.627  1.0103 -0.4994  0.4045
   91SAPS   C31 8843  -0.080   6.591   6.634  0.0759  0.7713  0.0687
   91SAPS   O32 8844  -0.082   6.510   6.536  0.0304  0.2488 -0.1449
   91SAPS   C32 8845  -0.045   6.553   6.778 -0.1085 -0.1749 -0.2200
   91SAPS   H2X 8846   0.058   6.591   6.793 -0.8123  1.5197  0.6151
   91SAPS   H2Y 8847  -0.037   6.444   6.797  1.0186 -0.0750 -0.0736
   91SAPS   C23 8848  -0.563   6.780   6.829 -0.6293 -0.0116 -0.0496
   91SAPS   H3R 8849  -0.531   6.679   6.863  0.4905  1.0125  2.2271
   91SAPS   H3S 8850  -0.659   6.799   6.881 -0.4347 -0.9886  0.7032
   91SAPS   C24 8851  -0.457   6.882   6.872 -0.5732  0.1106  0.3325
   91SAPS   H4R 8852  -0.372   6.872   6.801 -0.1046 -1.4447  1.0727
   91SAPS   H4S 8853  -0.422   6.848   6.972  1.7086  0.1573 -0.3974
   91SAPS   C25 8854  -0.515   7.017   6.893  0.7589 -0.4605  0.7571
   91SAPS   H5R 8855  -0.579   7.054   6.812 -0.0953 -0.4872  1.4001
   91SAPS   C26 8856  -0.494   7.097   7.002  0.1127 -0.0143  0.4750
   91SAPS   H6R 8857  -0.551   7.191   6.997 -2.3165 -1.4188 -0.0300
   91SAPS   C27 8858  -0.407   7.067   7.121 -0.0378  0.3554 -0.7142
   91SAPS   H7R 8859  -0.388   7.168   7.163  1.7025 -0.7330  1.2949
   91SAPS   H7S 8860  -0.310   7.019   7.095 -0.4205 -1.9014  1.5896
   91SAPS   C28 8861  -0.493   6.988   7.218  0.1927 -0.1585  0.0638
   91SAPS   H8R 8862  -0.577   6.926   7.182  0.0612 -0.4014  0.7757
   91SAPS   C29 8863  -0.492   6.990   7.355  0.4982 -0.5803 -0.3591
   91SAPS   H9R 8864  -0.555   6.917   7.408 -0.1501  0.7022  0.7146
   91SAPS  C210 8865  -0.400   7.066   7.450  0.2021  0.2516  0.5689
   91SAPS  H10R 8866  -0.461   7.079   7.542 -2.2568 -0.5140 -0.8539
   91SAPS  H10S 8867  -0.382   7.169   7.413  1.1365 -0.1905 -0.2554
   91SAPS  C211 8868  -0.270   6.993   7.475 -0.4621  0.3860  0.1929
   91SAPS  H11R 8869  -0.206   6.981   7.386  1.4401  2.8021  1.1013
   91SAPS  C212 8870  -0.226   6.934   7.585 -0.3788  0.2500 -0.6074
   91SAPS  H12R 8871  -0.122   6.898   7.586 -0.9396 -1.6100  2.3547
   91SAPS  C213 8872  -0.294   6.927   7.714 -0.0045 -0.0931 -0.2728
   91SAPS  H13R 8873  -0.271   6.828   7.758 -1.4035 -0.7670 -0.9931
   91SAPS  H13S 8874  -0.402   6.924   7.690 -0.0554 -1.5839  0.0314
   91SAPS  C214 8875  -0.272   7.047   7.800 -0.5081  0.3383  0.0699
   91SAPS  H14R 8876  -0.336   7.129   7.762 -3.1030 -1.6973 -0.2108
   91SAPS  C215 8877  -0.172   7.053   7.898  0.4379  0.0372  0.0373
   91SAPS  H15R 8878  -0.155   7.158   7.924 -0.9004  0.4486 -0.6330
   91SAPS  C216 8879  -0.074   6.945   7.930 -0.2829 -0.0054  0.1703
   91SAPS  H16R 8880   0.020   6.968   7.877 -0.8493 -0.7428 -1.2129
   91SAPS  H16S 8881  -0.117   6.845   7.907  0.4436 -0.8083  2.0979
   91SAPS  C217 8882  -0.045   6.947   8.078 -0.4245  0.8894 -0.0398
   91SAPS  H17R 8883   0.016   6.857   8.102 -1.6983  0.2844  1.0479
   91SAPS  H17S 8884  -0.135   6.929   8.140  0.3588 -0.6654  0.7048
   91SAPS  C218 8885   0.032   7.073   8.136  0.2822 -0.0152  0.0869
   91SAPS  H18R 8886  -0.036   7.160   8.125  0.3011  0.1559  1.2122
   91SAPS  H18S 8887   0.131   7.096   8.092  0.0942  1.5088  0.4305
   91SAPS  C219 8888   0.070   7.052   8.284  0.1670  0.5050  0.1676
   91SAPS  H19R 8889   0.112   7.148   8.323  0.1205  1.1526 -1.3227
   91SAPS  H19S 8890   0.144   6.969   8.285  0.1385  0.2036 -4.3486
   91SAPS  C220 8891  -0.051   7.028   8.369  0.2217 -0.4562 -0.7514
   91SAPS  H20R 8892  -0.124   7.108   8.343  0.2792 -0.8227 -2.0878
   91SAPS  H20S 8893  -0.025   7.036   8.477 -1.5819  0.2009 -0.3386
   91SAPS  H20T 8894  -0.084   6.923   8.356  0.1181 -0.5131 -0.0548
   91SAPS   C33 8895  -0.131   6.615   6.883 -0.4225 -0.1997 -0.0868
   91SAPS   H3X 8896  -0.225   6.555   6.894 -1.0581  0.5315 -1.3100
   91SAPS   H3Y 8897  -0.166   6.718   6.858 -0.4818 -0.6220 -1.9365
   91SAPS   C34 8898  -0.064   6.617   7.026  0.4648 -0.2989 -0.1149
   91SAPS   H4X 8899   0.016   6.691   7.007 -0.9389  0.8362 -2.0220
   91SAPS   H4Y 8900  -0.024   6.516   7.049  0.9973  0.0852  0.6624
   91SAPS   C35 8901  -0.161   6.669   7.136 -0.0622  0.2944  0.9689
   91SAPS   H5X 8902  -0.203   6.772   7.125 -0.1474  0.1402 -0.2007
   91SAPS   H5Y 8903  -0.103   6.673   7.231  0.1801  1.2281  0.7962
   91SAPS   C36 8904  -0.279   6.575   7.154 -0.2367  0.7565 -0.1067
   91SAPS   H6X 8905  -0.245   6.470   7.142 -1.8150  0.2711 -0.6850
   91SAPS   H6Y 8906  -0.355   6.601   7.077 -1.7179 -3.7454 -0.4647
   91SAPS   C37 8907  -0.359   6.584   7.285 -0.8134  0.7419  0.2701
   91SAPS   H7X 8908  -0.402   6.482   7.286 -1.2287  0.9196  1.2853
   91SAPS   H7Y 8909  -0.439   6.660   7.281 -1.4915  0.1040  1.3784
   91SAPS   C38 8910  -0.279   6.598   7.413 -0.3986 -0.2226  0.0554
   91SAPS   H8X 8911  -0.217   6.689   7.421 -2.0582  0.7827  2.7149
   91SAPS   H8Y 8912  -0.201   6.521   7.395 -1.0481 -0.8842 -0.0040
   91SAPS   C39 8913  -0.344   6.557   7.538 -0.6536 -0.3183 -0.6931
   91SAPS   H9X 8914  -0.405   6.466   7.521 -1.0849 -0.0037 -0.8593
   91SAPS   H9Y 8915  -0.413   6.642   7.561 -0.2928 -0.2866  0.3379
   91SAPS  C310 8916  -0.246   6.545   7.655 -0.5170 -0.0929 -0.5892
   91SAPS  H10X 8917  -0.174   6.629   7.671  0.2776 -0.9178  0.3264
   91SAPS  H10Y 8918  -0.185   6.452   7.651 -1.5272 -0.8116  0.1247
   91SAPS  C311 8919  -0.312   6.540   7.794 -0.2665  0.7318  0.3999
   91SAPS  H11X 8920  -0.380   6.453   7.809  0.6385 -0.1473 -0.4538
   91SAPS  H11Y 8921  -0.391   6.618   7.799 -1.8013 -0.7833  0.8069
   91SAPS  C312 8922  -0.216   6.549   7.920 -0.5585 -0.5633 -0.4543
   91SAPS  H12X 8923  -0.126   6.612   7.903  0.2480 -1.3239  0.8360
   91SAPS  H12Y 8924  -0.180   6.446   7.937 -2.2480 -1.2730 -0.9723
   91SAPS  C313 8925  -0.291   6.596   8.042  0.3977  0.7352  0.1427
   91SAPS  H13X 8926  -0.377   6.529   8.063  2.2672 -2.7880 -2.4141
   91SAPS  H13Y 8927  -0.337   6.696   8.026 -4.3502 -0.9104  1.6631
   91SAPS  C314 8928  -0.193   6.589   8.160 -0.7586 -0.4665 -0.3085
   91SAPS  H14X 8929  -0.123   6.675   8.149 -0.2645 -0.8677 -0.2963
   91SAPS  H14Y 8930  -0.120   6.506   8.155 -0.4080 -0.2169  0.4074
   91SAPS  C315 8931  -0.261   6.578   8.294 -0.0162 -0.0581 -0.2334
   91SAPS  H15X 8932  -0.182   6.550   8.366 -1.3750 -0.9575  0.9609
   91SAPS  H15Y 8933  -0.341   6.502   8.304 -0.1767  0.4345  3.8362
   91SAPS  C316 8934  -0.317   6.722   8.328  0.2822  0.3019 -0.2868
   91SAPS  H16X 8935  -0.400   6.752   8.261 -1.0517 -0.7287  0.8358
   91SAPS  H16Y 8936  -0.233   6.792   8.307  0.8475 -0.8715 -2.1511
   91SAPS  C317 8937  -0.367   6.732   8.477 -0.4137 -0.0574 -0.3199
   91SAPS  H17X 8938  -0.305   6.662   8.536 -0.6774 -0.3605 -0.4002
   91SAPS  H17Y 8939  -0.474   6.700   8.481 -0.6766  0.8661  0.5852
   91SAPS  C318 8940  -0.350   6.879   8.533 -0.7415  0.2323 -0.1066
   91SAPS  H18X 8941  -0.392   6.956   8.466  2.4221  1.6201 -0.6697
   91SAPS  H18Y 8942  -0.246   6.916   8.547 -0.9585  0.8126 -0.0186
   91SAPS  H18Z 8943  -0.386   6.882   8.638  1.2967 -0.8494  0.6822
   92SAPS     N 8944   5.097   1.137   5.890 -0.0039  0.2852  0.0804
   92SAPS   HN1 8945   5.165   1.206   5.854  0.0359  0.7437  0.9994
   92SAPS   HN2 8946   5.146   1.088   5.967  1.9342  0.6513 -0.8549
   92SAPS   HN3 8947   5.077   1.073   5.810 -2.9108 -0.0795  0.9652
   92SAPS   C12 8948   4.980   1.224   5.933 -0.8500 -0.9640  0.6143
   92SAPS  H12A 8949   4.994   1.324   5.895 -0.3306 -1.6741 -1.1691
   92SAPS   C13 8950   4.855   1.164   5.880  0.1130 -0.3924  0.2964
   92SAPS  O13A 8951   4.855   1.078   5.787  0.3760 -0.1608 -0.5204
   92SAPS  O13B 8952   4.753   1.242   5.890  0.2245  0.3072 -0.3750
   92SAPS   C11 8953   4.965   1.224   6.094 -0.1373  0.5932  0.5213
   92SAPS  H11A 8954   4.945   1.117   6.112 -0.9523  1.0480  2.4870
   92SAPS  H11B 8955   4.874   1.277   6.128 -0.5651 -1.4602  2.8438
   92SAPS     P 8956   5.088   1.371   6.274 -0.1437  0.0338  0.6714
   92SAPS   O13 8957   5.222   1.416   6.305 -0.6558 -1.1298  0.3576
   92SAPS   O14 8958   4.984   1.472   6.252 -0.2350 -0.0435  0.2475
   92SAPS   O12 8959   5.083   1.263   6.160  0.5926  0.0661 -0.1685
   92SAPS   O11 8960   5.039   1.288   6.400 -0.4832  0.1853  0.0451
   92SAPS    C1 8961   5.140   1.220   6.476 -0.2501  0.2811  0.0047
   92SAPS    HA 8962   5.105   1.115   6.488 -1.6301  0.8808  1.7666
   92SAPS    HB 8963   5.243   1.220   6.435 -0.5887  1.2392 -0.9097
   92SAPS    C2 8964   5.161   1.278   6.616  1.0403 -0.1141  0.0703
   92SAPS    HS 8965   5.251   1.230   6.659 -0.4440 -1.9260  1.3173
   92SAPS   O21 8966   5.043   1.271   6.700  0.1060  1.0250 -0.3581
   92SAPS   C21 8967   5.010   1.146   6.748 -0.2778 -0.4764 -0.5136
   92SAPS   O22 8968   5.073   1.042   6.732 -0.2291 -0.6774 -0.5689
   92SAPS   C22 8969   4.895   1.145   6.839 -0.3935 -0.2938 -0.3184
   92SAPS   H2R 8970   4.825   1.222   6.800 -1.1606 -1.3022 -0.9785
   92SAPS   H2S 8971   4.835   1.052   6.840  0.2656 -0.7259  0.1782
   92SAPS    C3 8972   5.190   1.429   6.596  0.0369  0.8607  0.0765
   92SAPS    HX 8973   5.103   1.472   6.543 -1.3523 -2.1904 -0.3357
   92SAPS    HY 8974   5.288   1.436   6.543  1.0083 -1.3402  1.3919
   92SAPS   O31 8975   5.216   1.490   6.728  0.1615  0.4487 -0.0047
   92SAPS   C31 8976   5.213   1.621   6.721 -0.2720 -0.1086 -0.2458
   92SAPS   O32 8977   5.186   1.684   6.621  0.3014  0.4876  0.4286
   92SAPS   C32 8978   5.247   1.681   6.855  0.2221 -0.3965 -0.3731
   92SAPS   H2X 8979   5.347   1.726   6.834 -0.5762  1.3812 -0.5400
   92SAPS   H2Y 8980   5.255   1.602   6.934 -1.3249 -0.9453 -0.7422
   92SAPS   C23 8981   4.914   1.182   6.989  0.2005 -0.6347  0.1866
   92SAPS   H3R 8982   4.936   1.087   7.043 -0.4830 -2.3952 -2.4161
   92SAPS   H3S 8983   4.812   1.209   7.025  0.8098  1.1343  0.6650
   92SAPS   C24 8984   5.005   1.293   7.027 -0.0667  0.0807 -0.4820
   92SAPS   H4R 8985   5.108   1.271   6.992 -0.3181  1.1911 -1.9803
   92SAPS   H4S 8986   5.006   1.314   7.136  2.2099 -0.4272 -0.3556
   92SAPS   C25 8987   4.974   1.424   6.964 -0.2252  0.5118 -0.1154
   92SAPS   H5R 8988   5.036   1.453   6.878  1.2736  2.3143  1.4970
   92SAPS   C26 8989   4.868   1.498   6.994 -0.2353 -0.2285 -0.1071
   92SAPS   H6R 8990   4.854   1.597   6.947  0.0025 -0.5532 -0.8687
   92SAPS   C27 8991   4.764   1.468   7.104 -0.3016 -0.0032 -0.0416
   92SAPS   H7R 8992   4.745   1.555   7.171 -3.5720  0.5030 -1.4809
   92SAPS   H7S 8993   4.803   1.397   7.181 -0.5142 -0.0534  0.0193
   92SAPS   C28 8994   4.634   1.412   7.049 -0.1848  0.4074 -0.1978
   92SAPS   H8R 8995   4.609   1.421   6.942 -2.4145 -0.5699  0.1924
   92SAPS   C29 8996   4.537   1.359   7.123  0.6006  0.5539 -0.3575
   92SAPS   H9R 8997   4.456   1.297   7.081 -0.6614  0.3450  2.1576
   92SAPS  C210 8998   4.549   1.315   7.271  0.4268 -0.3730  0.4165
   92SAPS  H10R 8999   4.448   1.325   7.315 -0.4162  1.9879 -1.7931
   92SAPS  H10S 9000   4.610   1.397   7.316 -0.2315  0.0774  0.5012
   92SAPS  C211 9001   4.626   1.182   7.301  1.1163 -0.6890  0.1775
   92SAPS  H11R 9002   4.703   1.148   7.230 -0.0862 -1.7157 -0.6726
   92SAPS  C212 9003   4.614   1.109   7.410  0.5066  0.6158 -0.0065
   92SAPS  H12R 9004   4.678   1.019   7.408 -0.3526 -0.0418  0.9900
   92SAPS  C213 9005   4.524   1.131   7.533  0.7422  0.5871 -0.9587
   92SAPS  H13R 9006   4.542   1.044   7.600  0.4650  0.1280 -1.4646
   92SAPS  H13S 9007   4.415   1.122   7.512  0.2307  1.1126  1.1934
   92SAPS  C214 9008   4.530   1.262   7.608  0.0732 -0.3504 -0.3107
   92SAPS  H14R 9009   4.555   1.348   7.544  2.3198  0.7596  1.9080
   92SAPS  C215 9010   4.499   1.282   7.742  0.7446  0.4838  0.0384
   92SAPS  H15R 9011   4.496   1.381   7.790 -2.7921 -0.7354  2.7932
   92SAPS  C216 9012   4.454   1.175   7.838 -0.4857  0.6985 -0.1548
   92SAPS  H16R 9013   4.463   1.075   7.791 -0.9143  0.5022  0.1673
   92SAPS  H16S 9014   4.345   1.193   7.847 -0.2886  1.5403  0.7319
   92SAPS  C217 9015   4.521   1.169   7.978  0.4752 -0.1643  0.3295
   92SAPS  H17R 9016   4.481   1.254   8.037 -1.0399 -1.1482  0.7520
   92SAPS  H17S 9017   4.631   1.177   7.958  0.1264  0.3176 -1.6098
   92SAPS  C218 9018   4.478   1.048   8.058 -0.7990 -0.0598 -0.4440
   92SAPS  H18R 9019   4.528   0.961   8.012 -0.2508  0.2670 -0.4751
   92SAPS  H18S 9020   4.367   1.039   8.050 -0.6788 -1.7487 -0.5897
   92SAPS  C219 9021   4.537   1.041   8.195  0.3223 -0.2319  0.3859
   92SAPS  H19R 9022   4.483   1.112   8.261 -0.6086 -0.9903  0.4494
   92SAPS  H19S 9023   4.647   1.057   8.199  0.6792 -2.2562  0.0687
   92SAPS  C220 9024   4.512   0.902   8.258 -0.7244 -0.2580  0.0088
   92SAPS  H20R 9025   4.583   0.830   8.212  1.6593  2.5727 -1.0399
   92SAPS  H20S 9026   4.406   0.874   8.240 -0.2685 -1.0404 -1.6901
   92SAPS  H20T 9027   4.550   0.901   8.363  0.5887 -2.7501 -0.3851
   92SAPS   C33 9028   5.148   1.780   6.911 -0.1736 -0.2953 -0.3468
   92SAPS   H3X 9029   5.042   1.747   6.916 -0.8631  1.9082  0.6622
   92SAPS   H3Y 9030   5.156   1.871   6.848 -0.1008 -0.4475 -0.5584
   92SAPS   C34 9031   5.180   1.827   7.056 -0.5449 -0.0326  0.4583
   92SAPS   H4X 9032   5.125   1.920   7.084 -0.5547  0.0448  0.1884
   92SAPS   H4Y 9033   5.285   1.862   7.051 -0.8099  0.6213 -1.2505
   92SAPS   C35 9034   5.164   1.718   7.167  0.0286 -0.0431  0.2170
   92SAPS   H5X 9035   5.248   1.647   7.153 -0.6443 -1.2747  2.1157
   92SAPS   H5Y 9036   5.067   1.665   7.155  0.4857 -0.5122 -1.7104
   92SAPS   C36 9037   5.167   1.772   7.310 -0.0710 -0.0038 -0.6470
   92SAPS   H6X 9038   5.081   1.843   7.313 -0.6518 -0.7080 -0.1068
   92SAPS   H6Y 9039   5.256   1.835   7.329 -1.6553  2.3105 -0.4523
   92SAPS   C37 9040   5.143   1.669   7.421 -0.0650  0.2916 -1.0140
   92SAPS   H7X 9041   5.160   1.719   7.519 -0.9568 -1.0612 -0.1419
   92SAPS   H7Y 9042   5.228   1.598   7.408 -1.3205 -0.9700 -2.7705
   92SAPS   C38 9043   5.027   1.564   7.395  0.2810 -0.0670  0.1193
   92SAPS   H8X 9044   5.056   1.507   7.304 -0.7642 -0.0998 -0.2137
   92SAPS   H8Y 9045   4.929   1.611   7.368 -0.9279 -2.2715  0.4614
   92SAPS   C39 9046   5.002   1.457   7.510 -0.8651 -0.9422 -0.6172
   92SAPS   H9X 9047   5.095   1.397   7.514  2.0709  3.2189  0.6690
   92SAPS   H9Y 9048   4.920   1.390   7.477 -2.9136  2.6124 -3.5677
   92SAPS  C310 9049   4.976   1.532   7.647 -0.3252  0.0994 -0.1380
   92SAPS  H10X 9050   4.907   1.619   7.650  1.0158  1.2056 -0.5626
   92SAPS  H10Y 9051   5.071   1.574   7.687  0.0706  1.0705 -2.0132
   92SAPS  C311 9052   4.938   1.420   7.754  0.3235 -0.6959 -0.3858
   92SAPS  H11X 9053   5.024   1.357   7.786  1.6640 -0.7239 -3.6235
   92SAPS  H11Y 9054   4.851   1.365   7.711 -1.7599  0.0477  2.5457
   92SAPS  C312 9055   4.889   1.493   7.882 -0.7814  0.1567 -0.0083
   92SAPS  H12X 9056   4.789   1.533   7.852  0.0542 -0.9193 -5.3034
   92SAPS  H12Y 9057   4.955   1.577   7.912 -0.4097  0.4102 -1.4577
   92SAPS  C313 9058   4.876   1.399   8.000 -0.0049 -0.7800 -0.1604
   92SAPS  H13X 9059   4.977   1.353   8.009  0.2603 -0.1050  0.3675
   92SAPS  H13Y 9060   4.798   1.326   7.969  1.2255 -1.3399 -2.1927
   92SAPS  C314 9061   4.840   1.485   8.120 -0.2414 -0.1399 -0.6922
   92SAPS  H14X 9062   4.752   1.550   8.099  0.5289  1.5660  1.1134
   92SAPS  H14Y 9063   4.921   1.558   8.139 -0.5166  0.0972 -0.4270
   92SAPS  C315 9064   4.815   1.407   8.246  1.2482 -0.0476 -0.7352
   92SAPS  H15X 9065   4.909   1.405   8.307  0.5299 -0.7238  0.3837
   92SAPS  H15Y 9066   4.795   1.301   8.218  2.3803 -0.6153  0.4509
   92SAPS  C316 9067   4.713   1.458   8.340 -0.0189 -0.1791 -0.7080
   92SAPS  H16X 9068   4.613   1.474   8.294  0.5876  4.1620 -0.9867
   92SAPS  H16Y 9069   4.748   1.562   8.359 -0.1899  0.0643 -1.6595
   92SAPS  C317 9070   4.689   1.374   8.463  0.6639 -0.4907 -0.2416
   92SAPS  H17X 9071   4.639   1.277   8.445 -0.6490 -0.4741  2.7320
   92SAPS  H17Y 9072   4.622   1.428   8.533  0.1507 -2.9962  1.2879
   92SAPS  C318 9073   4.811   1.352   8.546 -0.4538 -0.0592 -0.5057
   92SAPS  H18X 9074   4.791   1.292   8.638  2.8754  0.1258  0.4499
   92SAPS  H18Y 9075   4.864   1.441   8.586 -1.8894  0.1732  1.0389
   92SAPS  H18Z 9076   4.879   1.283   8.493 -2.4277  0.2792 -3.7121
   93SAPS     N 9077   6.187   5.192   6.353 -0.2963  0.0713 -0.0745
   93SAPS   HN1 9078   6.114   5.196   6.427 -0.8097 -1.2647 -0.4698
   93SAPS   HN2 9079   6.247   5.275   6.369  1.8318 -1.2818 -0.6237
   93SAPS   HN3 9080   6.157   5.197   6.253  2.1986 -0.8506 -0.9418
   93SAPS   C12 9081   6.259   5.059   6.367 -0.1335 -0.4220  0.5111
   93SAPS  H12A 9082   6.295   5.049   6.468  0.4081 -0.5994  0.3053
   93SAPS   C13 9083   6.176   4.930   6.329  0.0994 -0.0982  0.0765
   93SAPS  O13A 9084   6.055   4.935   6.302  0.5399  0.2405 -0.1722
   93SAPS  O13B 9085   6.239   4.819   6.316  0.2214 -0.2869 -0.6900
   93SAPS   C11 9086   6.391   5.052   6.282  0.4466 -0.6720  0.0861
   93SAPS  H11A 9087   6.357   5.078   6.179 -0.0955 -1.3991  0.0693
   93SAPS  H11B 9088   6.439   4.953   6.268  2.9201  0.4917 -0.1839
   93SAPS     P 9089   6.585   5.122   6.446 -0.2011 -0.1007 -0.4810
   93SAPS   O13 9090   6.660   4.990   6.425  0.4043  0.3153 -0.2459
   93SAPS   O14 9091   6.671   5.242   6.455 -0.3769  0.7575  0.7929
   93SAPS   O12 9092   6.481   5.149   6.333  0.2376 -0.0611 -0.2108
   93SAPS   O11 9093   6.503   5.097   6.585  0.1831 -0.0920 -0.2967
   93SAPS    C1 9094   6.464   5.214   6.661 -0.0005 -1.1114  0.0809
   93SAPS    HA 9095   6.446   5.304   6.598  1.0357 -1.1340 -0.2660
   93SAPS    HB 9096   6.376   5.183   6.721 -1.0622 -0.4120 -1.0660
   93SAPS    C2 9097   6.581   5.262   6.755  0.1772 -0.0859 -0.1845
   93SAPS    HS 9098   6.665   5.309   6.700 -2.1767  2.0661 -2.2038
   93SAPS   O21 9099   6.623   5.155   6.847  0.3408 -0.5137  0.4675
   93SAPS   C21 9100   6.757   5.138   6.849  0.1974 -0.8113  0.7357
   93SAPS   O22 9101   6.840   5.172   6.767  0.0081 -0.0977  0.0506
   93SAPS   C22 9102   6.791   5.055   6.980 -0.2020 -0.3504 -0.2537
   93SAPS   H2R 9103   6.728   4.964   6.969  0.7844 -1.0108 -0.5560
   93SAPS   H2S 9104   6.898   5.028   6.966  0.8378  2.6176  1.1350
   93SAPS    C3 9105   6.540   5.387   6.833 -0.5383  0.0329  0.2564
   93SAPS    HX 9106   6.448   5.366   6.891 -0.8177 -1.2177 -0.5847
   93SAPS    HY 9107   6.509   5.462   6.758  2.9538  1.7342  0.3368
   93SAPS   O31 9108   6.636   5.434   6.927 -0.5111 -0.0663 -0.6379
   93SAPS   C31 9109   6.734   5.516   6.875 -0.0281 -0.0093 -0.3900
   93SAPS   O32 9110   6.740   5.546   6.756 -0.2428  0.4890  0.4590
   93SAPS   C32 9111   6.818   5.566   6.999 -0.2757 -0.3779 -0.0139
   93SAPS   H2X 9112   6.914   5.597   6.953 -0.4115 -0.5883 -0.4444
   93SAPS   H2Y 9113   6.829   5.474   7.060 -0.4875 -1.6047 -1.7494
   93SAPS   C23 9114   6.763   5.142   7.104 -0.2794 -0.0949  0.3411
   93SAPS   H3R 9115   6.762   5.252   7.085 -0.1854 -0.3449 -1.2869
   93SAPS   H3S 9116   6.832   5.113   7.186  0.2955  0.3421  0.0155
   93SAPS   C24 9117   6.612   5.124   7.149 -0.1958  0.4304  0.1730
   93SAPS   H4R 9118   6.627   5.014   7.154  0.2741  0.5482  2.4537
   93SAPS   H4S 9119   6.540   5.148   7.068  2.3299  2.1731 -1.7194
   93SAPS   C25 9120   6.549   5.180   7.280 -0.4752  0.5642  0.1320
   93SAPS   H5R 9121   6.500   5.278   7.274 -0.4907  0.4994 -1.1022
   93SAPS   C26 9122   6.550   5.121   7.401  0.3083 -0.1952  0.1211
   93SAPS   H6R 9123   6.503   5.169   7.487  0.7597  0.3970  0.0435
   93SAPS   C27 9124   6.616   4.991   7.436 -0.4437 -0.0277 -0.2555
   93SAPS   H7R 9125   6.726   5.004   7.427 -0.8623  3.6413 -3.0526
   93SAPS   H7S 9126   6.578   4.915   7.364 -0.7103 -0.2352  0.1030
   93SAPS   C28 9127   6.575   4.938   7.576  0.6078 -0.0704  0.2092
   93SAPS   H8R 9128   6.467   4.942   7.593  0.4709 -0.5933 -0.5082
   93SAPS   C29 9129   6.648   4.903   7.683 -0.3861 -0.8323  0.1904
   93SAPS   H9R 9130   6.586   4.882   7.771 -1.8961  0.0320 -0.6250
   93SAPS  C210 9131   6.800   4.901   7.700  0.4232 -0.0483  0.6928
   93SAPS  H10R 9132   6.823   4.995   7.754 -1.2325 -0.8407  2.9201
   93SAPS  H10S 9133   6.835   4.911   7.595 -2.0263 -0.3019 -0.2245
   93SAPS  C211 9134   6.840   4.789   7.791  0.2887  0.4192  0.3361
   93SAPS  H11R 9135   6.868   4.696   7.741 -0.9250  0.3883 -0.3262
   93SAPS  C212 9136   6.843   4.787   7.924 -0.6989 -0.4748  0.0452
   93SAPS  H12R 9137   6.889   4.699   7.972  2.1031  0.8660  0.0468
   93SAPS  C213 9138   6.802   4.905   8.014 -0.4525 -0.3388  0.8725
   93SAPS  H13R 9139   6.810   5.003   7.962 -0.5858 -0.8304 -0.0964
   93SAPS  H13S 9140   6.886   4.915   8.086 -0.6493 -0.3124  1.0954
   93SAPS  C214 9141   6.659   4.901   8.069  0.2686 -0.4397 -0.0064
   93SAPS  H14R 9142   6.582   4.916   7.992  1.0332 -1.0660 -0.9193
   93SAPS  C215 9143   6.633   4.869   8.197 -0.1160  0.3323  0.0280
   93SAPS  H15R 9144   6.526   4.871   8.226  0.4844  1.4092  2.4120
   93SAPS  C216 9145   6.728   4.837   8.317  0.3809 -0.8599  0.2866
   93SAPS  H16R 9146   6.829   4.814   8.277  0.4195  0.0693 -0.1880
   93SAPS  H16S 9147   6.685   4.749   8.369  1.6157 -0.3798  2.2659
   93SAPS  C217 9148   6.732   4.965   8.405  0.1983  0.1301  0.1576
   93SAPS  H17R 9149   6.629   4.994   8.437 -0.4307 -0.4937 -1.1960
   93SAPS  H17S 9150   6.760   5.060   8.353 -0.4160 -0.5464 -1.4870
   93SAPS  C218 9151   6.827   4.948   8.533  0.7386  0.5554 -0.8886
   93SAPS  H18R 9152   6.934   4.966   8.509  1.8629 -3.2918  0.5219
   93SAPS  H18S 9153   6.815   4.841   8.557 -3.7425  1.3816  1.6000
   93SAPS  C219 9154   6.780   5.030   8.651 -0.0724  0.3929 -0.2793
   93SAPS  H19R 9155   6.768   5.137   8.624  0.0694  1.2703  2.7485
   93SAPS  H19S 9156   6.856   5.019   8.731  0.9093  2.4367 -0.8746
   93SAPS  C220 9157   6.652   4.990   8.723  0.3913 -0.0072  0.2951
   93SAPS  H20R 9158   6.664   5.011   8.831 -4.8499  3.4213  0.5482
   93SAPS  H20S 9159   6.640   4.880   8.714 -1.7394  0.3125 -1.8377
   93SAPS  H20T 9160   6.554   5.029   8.689 -0.6687 -2.0439  0.9223
   93SAPS   C33 9161   6.762   5.680   7.090  0.5102  0.7731  1.1689
   93SAPS   H3X 9162   6.655   5.698   7.066  0.5152 -1.4820 -0.8833
   93SAPS   H3Y 9163   6.801   5.767   7.033 -0.6859 -0.4935 -1.8086
   93SAPS   C34 9164   6.812   5.674   7.228  0.0015  0.3658 -0.4028
   93SAPS   H4X 9165   6.805   5.776   7.273  3.2003  2.0956 -3.3272
   93SAPS   H4Y 9166   6.920   5.648   7.229  0.2769  1.1933  2.4338
   93SAPS   C35 9167   6.744   5.573   7.327  0.0664  0.1433  0.3589
   93SAPS   H5X 9168   6.742   5.471   7.282 -0.0602 -0.4260  1.6087
   93SAPS   H5Y 9169   6.637   5.600   7.341  0.1674  0.3854  0.6669
   93SAPS   C36 9170   6.804   5.567   7.461 -0.7744 -0.2397  0.3566
   93SAPS   H6X 9171   6.818   5.669   7.503 -2.1776  0.1606 -0.0730
   93SAPS   H6Y 9172   6.907   5.528   7.451 -1.6528 -2.5853 -0.2628
   93SAPS   C37 9173   6.726   5.472   7.556  0.4124 -0.2502 -0.6920
   93SAPS   H7X 9174   6.678   5.396   7.492 -2.8501  0.8925  0.1767
   93SAPS   H7Y 9175   6.653   5.537   7.610 -1.1462 -1.0582 -1.7484
   93SAPS   C38 9176   6.807   5.403   7.669 -0.1696 -0.6399 -0.3290
   93SAPS   H8X 9177   6.834   5.491   7.732 -1.6208 -0.2563 -0.2152
   93SAPS   H8Y 9178   6.900   5.359   7.627 -1.0292 -2.2835 -0.5797
   93SAPS   C39 9179   6.729   5.302   7.755  0.0791  0.1069  0.4196
   93SAPS   H9X 9180   6.796   5.234   7.811  1.8898  0.6767 -0.9774
   93SAPS   H9Y 9181   6.656   5.245   7.693 -0.1767  1.3356 -0.4535
   93SAPS  C310 9182   6.645   5.363   7.874 -1.0119  0.1866 -0.2091
   93SAPS  H10X 9183   6.556   5.409   7.825 -2.0311  0.0229  1.4118
   93SAPS  H10Y 9184   6.698   5.440   7.934 -2.3979  0.6298  0.5155
   93SAPS  C311 9185   6.597   5.261   7.977 -0.0568  0.2246 -0.2982
   93SAPS  H11X 9186   6.695   5.223   8.013  0.0148  0.7724  0.1046
   93SAPS  H11Y 9187   6.534   5.177   7.941  0.7464 -0.1710 -0.8239
   93SAPS  C312 9188   6.516   5.322   8.089  0.0593  0.3149 -0.7051
   93SAPS  H12X 9189   6.409   5.326   8.057  0.3412 -1.7086 -2.0594
   93SAPS  H12Y 9190   6.564   5.420   8.109  0.7493  0.3135 -2.2833
   93SAPS  C313 9191   6.529   5.238   8.220 -0.7814  0.1048  0.8019
   93SAPS  H13X 9192   6.633   5.208   8.241 -1.0228 -0.6403  0.9616
   93SAPS  H13Y 9193   6.484   5.137   8.209  2.7890 -1.4054 -1.4962
   93SAPS  C314 9194   6.466   5.305   8.341  0.0448 -0.3013 -0.5106
   93SAPS  H14X 9195   6.378   5.361   8.302  0.8495  0.5795 -1.1232
   93SAPS  H14Y 9196   6.540   5.380   8.377  0.3261  0.3587 -2.3405
   93SAPS  C315 9197   6.430   5.207   8.450  0.8912  0.0623 -0.1879
   93SAPS  H15X 9198   6.526   5.174   8.496  0.9362  1.7738  1.0580
   93SAPS  H15Y 9199   6.375   5.120   8.408  0.0482  0.8293 -0.7089
   93SAPS  C316 9200   6.341   5.270   8.556  0.4465 -0.6533  0.3473
   93SAPS  H16X 9201   6.294   5.198   8.628  0.8341 -2.9080 -1.5330
   93SAPS  H16Y 9202   6.253   5.327   8.519  0.5548 -0.6151  0.1522
   93SAPS  C317 9203   6.426   5.367   8.649 -0.2150 -0.0844 -0.3577
   93SAPS  H17X 9204   6.463   5.451   8.587 -0.4010 -1.7684 -2.9247
   93SAPS  H17Y 9205   6.509   5.308   8.694 -0.4049  0.7530  1.1484
   93SAPS  C318 9206   6.339   5.419   8.771 -0.2594  0.6699 -0.6196
   93SAPS  H18X 9207   6.406   5.445   8.855 -0.1457  1.3574 -0.9119
   93SAPS  H18Y 9208   6.266   5.340   8.799 -0.2317  0.6810 -0.5185
   93SAPS  H18Z 9209   6.287   5.513   8.740  0.0037  1.8562  2.2894
   94SAPS     N 9210   6.399   0.169   5.751  0.0501  0.5137  0.0897
   94SAPS   HN1 9211   6.384   0.129   5.846  0.1703 -0.5913 -0.3346
   94SAPS   HN2 9212   6.353   0.095   5.694  2.2290 -0.2692 -0.7696
   94SAPS   HN3 9213   6.501   0.165   5.734 -0.4306 -0.4262 -3.3515
   94SAPS   C12 9214   6.334   0.302   5.726  0.1980 -1.0031  0.3272
   94SAPS  H12A 9215   6.313   0.341   5.825  0.7502 -1.1317  0.4953
   94SAPS   C13 9216   6.419   0.410   5.659 -0.3072  0.3163 -0.1277
   94SAPS  O13A 9217   6.538   0.384   5.624  0.2732 -0.0153 -0.1348
   94SAPS  O13B 9218   6.368   0.515   5.620 -0.2366 -0.4913 -0.5484
   94SAPS   C11 9219   6.197   0.278   5.652  0.4032  0.3999  0.1439
   94SAPS  H11A 9220   6.199   0.243   5.546 -1.3848 -2.2135  0.8947
   94SAPS  H11B 9221   6.154   0.380   5.643 -1.6553 -0.5461 -1.5557
   94SAPS     P 9222   5.993   0.234   5.821 -0.1983  0.5040  0.1533
   94SAPS   O13 9223   5.921   0.350   5.761  0.0790  0.3610  0.4038
   94SAPS   O14 9224   5.911   0.122   5.869 -0.2083  0.2960 -0.1375
   94SAPS   O12 9225   6.115   0.186   5.726 -1.0632  0.3005 -0.5059
   94SAPS   O11 9226   6.063   0.284   5.955 -0.1352 -0.7294 -0.6993
   94SAPS    C1 9227   6.091   0.425   5.969  0.7815  0.2353  0.3412
   94SAPS    HA 9228   6.195   0.449   5.998  0.2282  1.1943  1.6325
   94SAPS    HB 9229   6.079   0.486   5.877 -0.6401  3.0059  2.2109
   94SAPS    C2 9230   6.004   0.491   6.079 -0.4894 -0.3281 -0.2648
   94SAPS    HS 9231   6.012   0.602   6.085 -1.1794 -0.3307  4.3582
   94SAPS   O21 9232   6.044   0.448   6.213 -0.3596  0.0763 -0.4845
   94SAPS   C21 9233   6.167   0.491   6.242  0.2616  0.6203  0.3990
   94SAPS   O22 9234   6.236   0.570   6.179 -0.2993 -0.2328 -0.3825
   94SAPS   C22 9235   6.208   0.416   6.363 -0.8379  0.0998 -0.1786
   94SAPS   H2R 9236   6.121   0.368   6.413  0.2880  0.1833  1.9754
   94SAPS   H2S 9237   6.277   0.337   6.327 -0.8942  0.5152 -1.2331
   94SAPS    C3 9238   5.855   0.464   6.075  0.0725  0.1436  0.1578
   94SAPS    HX 9239   5.833   0.355   6.077 -0.2920  0.2091 -0.1169
   94SAPS    HY 9240   5.831   0.497   5.971 -0.1710  2.5382  0.9103
   94SAPS   O31 9241   5.776   0.534   6.168  0.4768  0.0282 -0.7328
   94SAPS   C31 9242   5.744   0.470   6.284  0.1201 -0.6048  0.2372
   94SAPS   O32 9243   5.748   0.349   6.297 -0.0742  0.5629  0.6589
   94SAPS   C32 9244   5.716   0.574   6.401  0.0384  0.7492 -0.1398
   94SAPS   H2X 9245   5.640   0.522   6.463  0.2228 -1.4028 -1.5946
   94SAPS   H2Y 9246   5.680   0.666   6.351 -0.3250  0.2201 -0.8723
   94SAPS   C23 9247   6.265   0.510   6.471 -0.3624  0.3472  0.3109
   94SAPS   H3R 9248   6.199   0.599   6.480 -0.4911  0.3386 -0.5115
   94SAPS   H3S 9249   6.366   0.535   6.434 -1.0749  1.2122 -1.1248
   94SAPS   C24 9250   6.269   0.447   6.603  0.4978  0.1209  0.0085
   94SAPS   H4R 9251   6.313   0.347   6.583  0.1084  0.4732 -3.0570
   94SAPS   H4S 9252   6.165   0.419   6.627  0.3502 -0.1875 -0.9389
   94SAPS   C25 9253   6.326   0.540   6.702 -0.0350 -0.6034 -0.9557
   94SAPS   H5R 9254   6.265   0.625   6.736  0.9148 -1.1067  2.4613
   94SAPS   C26 9255   6.451   0.532   6.752  0.0628  0.4680 -0.4579
   94SAPS   H6R 9256   6.492   0.608   6.821 -1.2066  0.1920  0.6339
   94SAPS   C27 9257   6.543   0.421   6.731 -0.0822 -0.3336 -0.1231
   94SAPS   H7R 9258   6.481   0.330   6.719  0.1245 -0.2842 -1.7229
   94SAPS   H7S 9259   6.607   0.413   6.822 -0.1477  1.6739  0.1572
   94SAPS   C28 9260   6.634   0.442   6.614 -1.2612  1.0884  0.1790
   94SAPS   H8R 9261   6.602   0.406   6.516  0.0328  2.0136 -0.6158
   94SAPS   C29 9262   6.743   0.521   6.610  0.1422  0.2017 -0.2129
   94SAPS   H9R 9263   6.805   0.525   6.519 -1.7937  0.6219 -1.5858
   94SAPS  C210 9264   6.804   0.613   6.713 -0.4409  0.3344 -0.0525
   94SAPS  H10R 9265   6.727   0.678   6.760  0.7720  0.5473  1.7134
   94SAPS  H10S 9266   6.870   0.682   6.657 -0.8798  1.1425  0.4081
   94SAPS  C211 9267   6.878   0.530   6.814  0.4541 -0.1314  0.0771
   94SAPS  H11R 9268   6.956   0.465   6.773 -0.2237 -0.4968 -0.6732
   94SAPS  C212 9269   6.872   0.543   6.947  0.2618  0.3366 -0.9568
   94SAPS  H12R 9270   6.938   0.485   7.014  1.7055  2.8972 -0.0312
   94SAPS  C213 9271   6.779   0.627   7.024  0.3681 -1.0072  0.3388
   94SAPS  H13R 9272   6.722   0.699   6.962  1.1368 -1.6961 -1.2261
   94SAPS  H13S 9273   6.842   0.690   7.092  1.0900 -1.7155  0.3470
   94SAPS  C214 9274   6.676   0.539   7.099  0.0874  0.2295  0.5656
   94SAPS  H14R 9275   6.593   0.520   7.029  0.4722  2.6316 -0.6616
   94SAPS  C215 9276   6.680   0.495   7.223  0.1791 -0.5646 -0.6410
   94SAPS  H15R 9277   6.598   0.430   7.257 -0.6984  0.4585 -0.7416
   94SAPS  C216 9278   6.787   0.520   7.325  0.4491  0.4236 -0.1970
   94SAPS  H16R 9279   6.868   0.581   7.280  1.3095  0.3246  1.1625
   94SAPS  H16S 9280   6.835   0.424   7.353 -1.6069 -0.5198  0.2716
   94SAPS  C217 9281   6.737   0.578   7.457  0.0248 -0.0407  0.2909
   94SAPS  H17R 9282   6.633   0.555   7.489  0.0915 -0.4373  0.2372
   94SAPS  H17S 9283   6.748   0.686   7.437  2.0726 -0.4941 -1.3945
   94SAPS  C218 9284   6.818   0.551   7.586  0.2466 -0.1633 -0.3176
   94SAPS  H18R 9285   6.919   0.596   7.579 -0.4561  1.7455  0.8193
   94SAPS  H18S 9286   6.836   0.442   7.590  2.8831  0.0819 -2.5333
   94SAPS  C219 9287   6.769   0.610   7.718 -0.3170  0.2121  0.5790
   94SAPS  H19R 9288   6.658   0.606   7.721 -0.5625  1.4281 -2.7580
   94SAPS  H19S 9289   6.778   0.719   7.697 -1.5479 -0.1624 -2.4156
   94SAPS  C220 9290   6.838   0.554   7.842 -1.0904 -0.5995  0.3268
   94SAPS  H20R 9291   6.945   0.582   7.829 -0.7200 -2.5118 -1.3144
   94SAPS  H20S 9292   6.838   0.443   7.845  1.7715 -0.8033 -2.1946
   94SAPS  H20T 9293   6.804   0.599   7.937  1.8910  1.2379  0.6514
   94SAPS   C33 9294   5.837   0.602   6.491  0.3079  0.3343  0.1227
   94SAPS   H3X 9295   5.818   0.700   6.541 -0.1057  0.0706  0.4870
   94SAPS   H3Y 9296   5.926   0.621   6.427  0.9433  1.2985  1.2473
   94SAPS   C34 9297   5.880   0.500   6.589  0.8075 -0.1446  0.0966
   94SAPS   H4X 9298   5.990   0.508   6.587  0.9564 -1.7188 -2.2429
   94SAPS   H4Y 9299   5.860   0.397   6.552 -0.0856  0.0168  0.1065
   94SAPS   C35 9300   5.833   0.525   6.733  0.9298 -0.5308  0.5917
   94SAPS   H5X 9301   5.723   0.541   6.723  1.1354  0.6445 -0.0231
   94SAPS   H5Y 9302   5.863   0.622   6.779  1.5053 -0.7550  0.6871
   94SAPS   C36 9303   5.870   0.414   6.831  0.0039 -0.6670  0.8185
   94SAPS   H6X 9304   5.978   0.388   6.838 -0.3066 -1.7029  2.1537
   94SAPS   H6Y 9305   5.818   0.325   6.790  1.1134 -0.0893 -2.1786
   94SAPS   C37 9306   5.827   0.460   6.976 -0.5236  0.6216  0.1315
   94SAPS   H7X 9307   5.820   0.364   7.031 -0.0849  0.6873  0.2987
   94SAPS   H7Y 9308   5.728   0.510   6.985 -0.2756  1.3194 -0.8967
   94SAPS   C38 9309   5.931   0.542   7.046  0.1693 -0.4178 -0.2338
   94SAPS   H8X 9310   5.926   0.644   7.003 -3.3462 -0.1876  0.3861
   94SAPS   H8Y 9311   6.029   0.492   7.030 -0.2462 -1.1157 -0.6694
   94SAPS   C39 9312   5.900   0.562   7.199  0.1356  0.2029 -0.0636
   94SAPS   H9X 9313   5.796   0.596   7.221  1.0094  1.5290  2.2908
   94SAPS   H9Y 9314   5.976   0.637   7.228  1.0619  0.4815 -2.8575
   94SAPS  C310 9315   5.907   0.445   7.299  0.8120  0.1574 -0.0623
   94SAPS  H10X 9316   5.988   0.374   7.275 -0.9625 -3.1039  2.6682
   94SAPS  H10Y 9317   5.813   0.390   7.279 -1.0286  3.5099 -1.5422
   94SAPS  C311 9318   5.911   0.488   7.445 -0.7163  0.2410  0.0757
   94SAPS  H11X 9319   5.815   0.536   7.472 -0.3711  0.2407  1.3892
   94SAPS  H11Y 9320   5.992   0.563   7.453 -1.2322  0.9183 -0.8898
   94SAPS  C312 9321   5.938   0.376   7.542 -0.0719  0.2243 -0.0792
   94SAPS  H12X 9322   6.021   0.312   7.505  0.9264  0.8964  0.9263
   94SAPS  H12Y 9323   5.846   0.314   7.550  1.1569 -1.5694  1.0496
   94SAPS  C313 9324   5.998   0.427   7.675 -0.4731  0.1621  0.1649
   94SAPS  H13X 9325   5.913   0.479   7.723 -0.1210 -0.3067  1.3252
   94SAPS  H13Y 9326   6.082   0.496   7.651 -0.4015  0.2794  0.7441
   94SAPS  C314 9327   6.059   0.315   7.768  0.1597 -0.5121 -0.4265
   94SAPS  H14X 9328   6.135   0.247   7.723  0.7141  0.1622 -0.5194
   94SAPS  H14Y 9329   5.974   0.248   7.792  0.6277 -0.5521  1.1881
   94SAPS  C315 9330   6.135   0.383   7.885 -0.3955  0.0609 -0.1734
   94SAPS  H15X 9331   6.053   0.446   7.925  0.9055  2.0445 -0.4536
   94SAPS  H15Y 9332   6.208   0.460   7.851 -0.3380 -1.0025 -2.6320
   94SAPS  C316 9333   6.183   0.290   7.994 -0.1384 -0.0667  0.1599
   94SAPS  H16X 9334   6.256   0.224   7.943 -0.5152 -0.3707  0.0016
   94SAPS  H16Y 9335   6.097   0.224   8.022 -0.0116 -0.1879  0.2668
   94SAPS  C317 9336   6.245   0.356   8.121 -0.2747  0.0889 -0.3632
   94SAPS  H17X 9337   6.164   0.417   8.167 -2.2458 -3.2504  0.9702
   94SAPS  H17Y 9338   6.335   0.418   8.104  0.3214 -0.3835  0.9664
   94SAPS  C318 9339   6.294   0.255   8.224 -0.2144  1.6826  0.0364
   94SAPS  H18X 9340   6.280   0.310   8.319  0.0748  2.1562 -0.1923
   94SAPS  H18Y 9341   6.398   0.228   8.198 -0.6780 -0.3290  0.1047
   94SAPS  H18Z 9342   6.239   0.159   8.232  4.3595 -1.0751  1.7955
   95SAPS     N 9343   1.105   4.008   6.675  0.0622 -0.2814  0.0098
   95SAPS   HN1 9344   1.180   4.049   6.733  1.0862  0.0090 -1.4576
   95SAPS   HN2 9345   1.009   4.033   6.707 -0.2253  0.8514 -1.6303
   95SAPS   HN3 9346   1.107   3.905   6.694 -0.4402 -0.2814  0.0818
   95SAPS   C12 9347   1.123   4.032   6.525 -0.0707  0.2977 -0.8367
   95SAPS  H12A 9348   1.043   3.975   6.480 -0.0236 -0.6393  0.2180
   95SAPS   C13 9349   1.119   4.176   6.469  0.1874 -0.2841 -0.1715
   95SAPS  O13A 9350   1.077   4.273   6.545  0.4381 -0.0376 -0.0911
   95SAPS  O13B 9351   1.125   4.198   6.346  0.5813 -0.0451  0.5746
   95SAPS   C11 9352   1.260   3.968   6.476  0.7570 -0.0531 -0.1546
   95SAPS  H11A 9353   1.252   3.967   6.365 -2.0755 -0.5024 -0.0272
   95SAPS  H11B 9354   1.265   3.858   6.494 -1.7107 -0.1548  0.3634
   95SAPS     P 9355   1.523   4.007   6.505 -0.0011 -0.2500  0.3405
   95SAPS   O13 9356   1.529   3.865   6.444  0.6569  0.1263 -0.4839
   95SAPS   O14 9357   1.585   4.115   6.433  0.0274 -0.8626 -0.2550
   95SAPS   O12 9358   1.375   4.044   6.524 -0.0448  0.0467  0.0610
   95SAPS   O11 9359   1.586   4.007   6.647 -0.0701 -0.4214 -0.3798
   95SAPS    C1 9360   1.520   3.943   6.753 -0.0920  0.2689  0.9156
   95SAPS    HA 9361   1.410   3.938   6.740 -0.0212  0.2419  0.2736
   95SAPS    HB 9362   1.546   3.835   6.754 -2.1116 -0.2760 -0.1769
   95SAPS    C2 9363   1.539   4.018   6.885  0.2949 -0.6961  0.7885
   95SAPS    HS 9364   1.467   3.975   6.957  0.9939 -1.6347  0.9302
   95SAPS   O21 9365   1.532   4.160   6.872  0.4685  0.4009 -0.3750
   95SAPS   C21 9366   1.415   4.209   6.837 -0.0548  0.4223 -1.0546
   95SAPS   O22 9367   1.311   4.151   6.831  0.2268 -0.2008  0.3084
   95SAPS   C22 9368   1.439   4.353   6.806 -0.7018 -0.0456  0.3949
   95SAPS   H2R 9369   1.521   4.355   6.730 -1.6248  0.5641 -0.6068
   95SAPS   H2S 9370   1.348   4.403   6.768 -0.0383 -0.2693 -1.6145
   95SAPS    C3 9371   1.684   3.995   6.938  0.2495  0.4047  0.3041
   95SAPS    HX 9372   1.751   4.056   6.874  0.7218 -0.9087 -0.4670
   95SAPS    HY 9373   1.714   3.889   6.926 -1.1385 -0.1824  1.6931
   95SAPS   O31 9374   1.690   4.038   7.079 -0.7418 -0.1378  0.0482
   95SAPS   C31 9375   1.816   4.069   7.111 -0.0134  0.3539  0.2053
   95SAPS   O32 9376   1.915   4.050   7.044  0.5490  0.1894  0.1763
   95SAPS   C32 9377   1.819   4.137   7.250  0.3552 -0.4760  0.5046
   95SAPS   H2X 9378   1.754   4.080   7.319  0.3475  0.4477  1.2829
   95SAPS   H2Y 9379   1.765   4.234   7.257 -0.1198 -0.6508 -0.5595
   95SAPS   C23 9380   1.485   4.427   6.930 -0.0321  0.2061 -0.0810
   95SAPS   H3R 9381   1.560   4.503   6.900 -0.4243  0.4011 -0.5819
   95SAPS   H3S 9382   1.545   4.358   6.992  0.7622  0.7997 -0.1688
   95SAPS   C24 9383   1.368   4.489   6.994 -0.1975 -0.3872 -0.0399
   95SAPS   H4R 9384   1.288   4.414   7.013 -1.5177  1.0044  0.1089
   95SAPS   H4S 9385   1.326   4.561   6.920  0.6519  0.1792  0.0224
   95SAPS   C25 9386   1.399   4.581   7.108  0.3369  0.7308  0.5319
   95SAPS   H5R 9387   1.421   4.683   7.074 -1.5905  0.5815 -1.4190
   95SAPS   C26 9388   1.452   4.533   7.224 -0.2157 -0.5847 -1.0184
   95SAPS   H6R 9389   1.487   4.612   7.293 -2.3663  0.1606 -0.7103
   95SAPS   C27 9390   1.478   4.389   7.274  0.3017 -0.3411  0.6020
   95SAPS   H7R 9391   1.589   4.377   7.271  0.1661 -1.4403 -0.5524
   95SAPS   H7S 9392   1.436   4.318   7.200  1.6083 -0.2755 -0.2345
   95SAPS   C28 9393   1.421   4.356   7.416 -0.5127 -0.8644 -0.4551
   95SAPS   H8R 9394   1.351   4.271   7.421 -2.3742  0.5609 -1.3352
   95SAPS   C29 9395   1.472   4.411   7.525  0.2085 -0.4290 -0.8938
   95SAPS   H9R 9396   1.425   4.385   7.622 -0.4051  0.9270 -0.8064
   95SAPS  C210 9397   1.571   4.519   7.532 -0.0204  0.1551  0.0323
   95SAPS  H10R 9398   1.504   4.603   7.560  1.0889  1.2224 -0.4089
   95SAPS  H10S 9399   1.625   4.546   7.439 -1.5937 -0.7512 -1.1767
   95SAPS  C211 9400   1.672   4.496   7.643  0.3646 -0.8037 -0.0923
   95SAPS  H11R 9401   1.765   4.448   7.608  1.2892  0.9011 -0.1214
   95SAPS  C212 9402   1.678   4.536   7.769  0.0173  0.2701 -0.2381
   95SAPS  H12R 9403   1.747   4.487   7.840 -0.4685  2.1732  1.6807
   95SAPS  C213 9404   1.576   4.622   7.830 -0.3658  0.3266 -0.4843
   95SAPS  H13R 9405   1.517   4.673   7.751 -1.3099 -1.6590 -1.1009
   95SAPS  H13S 9406   1.629   4.706   7.880 -0.5952  0.2738 -0.1551
   95SAPS  C214 9407   1.479   4.562   7.930 -1.4104  0.2529 -0.6070
   95SAPS  H14R 9408   1.384   4.534   7.882 -1.4646 -1.5691  0.4661
   95SAPS  C215 9409   1.501   4.538   8.057  0.1073  0.0090 -0.4112
   95SAPS  H15R 9410   1.424   4.492   8.120  2.1448 -2.3327  0.5282
   95SAPS  C216 9411   1.638   4.548   8.125  0.3030 -0.6028 -0.6868
   95SAPS  H16R 9412   1.620   4.593   8.225 -0.3959  1.3497 -1.6333
   95SAPS  H16S 9413   1.709   4.622   8.081 -0.1000  1.2313  1.5628
   95SAPS  C217 9414   1.701   4.414   8.143 -0.3866 -0.1153 -0.6606
   95SAPS  H17R 9415   1.738   4.391   8.041 -0.4231  0.2072 -0.7467
   95SAPS  H17S 9416   1.627   4.334   8.169 -0.0593 -0.4240 -0.6735
   95SAPS  C218 9417   1.819   4.412   8.241  0.8213  0.3918 -0.5071
   95SAPS  H18R 9418   1.904   4.472   8.203  0.5397  0.7168 -0.6188
   95SAPS  H18S 9419   1.852   4.306   8.240 -0.7590 -0.1243 -1.4979
   95SAPS  C219 9420   1.781   4.456   8.385  0.5219 -0.4970 -0.4594
   95SAPS  H19R 9421   1.679   4.418   8.406  0.7508 -1.0650 -0.3478
   95SAPS  H19S 9422   1.787   4.566   8.398 -0.1137 -0.5356  0.2594
   95SAPS  C220 9423   1.879   4.383   8.482 -0.6256 -0.0402 -0.2223
   95SAPS  H20R 9424   1.986   4.409   8.469 -0.1571 -2.0296 -0.6321
   95SAPS  H20S 9425   1.868   4.277   8.453 -1.2000 -0.5802  1.7887
   95SAPS  H20T 9426   1.849   4.400   8.588 -0.0342  0.1329 -0.0781
   95SAPS   C33 9427   1.960   4.153   7.303 -0.4495  0.0323  0.1197
   95SAPS   H3X 9428   2.023   4.225   7.246  2.1444  0.9118  3.7112
   95SAPS   H3Y 9429   2.028   4.066   7.312  2.8843  2.5130  0.8599
   95SAPS   C34 9430   1.954   4.209   7.444 -0.2691  0.0898 -0.4510
   95SAPS   H4X 9431   1.915   4.129   7.512  0.3434  1.1294  1.1789
   95SAPS   H4Y 9432   1.885   4.296   7.454  0.0540  0.6523 -2.6756
   95SAPS   C35 9433   2.093   4.239   7.498  0.4867 -0.2141  0.6201
   95SAPS   H5X 9434   2.118   4.347   7.488 -0.0276 -0.2377 -1.2312
   95SAPS   H5Y 9435   2.164   4.181   7.436 -0.5407 -0.0018 -0.8149
   95SAPS   C36 9436   2.100   4.210   7.647  0.2624  0.3067  0.5989
   95SAPS   H6X 9437   2.206   4.186   7.670  0.5000 -1.6889 -2.0977
   95SAPS   H6Y 9438   2.065   4.108   7.676  1.5475 -0.4326 -0.3405
   95SAPS   C37 9439   2.038   4.314   7.743  0.1850  0.2492  0.9881
   95SAPS   H7X 9440   1.970   4.270   7.819 -0.0888  3.1273  2.5456
   95SAPS   H7Y 9441   1.971   4.381   7.684 -0.3501 -0.4515  0.7807
   95SAPS   C38 9442   2.148   4.397   7.810  0.9892  0.0534  0.4370
   95SAPS   H8X 9443   2.108   4.498   7.835 -0.7471 -0.2764 -0.8254
   95SAPS   H8Y 9444   2.217   4.417   7.726 -1.4092 -0.7117 -1.8722
   95SAPS   C39 9445   2.201   4.332   7.934  0.5728 -0.2770  0.2635
   95SAPS   H9X 9446   2.203   4.222   7.916  0.4385 -0.0983 -0.9598
   95SAPS   H9Y 9447   2.142   4.365   8.022  0.4094  3.2537 -1.0117
   95SAPS  C310 9448   2.347   4.377   7.961  0.2408  0.3963  0.5755
   95SAPS  H10X 9449   2.329   4.485   7.938  1.1399  0.3697 -0.3246
   95SAPS  H10Y 9450   2.403   4.328   7.878 -1.0200  0.7468 -0.5333
   95SAPS  C311 9451   2.406   4.350   8.100  1.1299 -0.7919  0.3009
   95SAPS  H11X 9452   2.352   4.424   8.163 -1.0688  0.9243 -3.2972
   95SAPS  H11Y 9453   2.515   4.370   8.109  0.8548  0.4707  0.9815
   95SAPS  C312 9454   2.388   4.206   8.146  0.0021  0.1114  0.0569
   95SAPS  H12X 9455   2.421   4.148   8.058 -0.2956 -2.0997  1.3471
   95SAPS  H12Y 9456   2.279   4.195   8.166 -0.0726  1.6599  0.7230
   95SAPS  C313 9457   2.473   4.178   8.270  0.5718 -0.2169  0.7692
   95SAPS  H13X 9458   2.448   4.264   8.337 -2.6596 -0.5500  0.1846
   95SAPS  H13Y 9459   2.583   4.168   8.265  0.5877 -1.6425  2.6917
   95SAPS  C314 9460   2.439   4.040   8.344  0.3723  0.1257 -0.3398
   95SAPS  H14X 9461   2.533   4.015   8.398 -0.0343  1.9636  1.3594
   95SAPS  H14Y 9462   2.442   3.965   8.262  2.7139 -1.4621  1.0820
   95SAPS  C315 9463   2.303   4.029   8.413 -0.2643  0.8174 -0.1906
   95SAPS  H15X 9464   2.307   3.930   8.462 -1.4931 -0.5606 -2.6723
   95SAPS  H15Y 9465   2.222   4.021   8.337 -0.4464  0.6678  0.0193
   95SAPS  C316 9466   2.267   4.139   8.515 -0.3768 -0.3622  0.2252
   95SAPS  H16X 9467   2.262   4.230   8.451  1.5512 -0.1639  0.3089
   95SAPS  H16Y 9468   2.353   4.152   8.585  0.1986  0.2163 -0.5772
   95SAPS  C317 9469   2.143   4.125   8.605  0.4915  0.4290  0.3921
   95SAPS  H17X 9470   2.156   4.034   8.667  0.5325  0.1755  0.0166
   95SAPS  H17Y 9471   2.057   4.121   8.535 -0.0526  1.4749  0.9836
   95SAPS  C318 9472   2.108   4.246   8.699 -0.3886  0.0677  0.8031
   95SAPS  H18X 9473   2.115   4.344   8.647  0.2393  0.3821  1.4742
   95SAPS  H18Y 9474   2.181   4.252   8.782 -1.5251 -0.0729  1.8321
   95SAPS  H18Z 9475   2.005   4.231   8.738 -1.4524  2.5074 -0.8086
   96SAPS     N 9476   4.213   4.273   6.198  0.0257 -0.3245  0.3382
   96SAPS   HN1 9477   4.286   4.347   6.203  1.4604 -1.7472  1.0890
   96SAPS   HN2 9478   4.221   4.212   6.281  2.1219  0.3287  0.6760
   96SAPS   HN3 9479   4.232   4.217   6.112 -1.9267 -0.3408 -0.1248
   96SAPS   C12 9480   4.078   4.330   6.186  0.7808 -0.5556  0.3962
   96SAPS  H12A 9481   4.097   4.402   6.108  2.2576 -0.5220  0.7678
   96SAPS   C13 9482   3.963   4.234   6.141 -1.1566 -0.2713 -0.0705
   96SAPS  O13A 9483   3.995   4.114   6.102 -0.2015 -0.5537  0.4932
   96SAPS  O13B 9484   3.857   4.293   6.110  0.2670 -0.7920  0.1131
   96SAPS   C11 9485   4.045   4.403   6.326  0.0812 -0.4997 -0.1451
   96SAPS  H11A 9486   4.028   4.323   6.400  2.1986  1.2653  2.4182
   96SAPS  H11B 9487   3.946   4.453   6.322  1.1202  1.6213 -2.0754
   96SAPS     P 9488   4.129   4.597   6.482 -0.0084  0.0543  0.5604
   96SAPS   O13 9489   4.259   4.653   6.512 -0.0316  0.0135  0.2991
   96SAPS   O14 9490   4.026   4.695   6.436 -0.6714  0.2736  0.3699
   96SAPS   O12 9491   4.150   4.487   6.371 -0.5446  0.0794  0.1714
   96SAPS   O11 9492   4.076   4.509   6.603  0.2527 -0.2653  0.5749
   96SAPS    C1 9493   3.935   4.497   6.630 -0.0239 -0.4880  0.1425
   96SAPS    HA 9494   3.879   4.493   6.534 -3.7752 -0.5443  2.1202
   96SAPS    HB 9495   3.913   4.411   6.697 -2.1785 -0.2569 -0.1995
   96SAPS    C2 9496   3.863   4.615   6.707 -0.2164  0.2428 -0.1412
   96SAPS    HS 9497   3.829   4.693   6.636 -0.0500  1.2566  0.8576
   96SAPS   O21 9498   3.955   4.667   6.813 -0.5083  0.3959 -0.0063
   96SAPS   C21 9499   3.949   4.791   6.832  0.1303 -0.2616  0.2854
   96SAPS   O22 9500   3.888   4.878   6.770 -0.0223 -0.0252 -0.1983
   96SAPS   C22 9501   4.027   4.828   6.955 -0.1512  0.3716  0.3183
   96SAPS   H2R 9502   4.032   4.748   7.032  0.0746  0.1299  0.0553
   96SAPS   H2S 9503   4.134   4.838   6.925 -0.5524  1.6765 -0.7614
   96SAPS    C3 9504   3.729   4.569   6.779 -0.1343  0.1882  1.1104
   96SAPS    HX 9505   3.666   4.547   6.690  2.5230  1.0344 -1.1287
   96SAPS    HY 9506   3.687   4.660   6.827  1.1858  1.8317 -0.6816
   96SAPS   O31 9507   3.739   4.461   6.868 -0.5325 -0.1840  0.1218
   96SAPS   C31 9508   3.760   4.497   6.998  0.2100  0.0623  0.6096
   96SAPS   O32 9509   3.771   4.607   7.049  0.0845 -0.2132  0.1045
   96SAPS   C32 9510   3.767   4.369   7.073 -0.3246 -0.6524 -0.3221
   96SAPS   H2X 9511   3.856   4.317   7.031 -0.7647 -1.5073 -0.2235
   96SAPS   H2Y 9512   3.675   4.307   7.068 -0.5001 -0.3157 -1.7370
   96SAPS   C23 9513   4.005   4.957   7.040  0.5689  0.0072 -0.3187
   96SAPS   H3R 9514   3.899   4.958   7.073  0.4315  2.5741 -0.6148
   96SAPS   H3S 9515   4.010   5.044   6.970  0.3553  2.3898  2.4696
   96SAPS   C24 9516   4.108   4.978   7.150 -0.8820  0.1371  0.2149
   96SAPS   H4R 9517   4.125   5.082   7.184  0.3791  0.3445 -0.9737
   96SAPS   H4S 9518   4.198   4.965   7.087 -1.4706  0.5889 -0.7519
   96SAPS   C25 9519   4.098   4.877   7.258  0.0695  0.0133  0.0956
   96SAPS   H5R 9520   4.000   4.827   7.266 -0.3207  0.7362 -0.1265
   96SAPS   C26 9521   4.196   4.844   7.340 -0.2704 -0.0357 -0.4040
   96SAPS   H6R 9522   4.184   4.756   7.404 -0.7293 -0.4875 -1.0995
   96SAPS   C27 9523   4.324   4.920   7.352  0.1436  0.6636  0.2785
   96SAPS   H7R 9524   4.350   4.975   7.259 -3.8693  3.6153  0.6263
   96SAPS   H7S 9525   4.410   4.854   7.375  1.1608  1.4325 -1.1744
   96SAPS   C28 9526   4.318   5.032   7.460 -0.2458  0.2025 -0.2306
   96SAPS   H8R 9527   4.306   5.131   7.412  1.9603 -0.3732 -2.1370
   96SAPS   C29 9528   4.313   5.019   7.594 -1.1096  0.4911 -0.2779
   96SAPS   H9R 9529   4.304   5.107   7.659  1.0402  0.1286  0.6004
   96SAPS  C210 9530   4.337   4.894   7.674 -0.2348 -0.0442  0.4603
   96SAPS  H10R 9531   4.434   4.914   7.725  0.4803 -0.6725 -0.6178
   96SAPS  H10S 9532   4.359   4.818   7.596 -1.8197  1.2173 -1.2911
   96SAPS  C211 9533   4.228   4.862   7.772  0.1031 -0.6718  0.2432
   96SAPS  H11R 9534   4.131   4.835   7.728 -0.6917  1.4404  0.5755
   96SAPS  C212 9535   4.239   4.856   7.903 -0.3445  0.9959 -0.7073
   96SAPS  H12R 9536   4.144   4.839   7.954 -0.5586  1.1415 -1.0545
   96SAPS  C213 9537   4.361   4.886   7.989  0.3940  0.5912  0.3447
   96SAPS  H13R 9538   4.388   4.994   7.987 -0.2973  0.7599 -0.4346
   96SAPS  H13S 9539   4.452   4.841   7.945  1.9824  3.3885  0.5722
   96SAPS  C214 9540   4.340   4.835   8.131  0.4492 -0.6505  0.3008
   96SAPS  H14R 9541   4.252   4.770   8.147 -1.4649  1.4091 -1.2678
   96SAPS  C215 9542   4.406   4.879   8.236 -0.3420  0.0135 -0.2626
   96SAPS  H15R 9543   4.390   4.834   8.335 -0.7901  0.7222 -0.0034
   96SAPS  C216 9544   4.526   4.977   8.225  1.0571 -0.5335 -0.2544
   96SAPS  H16R 9545   4.555   4.982   8.117  1.2446  1.6363 -0.1334
   96SAPS  H16S 9546   4.616   4.936   8.277 -1.0364 -2.2487  2.2272
   96SAPS  C217 9547   4.478   5.116   8.270 -0.3476 -0.0193  0.6550
   96SAPS  H17R 9548   4.411   5.137   8.184  1.9033  1.2287 -0.9097
   96SAPS  H17S 9549   4.562   5.188   8.257 -0.3723 -0.3347 -1.9061
   96SAPS  C218 9550   4.399   5.133   8.398 -0.1016  0.4498  0.1603
   96SAPS  H18R 9551   4.461   5.105   8.486  1.1555 -0.9175 -1.0987
   96SAPS  H18S 9552   4.311   5.066   8.397  0.6754 -0.6980  1.9298
   96SAPS  C219 9553   4.375   5.280   8.425  0.5505  0.3218  0.2825
   96SAPS  H19R 9554   4.363   5.349   8.339 -0.4847  1.3993  1.2553
   96SAPS  H19S 9555   4.472   5.301   8.474  0.5284 -2.2082  1.5829
   96SAPS  C220 9556   4.265   5.307   8.536  0.5898  0.1200  0.0955
   96SAPS  H20R 9557   4.274   5.416   8.558  1.3004  0.1999 -0.5321
   96SAPS  H20S 9558   4.285   5.250   8.629  1.2593 -2.2151 -1.3978
   96SAPS  H20T 9559   4.166   5.273   8.500  0.6691  1.8680 -1.9960
   96SAPS   C33 9560   3.808   4.389   7.219 -0.7190 -0.2699 -0.2221
   96SAPS   H3X 9561   3.890   4.464   7.222  1.2310 -2.3240  0.8586
   96SAPS   H3Y 9562   3.844   4.289   7.249 -0.2814  0.3458  1.4507
   96SAPS   C34 9563   3.690   4.426   7.315 -0.7116 -0.0721  0.7634
   96SAPS   H4X 9564   3.598   4.364   7.302 -0.2388 -1.4178  3.2882
   96SAPS   H4Y 9565   3.678   4.535   7.294  0.9368 -0.1178 -0.6074
   96SAPS   C35 9566   3.724   4.412   7.465 -0.2393  0.2316  0.2173
   96SAPS   H5X 9567   3.743   4.303   7.467 -1.4997 -0.0464 -1.1683
   96SAPS   H5Y 9568   3.636   4.439   7.527 -0.5167  0.8767 -0.4343
   96SAPS   C36 9569   3.851   4.490   7.510  0.3520 -0.4412 -0.3635
   96SAPS   H6X 9570   3.837   4.598   7.492  3.0278 -0.1324 -0.8937
   96SAPS   H6Y 9571   3.934   4.449   7.449 -1.2875 -3.8209 -0.6205
   96SAPS   C37 9572   3.871   4.459   7.664 -0.4069 -0.3747  0.6865
   96SAPS   H7X 9573   3.880   4.349   7.681 -1.8129 -0.8292 -1.1371
   96SAPS   H7Y 9574   3.778   4.501   7.708  0.2260  3.9357 -1.5310
   96SAPS   C38 9575   3.991   4.532   7.728 -0.0742  0.7948  0.3058
   96SAPS   H8X 9576   3.974   4.642   7.730  0.9858  0.9855  2.6171
   96SAPS   H8Y 9577   4.078   4.518   7.661 -1.2548  0.0948 -1.1175
   96SAPS   C39 9578   4.003   4.492   7.874 -0.1162  0.4540 -0.6978
   96SAPS   H9X 9579   4.078   4.555   7.925 -1.5347  1.9537 -0.3647
   96SAPS   H9Y 9580   4.036   4.386   7.879  0.2776  0.6378  2.4222
   96SAPS  C310 9581   3.875   4.505   7.955  0.5887 -0.9088 -0.0727
   96SAPS  H10X 9582   3.801   4.425   7.929  1.0902 -1.9964  1.6267
   96SAPS  H10Y 9583   3.833   4.603   7.926  0.3249 -0.8027  0.6472
   96SAPS  C311 9584   3.896   4.497   8.103  0.4711 -0.6070 -0.1471
   96SAPS  H11X 9585   3.805   4.551   8.137 -1.2614 -3.6718  0.3870
   96SAPS  H11Y 9586   3.981   4.558   8.143  0.4490 -2.5184  3.2439
   96SAPS  C312 9587   3.905   4.351   8.157  0.8351  0.6450 -0.5375
   96SAPS  H12X 9588   3.988   4.302   8.101  3.0664  0.9424  2.2629
   96SAPS  H12Y 9589   3.803   4.312   8.140 -0.0148  1.0885  2.9081
   96SAPS  C313 9590   3.929   4.329   8.308  0.7404 -0.1286  0.2545
   96SAPS  H13X 9591   3.950   4.221   8.322 -1.7022 -0.7991 -0.8242
   96SAPS  H13Y 9592   3.842   4.344   8.375  0.7722 -0.4364  0.3634
   96SAPS  C314 9593   4.055   4.391   8.369 -0.7958 -0.0884  0.4206
   96SAPS  H14X 9594   4.084   4.483   8.313 -0.7885 -0.1738  0.2824
   96SAPS  H14Y 9595   4.136   4.316   8.353 -0.4586 -0.0428  1.7826
   96SAPS  C315 9596   4.046   4.434   8.514  0.1439 -0.3535 -0.0846
   96SAPS  H15X 9597   4.019   4.343   8.573  0.1575 -0.1094  0.2989
   96SAPS  H15Y 9598   3.969   4.514   8.515  0.3770 -0.0640 -1.9551
   96SAPS  C316 9599   4.178   4.477   8.570 -0.4891  0.5977 -0.1682
   96SAPS  H16X 9600   4.232   4.387   8.606 -0.0812  1.3261  1.0769
   96SAPS  H16Y 9601   4.170   4.538   8.662  0.7139 -1.9940  1.7858
   96SAPS  C317 9602   4.275   4.549   8.476  0.6682  0.1050  0.2686
   96SAPS  H17X 9603   4.220   4.636   8.432 -0.5591 -0.4290  0.7173
   96SAPS  H17Y 9604   4.299   4.498   8.380 -1.6764  1.3569 -1.0749
   96SAPS  C318 9605   4.409   4.591   8.539  0.7229 -0.6886  0.2968
   96SAPS  H18X 9606   4.385   4.682   8.599  1.4214  0.7150 -1.4533
   96SAPS  H18Y 9607   4.484   4.620   8.462 -0.2580 -2.4699 -1.3875
   96SAPS  H18Z 9608   4.451   4.505   8.596  0.6424  0.0140  1.4542
   97SAPS     N 9609   4.950   3.398   6.196 -0.0794  0.5213 -0.5375
   97SAPS   HN1 9610   5.032   3.362   6.250 -1.1242  0.2048  0.8914
   97SAPS   HN2 9611   4.962   3.385   6.093 -1.1716  0.0677 -0.6169
   97SAPS   HN3 9612   4.950   3.498   6.225  3.2353  0.4900 -0.0646
   97SAPS   C12 9613   4.823   3.331   6.242  0.3722 -0.2073  0.5687
   97SAPS  H12A 9614   4.782   3.364   6.337 -1.1645 -1.5715  0.4338
   97SAPS   C13 9615   4.702   3.339   6.145 -0.1011  0.7655  0.3621
   97SAPS  O13A 9616   4.732   3.351   6.021 -0.4609  0.0558 -0.6520
   97SAPS  O13B 9617   4.586   3.307   6.182  1.0753 -0.4606  0.1407
   97SAPS   C11 9618   4.860   3.188   6.256  0.6218 -0.2555  0.5202
   97SAPS  H11A 9619   4.889   3.145   6.158 -0.7240 -0.6346  0.2701
   97SAPS  H11B 9620   4.768   3.141   6.298  1.5060 -1.2748  1.3992
   97SAPS     P 9621   5.016   3.040   6.389  0.3545  0.2112 -0.5294
   97SAPS   O13 9622   5.000   2.953   6.273  0.3534  0.1451  0.2745
   97SAPS   O14 9623   5.152   3.044   6.456 -0.4379  0.2359  0.6118
   97SAPS   O12 9624   4.967   3.187   6.348  0.2496  0.1612 -0.2748
   97SAPS   O11 9625   4.905   2.998   6.502  0.2617  0.7671 -0.3401
   97SAPS    C1 9626   4.849   3.081   6.596 -0.8088 -0.1907 -0.7125
   97SAPS    HA 9627   4.841   3.186   6.559 -0.1738  0.4501  0.8487
   97SAPS    HB 9628   4.743   3.049   6.607 -0.3271 -1.9586 -1.0097
   97SAPS    C2 9629   4.946   3.083   6.723 -0.8292  0.3011 -0.1870
   97SAPS    HS 9630   5.038   3.136   6.690 -0.5294 -0.6557 -0.9196
   97SAPS   O21 9631   4.965   2.945   6.767  0.0543 -0.1364  0.1251
   97SAPS   C21 9632   5.072   2.927   6.850  0.6144 -0.5119 -0.8773
   97SAPS   O22 9633   5.151   3.018   6.880  0.6020 -0.1988  0.0387
   97SAPS   C22 9634   5.084   2.780   6.904  0.0914  0.2857 -0.0856
   97SAPS   H2R 9635   4.990   2.767   6.962 -0.1446 -2.5749 -0.9780
   97SAPS   H2S 9636   5.070   2.722   6.810  1.1275 -0.7133  0.3548
   97SAPS    C3 9637   4.874   3.173   6.828 -0.0999  0.0159  0.2263
   97SAPS    HX 9638   4.873   3.280   6.797 -0.0099 -0.3813 -1.1759
   97SAPS    HY 9639   4.935   3.171   6.921 -2.0552  1.5428  1.6305
   97SAPS   O31 9640   4.741   3.133   6.849  0.7997  0.1166 -0.0789
   97SAPS   C31 9641   4.722   3.040   6.942  0.2291 -0.6015 -0.6109
   97SAPS   O32 9642   4.811   2.978   6.994 -0.5269 -0.5800 -0.7727
   97SAPS   C32 9643   4.583   3.044   6.986  0.5792 -0.5825 -0.0804
   97SAPS   H2X 9644   4.527   3.080   6.897 -0.1448 -3.5833 -0.9431
   97SAPS   H2Y 9645   4.571   3.120   7.066 -0.1848 -0.1632 -0.5860
   97SAPS   C23 9646   5.217   2.753   6.982  0.0504 -1.1401  0.5669
   97SAPS   H3R 9647   5.317   2.779   6.941 -0.1777 -1.1227  0.0044
   97SAPS   H3S 9648   5.227   2.642   6.976 -0.3729 -1.1446 -0.2577
   97SAPS   C24 9649   5.215   2.771   7.136  0.4370 -0.1918 -0.1387
   97SAPS   H4R 9650   5.295   2.708   7.182  0.3729 -0.8798 -0.9425
   97SAPS   H4S 9651   5.127   2.721   7.180 -0.5747  1.7217  0.1166
   97SAPS   C25 9652   5.219   2.922   7.177 -0.2675  0.7627  0.6518
   97SAPS   H5R 9653   5.256   2.987   7.096  0.5764 -1.6189 -0.9946
   97SAPS   C26 9654   5.207   2.967   7.298 -0.0438 -0.4620 -0.0209
   97SAPS   H6R 9655   5.212   3.075   7.317 -0.9622 -0.3902 -0.1694
   97SAPS   C27 9656   5.202   2.882   7.426  0.7711 -0.4593 -0.3424
   97SAPS   H7R 9657   5.213   2.773   7.414 -0.7830 -0.7467  0.6053
   97SAPS   H7S 9658   5.108   2.903   7.482  1.8253 -0.0079  1.3478
   97SAPS   C28 9659   5.311   2.935   7.510 -0.2083 -0.3051 -0.6379
   97SAPS   H8R 9660   5.412   2.939   7.467  0.1828  0.1191  0.2985
   97SAPS   C29 9661   5.310   2.963   7.637  0.2883  0.1577 -0.2579
   97SAPS   H9R 9662   5.403   3.009   7.673 -0.1633  1.8636 -1.1900
   97SAPS  C210 9663   5.188   2.962   7.733 -0.4922  0.1422 -0.4822
   97SAPS  H10R 9664   5.166   2.858   7.764 -0.8406 -0.4202 -2.4975
   97SAPS  H10S 9665   5.093   2.994   7.686  0.6628  2.4666 -1.4252
   97SAPS  C211 9666   5.215   3.043   7.858  0.3970 -0.4041  0.2451
   97SAPS  H11R 9667   5.198   2.977   7.945 -0.5468 -1.3613 -0.6355
   97SAPS  C212 9668   5.233   3.180   7.871 -0.5098 -0.0712  0.1167
   97SAPS  H12R 9669   5.246   3.214   7.975 -1.1030  1.8264 -0.3955
   97SAPS  C213 9670   5.248   3.277   7.760 -0.1050 -0.0748  0.5625
   97SAPS  H13R 9671   5.309   3.234   7.677 -1.9985 -0.7720 -0.5221
   97SAPS  H13S 9672   5.308   3.361   7.802 -1.6423  1.3300  0.0340
   97SAPS  C214 9673   5.111   3.312   7.704  0.1200 -0.3438  0.3861
   97SAPS  H14R 9674   5.044   3.229   7.675  0.8664  0.0560 -2.8454
   97SAPS  C215 9675   5.082   3.436   7.653  0.3945  0.0254 -0.1565
   97SAPS  H15R 9676   4.985   3.462   7.607  1.6513  2.7803 -1.5219
   97SAPS  C216 9677   5.173   3.554   7.657 -0.1622  0.7845  0.4712
   97SAPS  H16R 9678   5.275   3.515   7.636 -0.6636 -1.3095  1.6291
   97SAPS  H16S 9679   5.181   3.594   7.761 -0.1092  1.0506  0.3640
   97SAPS  C217 9680   5.154   3.666   7.559 -0.0474 -0.7462  0.4119
   97SAPS  H17R 9681   5.235   3.739   7.583 -2.7685  3.6254 -2.3252
   97SAPS  H17S 9682   5.057   3.715   7.583 -0.6760 -0.8692 -1.6316
   97SAPS  C218 9683   5.160   3.631   7.406 -1.5671 -0.1227 -0.2896
   97SAPS  H18R 9684   5.109   3.534   7.385 -0.0403 -0.9454 -0.4147
   97SAPS  H18S 9685   5.266   3.601   7.389 -0.4845  0.2260  4.4683
   97SAPS  C219 9686   5.120   3.747   7.309 -0.2784  0.0080  0.2694
   97SAPS  H19R 9687   5.027   3.787   7.355 -0.8116 -2.2384  1.3084
   97SAPS  H19S 9688   5.096   3.707   7.208 -0.8837  1.5610 -0.2201
   97SAPS  C220 9689   5.229   3.850   7.314 -0.9282 -0.2428  0.1026
   97SAPS  H20R 9690   5.218   3.931   7.238 -0.7508 -0.9188 -0.6599
   97SAPS  H20S 9691   5.321   3.793   7.288 -1.4344 -0.6078 -0.9468
   97SAPS  H20T 9692   5.239   3.900   7.413  0.1818 -1.2656  0.5367
   97SAPS   C33 9693   4.529   2.906   7.036  0.2035 -0.6196 -0.0838
   97SAPS   H3X 9694   4.558   2.885   7.141 -3.5298  1.3582  1.5401
   97SAPS   H3Y 9695   4.559   2.817   6.976 -0.8507 -2.0643  1.4151
   97SAPS   C34 9696   4.371   2.898   7.018  0.3828  0.2555 -0.4956
   97SAPS   H4X 9697   4.337   2.794   7.037 -3.2539  1.4239  0.1491
   97SAPS   H4Y 9698   4.358   2.919   6.910  0.9336 -1.0741 -0.8425
   97SAPS   C35 9699   4.285   2.988   7.098 -0.1492 -0.1022  0.0496
   97SAPS   H5X 9700   4.180   2.952   7.105  0.5879 -2.1732  1.6544
   97SAPS   H5Y 9701   4.285   3.085   7.045  0.0715  0.3940  0.9244
   97SAPS   C36 9702   4.322   3.003   7.247  0.0013  0.0940 -0.5249
   97SAPS   H6X 9703   4.426   3.036   7.269 -0.1479  0.3390 -0.1761
   97SAPS   H6Y 9704   4.309   2.905   7.298  3.2214  2.2456  5.3405
   97SAPS   C37 9705   4.216   3.094   7.307 -0.3613  0.2132  0.4092
   97SAPS   H7X 9706   4.111   3.065   7.282  0.5034 -1.9018 -1.0542
   97SAPS   H7Y 9707   4.231   3.191   7.256 -1.2875 -0.2802 -0.8428
   97SAPS   C38 9708   4.226   3.116   7.459  0.3925  0.7045  0.0602
   97SAPS   H8X 9709   4.225   3.013   7.502  1.7785  1.6671  2.6237
   97SAPS   H8Y 9710   4.141   3.178   7.493 -1.9949 -1.7023 -1.1294
   97SAPS   C39 9711   4.359   3.181   7.508 -0.4046  0.2151 -0.3808
   97SAPS   H9X 9712   4.403   3.254   7.437 -0.6942 -0.0560 -0.8390
   97SAPS   H9Y 9713   4.425   3.092   7.511 -3.2376 -2.0804 -1.4785
   97SAPS  C310 9714   4.358   3.238   7.654 -0.4939  0.1708 -0.2747
   97SAPS  H10X 9715   4.271   3.306   7.662  0.0953  0.8788  0.2013
   97SAPS  H10Y 9716   4.453   3.295   7.655 -0.6692  0.4807  1.1675
   97SAPS  C311 9717   4.363   3.119   7.754  0.1789 -0.4726  0.0738
   97SAPS  H11X 9718   4.439   3.047   7.717  0.1167 -0.2897 -0.4209
   97SAPS  H11Y 9719   4.263   3.071   7.753 -1.2925  2.3954 -0.8333
   97SAPS  C312 9720   4.390   3.148   7.903 -0.2748  0.1872 -0.3936
   97SAPS  H12X 9721   4.314   3.214   7.952  0.9945 -0.3948  2.5942
   97SAPS  H12Y 9722   4.493   3.190   7.895  0.0949 -0.9488 -1.9820
   97SAPS  C313 9723   4.404   3.025   7.999  0.1497 -0.0404  0.0228
   97SAPS  H13X 9724   4.462   2.947   7.945 -1.6333 -0.5400 -1.2464
   97SAPS  H13Y 9725   4.304   2.990   8.032 -1.0432  0.7129 -2.5153
   97SAPS  C314 9726   4.474   3.070   8.132  1.3246 -0.0441 -0.2011
   97SAPS  H14X 9727   4.403   3.144   8.174  0.4610 -0.4960 -0.8424
   97SAPS  H14Y 9728   4.564   3.118   8.086 -0.0403 -0.1823 -3.2559
   97SAPS  C315 9729   4.494   2.943   8.220 -0.6565 -0.5525  0.5174
   97SAPS  H15X 9730   4.544   2.862   8.163  0.9557  1.4246 -1.0084
   97SAPS  H15Y 9731   4.392   2.905   8.245 -1.3161  1.8617  1.8953
   97SAPS  C316 9732   4.567   2.978   8.349 -0.5866  0.2626 -0.4429
   97SAPS  H16X 9733   4.495   3.025   8.418  0.2455  1.4858 -0.3797
   97SAPS  H16Y 9734   4.654   3.046   8.335 -0.7910  0.5892 -0.1064
   97SAPS  C317 9735   4.611   2.846   8.425 -0.3337  0.3688 -0.2269
   97SAPS  H17X 9736   4.666   2.779   8.356  2.4521  1.4051  0.8310
   97SAPS  H17Y 9737   4.528   2.783   8.463 -0.0927  0.6573  0.8332
   97SAPS  C318 9738   4.688   2.854   8.552  0.6225 -0.5015  0.1658
   97SAPS  H18X 9739   4.778   2.919   8.547  0.9061 -0.9078 -0.0664
   97SAPS  H18Y 9740   4.718   2.754   8.589  1.7731 -0.1909  0.1399
   97SAPS  H18Z 9741   4.623   2.893   8.633 -0.1165 -0.2397 -0.5377
   98SAPS     N 9742   0.932   2.717   6.302 -0.5053 -0.0681 -0.3194
   98SAPS   HN1 9743   0.897   2.814   6.292  2.0381  1.0238  0.5317
   98SAPS   HN2 9744   0.893   2.682   6.392  0.1044  1.3779  0.5445
   98SAPS   HN3 9745   1.036   2.724   6.307 -0.4737 -0.6417 -0.0773
   98SAPS   C12 9746   0.894   2.638   6.187  0.0469  0.6215 -0.5674
   98SAPS  H12A 9747   0.930   2.688   6.098  2.3801 -0.4824 -0.3186
   98SAPS   C13 9748   0.958   2.495   6.184 -0.1249  0.0433 -0.4399
   98SAPS  O13A 9749   1.037   2.456   6.282  0.1704  0.4658 -0.6867
   98SAPS  O13B 9750   0.916   2.426   6.093  0.7833  0.4114 -0.2451
   98SAPS   C11 9751   0.742   2.629   6.176  0.2655 -0.4561 -0.3747
   98SAPS  H11A 9752   0.709   2.573   6.266 -0.1552 -0.2896 -0.4232
   98SAPS  H11B 9753   0.709   2.565   6.092  0.2641 -2.0072  0.7504
   98SAPS     P 9754   0.548   2.804   6.175 -0.0460  0.3058 -0.0700
   98SAPS   O13 9755   0.539   2.946   6.146  0.2586  0.0025  0.2067
   98SAPS   O14 9756   0.468   2.708   6.095  0.1196  0.1815 -0.4934
   98SAPS   O12 9757   0.698   2.762   6.162  0.4225 -0.0892 -0.3979
   98SAPS   O11 9758   0.516   2.768   6.326  0.3868 -0.4929 -0.7636
   98SAPS    C1 9759   0.588   2.840   6.430  0.1611 -0.5465 -0.4580
   98SAPS    HA 9760   0.698   2.837   6.415  0.5667  0.3806  1.9330
   98SAPS    HB 9761   0.557   2.946   6.429  2.2413  0.1126 -0.2324
   98SAPS    C2 9762   0.562   2.780   6.567  0.6194 -0.4460 -0.2995
   98SAPS    HS 9763   0.581   2.670   6.573 -1.4330 -0.9674 -1.9914
   98SAPS   O21 9764   0.417   2.802   6.588 -0.0629 -0.3031  0.1970
   98SAPS   C21 9765   0.334   2.706   6.606  0.8727  0.5297  0.3541
   98SAPS   O22 9766   0.357   2.582   6.602 -0.0384  0.0967 -0.4157
   98SAPS   C22 9767   0.194   2.768   6.621  0.4423 -1.0307 -0.8353
   98SAPS   H2R 9768   0.165   2.817   6.525  1.7572  2.3600  0.3424
   98SAPS   H2S 9769   0.122   2.685   6.638 -3.4596  2.4517  1.5359
   98SAPS    C3 9770   0.643   2.847   6.680  0.1143 -0.3816 -0.2755
   98SAPS    HX 9771   0.606   2.952   6.669  1.9351  0.2057 -1.2429
   98SAPS    HY 9772   0.753   2.849   6.664  0.2894 -0.2907  0.8431
   98SAPS   O31 9773   0.615   2.785   6.806 -0.5726 -0.0457 -0.0192
   98SAPS   C31 9774   0.682   2.849   6.915 -0.1273  0.3596  0.6415
   98SAPS   O32 9775   0.753   2.949   6.902 -0.1591 -0.3853  0.4645
   98SAPS   C32 9776   0.646   2.782   7.045 -0.4049  0.2149  0.2396
   98SAPS   H2X 9777   0.692   2.683   7.063  2.0703  1.5352  1.6880
   98SAPS   H2Y 9778   0.536   2.774   7.054 -0.5115  2.2312  1.4197
   98SAPS   C23 9779   0.191   2.873   6.737 -0.3418 -1.0914 -0.4634
   98SAPS   H3R 9780   0.094   2.925   6.733  0.1974 -0.0755 -0.5253
   98SAPS   H3S 9781   0.268   2.950   6.717 -1.9424  0.7951  0.3952
   98SAPS   C24 9782   0.207   2.818   6.883 -0.2129  0.4305  0.1433
   98SAPS   H4R 9783   0.215   2.903   6.954 -0.4323 -0.7012  1.5634
   98SAPS   H4S 9784   0.299   2.756   6.886 -0.7320 -0.3390  2.1598
   98SAPS   C25 9785   0.084   2.735   6.917 -0.5524  0.6660 -0.4088
   98SAPS   H5R 9786  -0.003   2.749   6.850 -1.0386 -0.5178 -0.0378
   98SAPS   C26 9787   0.070   2.657   7.022 -0.1295 -0.6205  0.4124
   98SAPS   H6R 9788  -0.022   2.598   7.030 -0.7645  0.4273  0.9295
   98SAPS   C27 9789   0.175   2.639   7.129  0.1750  0.2145 -0.5181
   98SAPS   H7R 9790   0.148   2.690   7.224  1.1597  1.3595 -0.8291
   98SAPS   H7S 9791   0.267   2.697   7.106  0.4935  0.9908  2.3084
   98SAPS   C28 9792   0.189   2.493   7.148  0.0943 -0.7944 -0.1768
   98SAPS   H8R 9793   0.142   2.430   7.072 -1.2077 -0.5617  0.4065
   98SAPS   C29 9794   0.273   2.433   7.235 -0.0673  0.5889  0.6933
   98SAPS   H9R 9795   0.266   2.323   7.237 -0.8014  0.6332  0.6949
   98SAPS  C210 9796   0.364   2.494   7.331  0.1488  0.3926 -0.3651
   98SAPS  H10R 9797   0.350   2.440   7.427  1.0111  1.6078  0.4647
   98SAPS  H10S 9798   0.342   2.602   7.335  0.1339  0.4519 -1.6762
   98SAPS  C211 9799   0.507   2.492   7.288 -0.3339 -0.1909  0.1240
   98SAPS  H11R 9800   0.521   2.507   7.179 -1.2176 -0.0786  0.0189
   98SAPS  C212 9801   0.614   2.490   7.369 -0.0140 -0.2095  0.0305
   98SAPS  H12R 9802   0.712   2.488   7.318 -0.3417 -4.2225 -0.7597
   98SAPS  C213 9803   0.605   2.483   7.519 -0.3548  0.2704 -0.7186
   98SAPS  H13R 9804   0.510   2.529   7.554 -0.1044  1.7097 -1.8341
   98SAPS  H13S 9805   0.690   2.529   7.573 -0.2189 -0.0301 -0.6758
   98SAPS  C214 9806   0.589   2.333   7.555  0.0592 -0.2332  0.0622
   98SAPS  H14R 9807   0.574   2.272   7.464  2.4714  1.4045 -1.5686
   98SAPS  C215 9808   0.589   2.281   7.674 -0.2607  0.2588 -0.0108
   98SAPS  H15R 9809   0.575   2.172   7.673 -2.3166  0.4906 -0.3132
   98SAPS  C216 9810   0.608   2.348   7.809 -0.6327 -0.1127  0.2514
   98SAPS  H16R 9811   0.514   2.337   7.867  0.5956 -1.9058  2.0180
   98SAPS  H16S 9812   0.629   2.457   7.802 -0.5374 -0.0290  1.5235
   98SAPS  C217 9813   0.728   2.291   7.895  0.2422  0.2307 -0.7156
   98SAPS  H17R 9814   0.829   2.317   7.857 -0.0194  1.5123 -0.5738
   98SAPS  H17S 9815   0.719   2.181   7.892  1.4121  0.0066  1.7750
   98SAPS  C218 9816   0.733   2.350   8.035 -0.1554 -0.2042 -0.0159
   98SAPS  H18R 9817   0.727   2.460   8.024 -1.7495 -0.1361  1.1923
   98SAPS  H18S 9818   0.832   2.319   8.077 -0.8535 -2.2181  0.2857
   98SAPS  C219 9819   0.621   2.311   8.127 -0.0669 -0.3306  0.0179
   98SAPS  H19R 9820   0.597   2.203   8.118  0.5459 -0.4594 -0.1237
   98SAPS  H19S 9821   0.537   2.377   8.097  0.9198  0.0880 -1.9775
   98SAPS  C220 9822   0.656   2.341   8.279  0.7437 -0.2820  0.1890
   98SAPS  H20R 9823   0.672   2.451   8.288  0.1821 -0.2464  0.7904
   98SAPS  H20S 9824   0.742   2.286   8.322  0.8793  0.0864  0.3999
   98SAPS  H20T 9825   0.561   2.339   8.336 -0.2175  3.5139 -0.9344
   98SAPS   C33 9826   0.685   2.865   7.166 -0.2613 -0.7087 -0.7158
   98SAPS   H3X 9827   0.626   2.832   7.254 -0.8755  0.7165 -0.5722
   98SAPS   H3Y 9828   0.663   2.971   7.142 -0.5685 -0.4072  0.7811
   98SAPS   C34 9829   0.829   2.833   7.209  0.4103 -0.0702  0.1933
   98SAPS   H4X 9830   0.893   2.875   7.128 -0.2277 -1.4546 -1.0674
   98SAPS   H4Y 9831   0.846   2.724   7.219  1.9966  0.0773 -0.5770
   98SAPS   C35 9832   0.878   2.875   7.345  0.6217  0.1834 -0.2093
   98SAPS   H5X 9833   0.842   2.978   7.361  2.3301  1.1723 -2.1896
   98SAPS   H5Y 9834   0.988   2.887   7.337  0.4875  0.5090 -1.9361
   98SAPS   C36 9835   0.837   2.783   7.469  0.0100  0.5284 -0.4695
   98SAPS   H6X 9836   0.883   2.683   7.454  1.4418  1.2848 -1.3659
   98SAPS   H6Y 9837   0.729   2.757   7.466 -0.0419  0.6315  0.2239
   98SAPS   C37 9838   0.883   2.833   7.605 -0.1487  0.5126 -0.1830
   98SAPS   H7X 9839   0.851   2.938   7.619 -0.1784  0.4839 -0.0363
   98SAPS   H7Y 9840   0.994   2.833   7.610 -0.1576 -0.4513  0.2132
   98SAPS   C38 9841   0.820   2.755   7.719 -0.0045 -0.3613 -0.3224
   98SAPS   H8X 9842   0.835   2.645   7.717 -0.7778 -0.4904  0.6129
   98SAPS   H8Y 9843   0.711   2.771   7.705  0.2858  1.6026 -0.5381
   98SAPS   C39 9844   0.868   2.795   7.854 -0.5332 -0.4570 -1.1704
   98SAPS   H9X 9845   0.855   2.905   7.854 -1.4377 -0.5366  0.1997
   98SAPS   H9Y 9846   0.969   2.755   7.876 -1.1553 -0.9987  0.9243
   98SAPS  C310 9847   0.777   2.752   7.971  0.5279 -0.1755  0.5043
   98SAPS  H10X 9848   0.806   2.650   8.003 -2.2640 -0.4519  2.5302
   98SAPS  H10Y 9849   0.677   2.757   7.924  0.6285 -2.9039 -0.1517
   98SAPS  C311 9850   0.767   2.842   8.098  0.1298 -0.0800  0.6608
   98SAPS  H11X 9851   0.731   2.942   8.066 -1.1866 -0.3770  1.1360
   98SAPS  H11Y 9852   0.868   2.851   8.142 -0.0020  0.5250  0.8507
   98SAPS  C312 9853   0.672   2.792   8.198  0.0348  0.1081  0.2616
   98SAPS  H12X 9854   0.710   2.694   8.232  0.7342  0.0280 -0.7342
   98SAPS  H12Y 9855   0.571   2.794   8.153 -0.0537  0.4645  0.4687
   98SAPS  C313 9856   0.666   2.885   8.321  0.0458  0.1898 -0.2653
   98SAPS  H13X 9857   0.657   2.991   8.289 -1.1208 -0.3932 -2.0127
   98SAPS  H13Y 9858   0.761   2.872   8.377 -0.9463 -1.2595  1.1825
   98SAPS  C314 9859   0.553   2.845   8.413  0.5179 -0.7816 -1.0832
   98SAPS  H14X 9860   0.460   2.842   8.353  1.0686 -0.4535 -1.9690
   98SAPS  H14Y 9861   0.546   2.910   8.502  1.2506  0.0073 -1.5883
   98SAPS  C315 9862   0.571   2.708   8.474  0.3234  0.8635  0.4035
   98SAPS  H15X 9863   0.678   2.711   8.503  1.0552  0.1694 -1.9544
   98SAPS  H15Y 9864   0.558   2.632   8.394  1.5488  0.8358  0.2231
   98SAPS  C316 9865   0.483   2.668   8.593  0.6807 -0.5337 -0.2568
   98SAPS  H16X 9866   0.379   2.700   8.570  0.8532 -1.4268 -2.4962
   98SAPS  H16Y 9867   0.509   2.744   8.670  1.9358  0.2031 -1.3886
   98SAPS  C317 9868   0.497   2.523   8.653 -0.1212  0.3082 -0.1382
   98SAPS  H17X 9869   0.427   2.466   8.588 -0.5733  1.3888 -0.6156
   98SAPS  H17Y 9870   0.461   2.526   8.758  0.6655  2.6570  0.1052
   98SAPS  C318 9871   0.640   2.459   8.653  0.0285  0.3711  0.0353
   98SAPS  H18X 9872   0.647   2.353   8.685 -1.1910  0.2379 -0.0889
   98SAPS  H18Y 9873   0.700   2.530   8.713  0.4169  0.7798 -0.8230
   98SAPS  H18Z 9874   0.679   2.461   8.549  1.3006 -1.5209  0.4247
   99SAPS     N 9875   1.703   1.569   6.194 -0.3304  0.2089 -0.0218
   99SAPS   HN1 9876   1.688   1.492   6.262 -0.5069  0.2105 -0.0574
   99SAPS   HN2 9877   1.726   1.652   6.253 -0.7852  1.7973 -1.9731
   99SAPS   HN3 9878   1.609   1.587   6.152  0.6901  2.8520 -1.4092
   99SAPS   C12 9879   1.805   1.530   6.097 -0.4297 -0.0488 -0.1246
   99SAPS  H12A 9880   1.792   1.424   6.085  1.4356 -0.3623  0.3417
   99SAPS   C13 9881   1.790   1.612   5.971 -0.9108 -0.0333  0.1189
   99SAPS  O13A 9882   1.687   1.681   5.955 -0.4256  0.5586  1.3705
   99SAPS  O13B 9883   1.867   1.592   5.876 -0.2377  0.4126 -0.1305
   99SAPS   C11 9884   1.942   1.563   6.163  0.2898 -0.0122 -0.5720
   99SAPS  H11A 9885   1.945   1.671   6.189 -2.2508  0.3805 -1.6588
   99SAPS  H11B 9886   2.014   1.560   6.077 -0.8923  1.3822 -1.6672
   99SAPS     P 9887   2.027   1.328   6.252 -0.0660 -0.5412 -0.1224
   99SAPS   O13 9888   1.916   1.232   6.266 -0.4132 -0.0563  0.5991
   99SAPS   O14 9889   2.102   1.322   6.128 -0.1567  0.3036 -0.5798
   99SAPS   O12 9890   1.971   1.477   6.273  0.1719  0.1120  0.7134
   99SAPS   O11 9891   2.137   1.314   6.374  0.4687  0.6876 -0.5290
   99SAPS    C1 9892   2.249   1.405   6.371  0.1853 -0.6937 -0.7539
   99SAPS    HA 9893   2.339   1.361   6.323  1.4854  1.8660 -0.8646
   99SAPS    HB 9894   2.233   1.497   6.311 -0.3869 -0.4943 -0.2998
   99SAPS    C2 9895   2.300   1.432   6.518  0.3950  0.5563  0.5357
   99SAPS    HS 9896   2.332   1.335   6.561 -2.0106 -0.4981  0.0842
   99SAPS   O21 9897   2.192   1.478   6.595 -0.0846  0.4240 -0.1274
   99SAPS   C21 9898   2.106   1.383   6.636 -0.6090 -0.5473 -0.4516
   99SAPS   O22 9899   2.138   1.266   6.657 -0.1773 -0.0540 -0.0337
   99SAPS   C22 9900   1.969   1.438   6.662  0.1240  0.3040 -0.2136
   99SAPS   H2R 9901   1.960   1.453   6.772  0.9094 -0.1422 -0.0800
   99SAPS   H2S 9902   1.956   1.534   6.607 -1.6951  0.2292  0.0329
   99SAPS    C3 9903   2.421   1.530   6.532 -0.2972  0.3763  0.3178
   99SAPS    HX 9904   2.403   1.633   6.494 -0.2289  1.0401  2.0290
   99SAPS    HY 9905   2.493   1.484   6.461  1.9859  1.3725  1.8653
   99SAPS   O31 9906   2.486   1.528   6.662  0.3142 -0.3617  0.4332
   99SAPS   C31 9907   2.428   1.595   6.760  0.0727  0.3014  0.7473
   99SAPS   O32 9908   2.344   1.681   6.746  0.4572 -0.0086 -0.0056
   99SAPS   C32 9909   2.501   1.550   6.886  0.0730 -0.2047 -0.4837
   99SAPS   H2X 9910   2.605   1.590   6.880 -0.7496  1.9084 -1.8823
   99SAPS   H2Y 9911   2.495   1.439   6.888 -0.3001 -0.1846  1.0049
   99SAPS   C23 9912   1.863   1.335   6.609 -0.2986  0.8390 -0.7885
   99SAPS   H3R 9913   1.888   1.282   6.515  0.3496  2.7357 -1.7350
   99SAPS   H3S 9914   1.768   1.390   6.588 -0.5546  1.8044  2.3930
   99SAPS   C24 9915   1.826   1.226   6.718 -0.6845 -0.1518 -0.1184
   99SAPS   H4R 9916   1.919   1.179   6.757  0.2062  0.9686 -0.8274
   99SAPS   H4S 9917   1.765   1.146   6.670 -1.1842  1.6962 -2.8505
   99SAPS   C25 9918   1.748   1.294   6.829 -0.2497 -0.5915  0.6273
   99SAPS   H5R 9919   1.656   1.347   6.800 -0.4490 -0.3892  1.5944
   99SAPS   C26 9920   1.786   1.287   6.961 -0.1613 -0.2361  0.9393
   99SAPS   H6R 9921   1.723   1.338   7.036 -0.5340  0.6749  0.0206
   99SAPS   C27 9922   1.911   1.213   7.013  0.8384 -0.4313 -0.1524
   99SAPS   H7R 9923   1.925   1.115   6.962 -0.7398 -0.5709 -0.3631
   99SAPS   H7S 9924   1.897   1.174   7.116  2.4299 -2.7513 -0.7447
   99SAPS   C28 9925   2.041   1.282   7.012 -0.1395 -0.0125  0.5993
   99SAPS   H8R 9926   2.107   1.235   6.938 -1.5239 -0.5806 -0.3150
   99SAPS   C29 9927   2.088   1.379   7.091 -0.1700 -0.3714  0.2173
   99SAPS   H9R 9928   2.192   1.412   7.084 -0.4105  0.4642  0.4542
   99SAPS  C210 9929   2.005   1.447   7.199 -0.6914 -0.0541  0.1762
   99SAPS  H10R 9930   1.900   1.414   7.182 -0.7300  0.4349 -0.5765
   99SAPS  H10S 9931   2.011   1.556   7.181  0.7839  0.1798  1.8661
   99SAPS  C211 9932   2.055   1.411   7.342  0.1036  0.3800  1.2103
   99SAPS  H11R 9933   2.162   1.432   7.357  0.5783 -1.3167  0.5113
   99SAPS  C212 9934   1.979   1.367   7.445  0.3002  0.1614 -0.4075
   99SAPS  H12R 9935   2.027   1.353   7.544 -0.5302 -0.9930 -0.1438
   99SAPS  C213 9936   1.831   1.346   7.437 -0.2583  0.0851 -0.2338
   99SAPS  H13R 9937   1.823   1.247   7.487 -0.8835  0.9667  1.4809
   99SAPS  H13S 9938   1.800   1.328   7.331  0.9833 -2.5591 -0.2361
   99SAPS  C214 9939   1.742   1.454   7.503  0.6532 -0.5703  0.3278
   99SAPS  H14R 9940   1.714   1.533   7.432 -0.0710 -3.5076 -2.9155
   99SAPS  C215 9941   1.692   1.452   7.626 -0.0216  0.2351  0.1619
   99SAPS  H15R 9942   1.629   1.533   7.664 -1.7927 -1.8162  1.8495
   99SAPS  C216 9943   1.732   1.349   7.731  0.1850  0.5246  0.4127
   99SAPS  H16R 9944   1.842   1.335   7.738  0.1378 -1.1347 -1.2862
   99SAPS  H16S 9945   1.682   1.250   7.721  2.4210 -0.8572  1.9403
   99SAPS  C217 9946   1.682   1.404   7.872 -0.4745  0.8856 -0.4468
   99SAPS  H17R 9947   1.575   1.434   7.872 -0.5723  0.6086  1.2391
   99SAPS  H17S 9948   1.738   1.493   7.907  0.7987  0.0825 -0.3619
   99SAPS  C218 9949   1.705   1.300   7.981  0.2182  0.4077  0.2532
   99SAPS  H18R 9950   1.813   1.279   8.001  0.7595  0.5996 -2.1607
   99SAPS  H18S 9951   1.651   1.203   7.969  0.4265  0.2551  0.5087
   99SAPS  C219 9952   1.646   1.362   8.107 -0.0457  0.0649  0.1239
   99SAPS  H19R 9953   1.543   1.390   8.075  0.2480 -0.5998 -1.4825
   99SAPS  H19S 9954   1.711   1.446   8.137  1.0534 -1.8903  3.8005
   99SAPS  C220 9955   1.644   1.263   8.219  0.2494  0.0269 -0.2151
   99SAPS  H20R 9956   1.744   1.223   8.244 -0.4971 -0.7148  1.7381
   99SAPS  H20S 9957   1.578   1.179   8.188  1.8737 -2.0332  1.6536
   99SAPS  H20T 9958   1.597   1.302   8.312 -0.6488  0.0987 -0.6840
   99SAPS   C33 9959   2.448   1.610   7.024  0.1367 -0.4855 -0.1045
   99SAPS   H3X 9960   2.346   1.574   7.049  0.8192 -1.0327  2.0960
   99SAPS   H3Y 9961   2.427   1.719   7.022 -2.6168 -0.9679 -0.4556
   99SAPS   C34 9962   2.548   1.581   7.139  0.1398  0.2226  0.1274
   99SAPS   H4X 9963   2.636   1.645   7.117  0.1775 -0.4159 -1.7648
   99SAPS   H4Y 9964   2.572   1.473   7.140 -1.1736 -0.1783  3.6700
   99SAPS   C35 9965   2.497   1.615   7.282 -0.0067 -0.3331  0.0357
   99SAPS   H5X 9966   2.424   1.537   7.313  1.4221 -1.1403  1.4665
   99SAPS   H5Y 9967   2.447   1.714   7.268  0.5894  0.1438  1.1421
   99SAPS   C36 9968   2.606   1.627   7.380 -0.2247 -0.3113 -0.7464
   99SAPS   H6X 9969   2.674   1.712   7.359 -0.8548  0.7030  1.1214
   99SAPS   H6Y 9970   2.657   1.528   7.370 -1.8733 -1.2097 -0.5370
   99SAPS   C37 9971   2.554   1.648   7.529 -0.2761 -0.3866 -0.1600
   99SAPS   H7X 9972   2.523   1.547   7.565 -0.5646 -0.3515 -0.3035
   99SAPS   H7Y 9973   2.465   1.714   7.523 -0.4505 -0.5951  0.0876
   99SAPS   C38 9974   2.661   1.701   7.620 -0.7850 -0.2569 -0.8912
   99SAPS   H8X 9975   2.661   1.810   7.598  0.1810  0.0616  0.5850
   99SAPS   H8Y 9976   2.760   1.658   7.594 -0.3322  1.5411 -2.4421
   99SAPS   C39 9977   2.640   1.659   7.765  0.1891 -0.4580  0.1026
   99SAPS   H9X 9978   2.713   1.707   7.834  1.0774 -1.3848 -0.1609
   99SAPS   H9Y 9979   2.659   1.550   7.761  1.1898 -0.3555  1.3571
   99SAPS  C310 9980   2.510   1.706   7.828  0.1503 -0.3510 -0.2314
   99SAPS  H10X 9981   2.429   1.641   7.789  0.1881 -0.8468  0.4921
   99SAPS  H10Y 9982   2.495   1.813   7.802 -1.1252 -0.7850 -1.3675
   99SAPS  C311 9983   2.515   1.697   7.980  1.0839 -0.5588 -0.3347
   99SAPS  H11X 9984   2.421   1.736   8.024  1.4151  2.6002 -2.1237
   99SAPS  H11Y 9985   2.593   1.773   8.002  0.1039  0.8066 -1.3376
   99SAPS  C312 9986   2.550   1.558   8.030  0.0325  0.6836  0.6178
   99SAPS  H12X 9987   2.655   1.529   8.012 -0.6780 -1.9621  0.2356
   99SAPS  H12Y 9988   2.490   1.494   7.962  1.6581 -0.6572  0.3894
   99SAPS  C313 9989   2.513   1.538   8.174  0.6570  0.2877 -0.6251
   99SAPS  H13X 9990   2.533   1.434   8.205  1.5164  0.4922 -0.4612
   99SAPS  H13Y 9991   2.403   1.552   8.186  0.5373 -1.4285  0.5060
   99SAPS  C314 9992   2.589   1.625   8.272 -0.2753 -0.2630  0.4082
   99SAPS  H14X 9993   2.579   1.732   8.243 -2.0835  0.5394  3.4931
   99SAPS  H14Y 9994   2.697   1.601   8.270  0.0594  1.1012  1.1596
   99SAPS  C315 9995   2.546   1.621   8.424  0.2454  1.0626 -0.4013
   99SAPS  H15X 9996   2.440   1.653   8.430 -0.1923 -0.4649  0.8129
   99SAPS  H15Y 9997   2.608   1.697   8.476 -0.6241  0.5813  1.4445
   99SAPS  C316 9998   2.564   1.481   8.488  0.0754 -0.0045 -0.4060
   99SAPS  H16X 9999   2.666   1.442   8.509 -1.0807 -3.2226 -0.2360
   99SAPS  H16Y10000   2.527   1.404   8.417 -0.3757 -0.2114  0.0479
   99SAPS  C31710001   2.473   1.456   8.608 -0.6748 -0.1978 -0.2304
   99SAPS  H17X10002   2.477   1.350   8.642 -0.5022 -0.4872 -1.1337
   99SAPS  H17Y10003   2.371   1.491   8.580 -0.8118 -1.8547 -2.0302
   99SAPS  C31810004   2.541   1.537   8.719 -0.5174 -0.1704  1.1228
   99SAPS  H18X10005   2.491   1.541   8.818 -1.0861  0.1123  0.8292
   99SAPS  H18Y10006   2.570   1.641   8.693  0.8281 -0.2869  2.0615
   99SAPS  H18Z10007   2.640   1.490   8.739 -0.0469 -0.1576 -0.9013
  100SAPS     N10008   3.706   3.304   6.332  0.4346 -0.3164  0.2959
  100SAPS   HN110009   3.616   3.261   6.362 -2.3432  3.8971 -1.1368
  100SAPS   HN210010   3.787   3.269   6.388  2.2378  1.3913 -1.1210
  100SAPS   HN310011   3.694   3.403   6.359 -0.8300 -0.1790 -0.7155
  100SAPS   C1210012   3.720   3.286   6.186  0.1419 -0.0611 -0.9250
  100SAPS  H12A10013   3.736   3.182   6.162  0.4872 -0.1178 -0.4756
  100SAPS   C1310014   3.615   3.330   6.093  0.3616 -0.1351  0.6919
  100SAPS  O13A10015   3.515   3.386   6.144  0.1319 -0.5605 -0.2386
  100SAPS  O13B10016   3.622   3.287   5.973  0.3736  0.1347 -0.2531
  100SAPS   C1110017   3.844   3.372   6.146 -0.4615 -0.3847 -0.6821
  100SAPS  H11A10018   3.827   3.476   6.181  0.3437  0.6907 -3.1778
  100SAPS  H11B10019   3.850   3.380   6.035 -1.5224 -0.6770 -0.7681
  100SAPS     P10020   4.056   3.356   6.314 -0.0949 -0.3504  0.4415
  100SAPS   O1310021   4.164   3.258   6.328 -0.4114  0.2550 -0.3503
  100SAPS   O1410022   4.085   3.500   6.286  0.2312  0.7160 -0.0087
  100SAPS   O1210023   3.964   3.309   6.201  0.4941 -0.2344 -0.2175
  100SAPS   O1110024   3.963   3.337   6.441 -0.1439  0.1122 -0.4053
  100SAPS    C110025   4.000   3.405   6.553  0.3029 -0.2066 -0.8438
  100SAPS    HA10026   4.052   3.501   6.533 -0.8817  1.4339  2.9837
  100SAPS    HB10027   3.910   3.443   6.607  1.2178 -0.2194  0.7742
  100SAPS    C210028   4.071   3.321   6.662  0.0495  0.2139  0.0986
  100SAPS    HS10029   4.177   3.322   6.628 -0.0440  1.3933 -0.2000
  100SAPS   O2110030   4.014   3.187   6.673  0.0462  0.2764  0.2257
  100SAPS   C2110031   4.104   3.096   6.712  0.3733  0.2573  0.1639
  100SAPS   O2210032   4.221   3.111   6.704 -0.2934  0.2636 -0.5289
  100SAPS   C2210033   4.039   2.975   6.774  0.0920 -0.4053  0.6298
  100SAPS   H2R10034   4.048   2.973   6.884 -1.0779  0.8769  0.7772
  100SAPS   H2S10035   3.929   2.977   6.759 -0.0551 -1.0928  1.5632
  100SAPS    C310036   4.060   3.373   6.805  0.1539 -0.0415 -0.1603
  100SAPS    HX10037   4.084   3.482   6.809  0.6141 -0.1464  0.0106
  100SAPS    HY10038   4.133   3.317   6.867 -0.0303 -0.3023 -0.1781
  100SAPS   O3110039   3.919   3.363   6.854 -0.0768  0.3195 -0.3189
  100SAPS   C3110040   3.894   3.283   6.953 -0.4170 -0.4885 -0.4402
  100SAPS   O3210041   3.979   3.209   7.000  0.2928 -0.2475 -0.2874
  100SAPS   C3210042   3.759   3.304   7.012 -0.0690 -0.4810  0.4181
  100SAPS   H2X10043   3.684   3.293   6.931 -0.0932 -0.1081  0.3921
  100SAPS   H2Y10044   3.749   3.409   7.045 -1.8633 -1.0449  1.8890
  100SAPS   C2310045   4.102   2.850   6.712 -0.2885 -0.2089 -0.2670
  100SAPS   H3R10046   4.208   2.845   6.745 -0.5657 -0.7131  0.5723
  100SAPS   H3S10047   4.093   2.854   6.601 -0.8537 -2.2160 -0.3337
  100SAPS   C2410048   4.026   2.720   6.753  0.3014  0.2024 -0.2880
  100SAPS   H4R10049   4.077   2.640   6.694 -0.3910 -1.7204  1.5689
  100SAPS   H4S10050   3.919   2.714   6.726 -0.4048 -0.4698  2.3298
  100SAPS   C2510051   4.051   2.691   6.903 -0.0473 -0.0194 -0.1613
  100SAPS   H5R10052   4.156   2.684   6.938 -0.1819  0.4344  0.3474
  100SAPS   C2610053   3.957   2.669   6.995 -0.3603  0.1158 -0.1753
  100SAPS   H6R10054   3.989   2.654   7.099  0.5709  0.7052 -0.3589
  100SAPS   C2710055   3.804   2.670   6.981  0.1546  0.1083 -0.2081
  100SAPS   H7R10056   3.750   2.589   7.035 -1.8827  1.4212 -0.1343
  100SAPS   H7S10057   3.775   2.658   6.874 -0.4967  0.6928 -0.1015
  100SAPS   C2810058   3.745   2.798   7.031 -0.0478 -0.0643  0.2322
  100SAPS   H8R10059   3.717   2.869   6.951  3.3345 -0.4010 -1.4075
  100SAPS   C2910060   3.732   2.838   7.163 -0.2319 -0.3866 -0.1686
  100SAPS   H9R10061   3.681   2.932   7.188 -1.3126 -0.5464 -1.6463
  100SAPS  C21010062   3.769   2.757   7.287 -0.0823  0.7351  0.1064
  100SAPS  H10R10063   3.789   2.650   7.263 -1.8109  0.6981 -1.4785
  100SAPS  H10S10064   3.684   2.757   7.358  0.5932 -0.8652  0.9601
  100SAPS  C21110065   3.885   2.816   7.365 -0.7726  0.0392 -0.2308
  100SAPS  H11R10066   3.896   2.924   7.346  1.7035  0.1504  1.4148
  100SAPS  C21210067   3.965   2.759   7.461 -0.8856  0.1678  0.4476
  100SAPS  H12R10068   4.045   2.818   7.508  1.9179 -1.8006 -1.5324
  100SAPS  C21310069   3.955   2.614   7.500 -0.5019  0.0358 -0.8010
  100SAPS  H13R10070   4.056   2.582   7.467 -0.7400  1.1142 -2.7322
  100SAPS  H13S10071   3.883   2.553   7.442  0.4780 -0.2460 -1.7555
  100SAPS  C21410072   3.944   2.580   7.645 -0.4287  0.2688 -0.5625
  100SAPS  H14R10073   3.852   2.530   7.678 -0.4212  0.8910  0.4314
  100SAPS  C21510074   4.037   2.589   7.740  0.1528 -0.1313 -0.2676
  100SAPS  H15R10075   4.011   2.562   7.843  0.5714  0.3189 -0.0426
  100SAPS  C21610076   4.185   2.637   7.723  0.6354 -0.2040 -0.0660
  100SAPS  H16R10077   4.199   2.684   7.623  1.1486  0.2133  0.1965
  100SAPS  H16S10078   4.259   2.554   7.730 -0.0516 -0.7593  0.7799
  100SAPS  C21710079   4.216   2.749   7.822  0.3528  0.2241 -0.5739
  100SAPS  H17R10080   4.149   2.838   7.815 -1.2078 -0.8515  0.1985
  100SAPS  H17S10081   4.317   2.790   7.801 -0.0159  1.1622 -0.5875
  100SAPS  C21810082   4.224   2.681   7.962  0.1714 -0.7462 -0.9344
  100SAPS  H18R10083   4.122   2.646   7.989  0.3606 -0.3746  0.3210
  100SAPS  H18S10084   4.246   2.768   8.027  0.9551 -1.3943 -0.3176
  100SAPS  C21910085   4.338   2.585   7.984  0.1174  0.0514 -0.6458
  100SAPS  H19R10086   4.422   2.612   7.917  1.0497 -0.7889  0.1545
  100SAPS  H19S10087   4.296   2.486   7.956 -1.6675  1.1453 -2.0958
  100SAPS  C22010088   4.404   2.585   8.123 -0.6021 -0.1586 -0.2977
  100SAPS  H20R10089   4.473   2.672   8.124 -1.0990  0.2516  1.4840
  100SAPS  H20S10090   4.457   2.488   8.124  0.7889  0.5752 -0.6679
  100SAPS  H20T10091   4.327   2.585   8.204 -1.2197 -1.7604 -0.8538
  100SAPS   C3310092   3.718   3.222   7.137  0.2611 -0.6784 -0.5267
  100SAPS   H3X10093   3.719   3.115   7.107 -2.7038 -0.8420 -0.3157
  100SAPS   H3Y10094   3.614   3.256   7.152  0.3608 -0.7761  0.4714
  100SAPS   C3410095   3.787   3.249   7.271 -0.1841  0.0868  0.0040
  100SAPS   H4X10096   3.779   3.359   7.286  2.5763  0.2227  1.0673
  100SAPS   H4Y10097   3.891   3.225   7.241  0.0960  2.3820 -1.1359
  100SAPS   C3510098   3.734   3.165   7.384  0.1517  0.0655  0.2531
  100SAPS   H5X10099   3.722   3.057   7.362 -2.7186  0.3100  0.1712
  100SAPS   H5Y10100   3.633   3.196   7.419  0.3294 -0.8591  1.6487
  100SAPS   C3610101   3.825   3.172   7.508  0.3196  0.2256  0.3538
  100SAPS   H6X10102   3.834   3.281   7.530  0.2055  0.0083  1.5446
  100SAPS   H6Y10103   3.929   3.138   7.486  0.2807  0.9222 -1.0166
  100SAPS   C3710104   3.787   3.100   7.639  0.0498  0.3190 -0.7563
  100SAPS   H7X10105   3.780   2.990   7.624  0.3910 -0.0601  1.5638
  100SAPS   H7Y10106   3.683   3.131   7.662 -1.1096 -2.7036 -1.3761
  100SAPS   C3810107   3.891   3.116   7.757 -0.2817 -0.0236 -0.2397
  100SAPS   H8X10108   3.912   3.222   7.780  1.4366 -0.5650  0.8646
  100SAPS   H8Y10109   3.983   3.079   7.706 -0.2155  1.5255 -1.2870
  100SAPS   C3910110   3.847   3.036   7.887 -0.0247  0.2538  1.1987
  100SAPS   H9X10111   3.809   2.936   7.859 -0.9369  0.3878  1.9218
  100SAPS   H9Y10112   3.753   3.078   7.928 -0.1913  0.8486  0.2536
  100SAPS  C31010113   3.956   3.031   7.993 -0.1615 -0.4579  0.5994
  100SAPS  H10X10114   3.960   3.133   8.037 -0.1786 -0.3105  0.2576
  100SAPS  H10Y10115   4.053   3.012   7.942 -0.3853  0.1594 -0.0616
  100SAPS  C31110116   3.924   2.931   8.099  0.8144 -0.1603 -0.1909
  100SAPS  H11X10117   3.918   2.830   8.053 -0.0293 -0.2635  0.1274
  100SAPS  H11Y10118   3.819   2.946   8.132  0.9196 -1.8966  1.0515
  100SAPS  C31210119   4.016   2.933   8.221  0.6458 -0.0424 -0.0279
  100SAPS  H12X10120   3.987   3.020   8.284 -0.3471 -0.2086 -0.2457
  100SAPS  H12Y10121   4.120   2.931   8.183 -0.3285  1.3041 -3.1254
  100SAPS  C31310122   3.995   2.812   8.312 -0.1179 -0.5220  0.2766
  100SAPS  H13X10123   4.012   2.717   8.257 -4.1967 -1.0164 -0.4199
  100SAPS  H13Y10124   3.891   2.798   8.349  0.6274 -0.5568  2.5057
  100SAPS  C31410125   4.097   2.810   8.427  0.0638  0.7789  0.1436
  100SAPS  H14X10126   4.095   2.907   8.481 -2.4740  0.4941  0.7199
  100SAPS  H14Y10127   4.197   2.788   8.385 -0.2103  3.1108 -1.9692
  100SAPS  C31510128   4.072   2.697   8.521  0.1073 -0.2445 -0.5809
  100SAPS  H15X10129   4.076   2.605   8.459 -6.3395 -1.1860 -0.2708
  100SAPS  H15Y10130   3.968   2.688   8.559  0.9208 -1.7475  1.5168
  100SAPS  C31610131   4.170   2.701   8.642 -0.2046 -0.0432  0.0838
  100SAPS  H16X10132   4.163   2.618   8.716  3.0794  0.3253  0.9519
  100SAPS  H16Y10133   4.162   2.798   8.695 -0.0359 -0.1648  0.3325
  100SAPS  C31710134   4.322   2.685   8.605  0.5688  0.4265 -0.0304
  100SAPS  H17X10135   4.373   2.664   8.702 -0.6116  0.0672  0.5331
  100SAPS  H17Y10136   4.363   2.779   8.562  0.9036  0.0994 -0.4471
  100SAPS  C31810137   4.347   2.570   8.508 -0.3422 -0.8150  0.5572
  100SAPS  H18X10138   4.452   2.534   8.497 -0.7846 -1.7252 -0.8783
  100SAPS  H18Y10139   4.296   2.600   8.414 -1.1504 -0.5034  1.0853
  100SAPS  H18Z10140   4.287   2.483   8.541 -0.1262 -0.4450  2.0387
  101OSM      N10141   6.263   3.608  10.960  0.0373 -0.1385 -0.6571
  101OSM    C1510142   6.151   3.531  11.040 -0.6611  0.2065  0.2670
  101OSM   H15A10143   6.195   3.437  11.072 -2.4238 -1.0600 -0.8651
  101OSM   H15B10144   6.072   3.519  10.968 -0.5502  5.0077 -0.9443
  101OSM   H15C10145   6.127   3.579  11.133 -0.7491 -2.2915  1.6388
  101OSM    C1410146   6.384   3.617  11.050  0.2616  0.1068  0.7814
  101OSM   H14A10147   6.428   3.520  11.071  1.7967  0.6700  0.3175
  101OSM   H14B10148   6.365   3.662  11.146 -2.4089 -0.2724  0.4947
  101OSM   H14C10149   6.460   3.671  10.995 -0.8545 -0.0199 -0.9467
  101OSM    C1310150   6.294   3.533  10.839 -0.4776  0.1635 -0.4659
  101OSM   H13A10151   6.213   3.514  10.771 -0.8427 -1.7032  0.4200
  101OSM   H13B10152   6.333   3.436  10.865 -1.0859 -0.4330 -1.7206
  101OSM   H13C10153   6.371   3.577  10.778 -0.5294 -1.7824 -2.0141
  101OSM    C1210154   6.208   3.744  10.923 -1.1716  0.6024 -0.6669
  101OSM   H12A10155   6.153   3.792  11.002  0.2832 -0.0680  0.8166
  101OSM   H12B10156   6.137   3.715  10.847 -0.3506 -2.1665 -0.4768
  101OSM    C1110157   6.320   3.841  10.869 -0.7480  0.5963 -0.5782
  101OSM   H11A10158   6.286   3.875  10.769 -5.3988  1.4557  1.0456
  101OSM   H11B10159   6.419   3.796  10.846  0.9219  3.4237  0.5382
  101OSM      P10160   6.271   4.081  10.974  0.3562  0.0127  0.3352
  101OSM    O1310161   6.161   4.081  11.081  0.0640 -0.1838 -0.1169
  101OSM    O1410162   6.375   4.186  10.995 -0.1890  0.8457  0.7908
  101OSM    O1110163   6.210   4.082  10.829 -0.1015 -0.7121 -0.2534
  101OSM    O1210164   6.336   3.943  10.964 -0.7886 -0.1984 -0.2345
  101OSM    C1S10165   6.239   4.204  10.754 -0.0973  0.3043  0.6161
  101OSM    H1S10166   6.347   4.209  10.728  0.1793 -2.4254  0.9228
  101OSM    H1T10167   6.205   4.296  10.806 -0.9842  0.7879 -0.7707
  101OSM     NF10168   6.232   4.284  10.516  0.2500 -0.7055 -0.2432
  101OSM    HNF10169   6.202   4.379  10.514  0.2000 -0.6067  2.3455
  101OSM    C2S10170   6.167   4.195  10.612  0.4519  0.0529 -0.0816
  101OSM    H2S10171   6.184   4.091  10.577  0.3342 -0.2238  0.6734
  101OSM    C3S10172   6.021   4.219  10.638 -0.3203 -0.1948 -0.0366
  101OSM    H3S10173   5.998   4.321  10.675 -0.9351 -0.3406 -0.0116
  101OSM     O310174   5.964   4.131  10.733 -0.5606 -0.2559  0.1062
  101OSM    HO310175   6.039   4.075  10.752 -0.0503 -0.1981 -1.5959
  101OSM    C4S10176   5.947   4.211  10.503 -0.0074  0.6195 -0.1591
  101OSM    H4S10177   5.957   4.111  10.460  0.6127  0.2592  0.7950
  101OSM    C5S10178   5.882   4.313  10.440  0.6743  0.4348 -0.0291
  101OSM    H5S10179   5.868   4.409  10.491 -0.7085  0.0469  0.3613
  101OSM    C6S10180   5.813   4.304  10.311 -0.2970  0.6225  0.0725
  101OSM    H6S10181   5.853   4.384  10.245 -0.2500  0.8039  0.3225
  101OSM    H6T10182   5.704   4.322  10.309 -0.3019  0.6021 -1.6781
  101OSM    C7S10183   5.850   4.171  10.235  0.3955  0.5425  0.1577
  101OSM    H7S10184   5.823   4.091  10.307 -2.0223  0.6378 -0.5605
  101OSM    H7T10185   5.957   4.171  10.204  0.3896  2.5555  0.0056
  101OSM    C8S10186   5.769   4.161  10.104  0.0691 -0.7171  0.9732
  101OSM    H8S10187   5.797   4.251  10.045 -1.5608 -1.2984 -0.7555
  101OSM    H8T10188   5.661   4.171  10.126 -0.0001  1.5699 -0.1222
  101OSM    C9S10189   5.817   4.045  10.012  0.2179 -0.7301  0.1889
  101OSM    H9S10190   5.820   3.962  10.085  1.4459  1.4679  2.8332
  101OSM    H9T10191   5.914   4.059   9.960  0.5162  1.0771  1.1453
  101OSM   C10S10192   5.717   4.028   9.894  0.5857 -0.3266  0.1933
  101OSM   H10S10193   5.750   4.103   9.819 -2.6452  0.5935 -0.4465
  101OSM   H10T10194   5.615   4.054   9.930  0.0715 -1.0920 -0.6667
  101OSM   C11S10195   5.722   3.887   9.840 -0.0505 -0.3233  0.0548
  101OSM   H11S10196   5.702   3.834   9.936  2.1511 -0.6332  0.4017
  101OSM   H11T10197   5.825   3.854   9.814  0.4451  2.9622 -2.8772
  101OSM   C12S10198   5.623   3.864   9.727  0.5588 -0.1753  0.4732
  101OSM   H12S10199   5.520   3.852   9.768  0.3682 -1.9869 -0.4804
  101OSM   H12T10200   5.646   3.762   9.692  0.1611 -0.0068 -0.2867
  101OSM   C13S10201   5.604   3.973   9.622  0.0314 -0.1555 -0.0572
  101OSM   H13S10202   5.702   4.003   9.581 -0.7592  1.5170 -0.8186
  101OSM   H13T10203   5.581   4.068   9.675 -1.4297 -1.0256  0.9426
  101OSM   C14S10204   5.500   3.939   9.508  0.3267  0.2303  0.2253
  101OSM   H14S10205   5.477   4.033   9.452 -0.7853 -0.3360 -0.3013
  101OSM   H14T10206   5.404   3.915   9.559  0.7687 -0.1160  0.8960
  101OSM   C15S10207   5.543   3.822   9.411  0.1608 -0.7369  0.4542
  101OSM   H15S10208   5.575   3.730   9.465  0.7313 -0.1802  1.0820
  101OSM   H15T10209   5.633   3.860   9.359 -1.0671  0.1204 -1.1012
  101OSM   C16S10210   5.445   3.775   9.303 -0.5256 -0.4875 -0.0711
  101OSM   H16S10211   5.391   3.851   9.243 -2.2022 -2.0233 -0.5983
  101OSM   H16T10212   5.368   3.717   9.358  1.0375 -2.0854  0.5286
  101OSM   C17S10213   5.516   3.665   9.212 -0.2678 -0.4678 -0.1692
  101OSM   H17S10214   5.435   3.602   9.171 -0.6241 -1.0125  1.3321
  101OSM   H17T10215   5.562   3.589   9.278  0.4677 -1.4659 -1.7715
  101OSM   C18S10216   5.622   3.719   9.112 -0.3854  0.7139  0.2044
  101OSM   H18S10217   5.575   3.805   9.059  1.7234  1.8176 -0.0083
  101OSM   H18T10218   5.651   3.647   9.032  0.0471  0.6772  0.3946
  101OSM   H18U10219   5.715   3.749   9.164  0.5800 -0.1196 -0.9868
  101OSM    C1F10220   6.347   4.248  10.463 -0.4989 -0.6582  0.1826
  101OSM     OF10221   6.382   4.130  10.456 -0.4207 -0.0220 -0.0989
  101OSM    C2F10222   6.430   4.358  10.408  0.3633  0.0057  0.6728
  101OSM    H2F10223   6.509   4.403  10.473  0.1542 -0.5982  1.3551
  101OSM    H2G10224   6.352   4.438  10.409  0.4277  0.1932 -1.9048
  101OSM    C3F10225   6.483   4.337  10.267 -0.2549  0.3182  0.6959
  101OSM    H3F10226   6.575   4.275  10.271 -0.4847 -0.0322  0.6343
  101OSM    H3G10227   6.525   4.435  10.235 -0.2723  0.1583  0.1757
  101OSM    C4F10228   6.384   4.268  10.166  0.9165  0.3392  0.0604
  101OSM    H4F10229   6.324   4.189  10.214  1.5001 -0.5085 -0.5637
  101OSM    H4G10230   6.447   4.224  10.085  0.3118 -2.8344  1.1972
  101OSM    C5F10231   6.302   4.368  10.093  0.0900  0.1760  0.3766
  101OSM    H5F10232   6.372   4.448  10.060 -0.3955  0.8035  0.8477
  101OSM    H5G10233   6.226   4.413  10.160  0.3391 -1.0014  1.5065
  101OSM    C6F10234   6.224   4.304   9.980 -0.3279  0.0695 -0.7314
  101OSM    H6F10235   6.147   4.236  10.024  1.0802 -1.0787  0.0396
  101OSM    H6G10236   6.296   4.249   9.916  0.4612  2.0342 -1.6012
  101OSM    C7F10237   6.146   4.395   9.885 -0.4999 -0.3550  0.1750
  101OSM    H7F10238   6.128   4.335   9.793 -0.7240 -0.0380  0.0127
  101OSM    H7G10239   6.214   4.479   9.859  0.8040 -0.2991  3.3722
  101OSM    C8F10240   6.026   4.454   9.953 -0.0174 -0.1693 -0.3130
  101OSM    H8F10241   6.071   4.479  10.051  0.2332  0.6789 -0.6375
  101OSM    H8G10242   5.940   4.386   9.968 -1.7514  1.0692 -3.5799
  101OSM    C9F10243   5.975   4.576   9.885 -0.6212  0.6916  0.4784
  101OSM    H9F10244   5.985   4.661   9.954 -0.1970 -0.2372  1.5890
  101OSM   C10F10245   5.917   4.588   9.761  0.1556  0.2114  0.3493
  101OSM   H10F10246   5.884   4.687   9.724  1.1172  0.2583 -0.4228
  101OSM   C11F10247   5.898   4.486   9.654 -0.1636 -0.1395 -0.2141
  101OSM   H11F10248   5.790   4.461   9.642  0.2166 -1.5105 -0.9739
  101OSM   H11G10249   5.946   4.386   9.664  0.8978  0.2318 -1.4411
  101OSM   C12F10250   5.972   4.529   9.525  0.5105 -0.4046 -0.6926
  101OSM   H12F10251   5.970   4.437   9.462  0.9118 -0.1175 -1.1325
  101OSM   H12G10252   6.077   4.553   9.552  0.9514 -3.3530  0.5609
  101OSM   C13F10253   5.895   4.641   9.449  0.4577  0.0112 -0.2290
  101OSM   H13F10254   5.893   4.736   9.506  2.6463 -1.0769  1.8248
  101OSM   H13G10255   5.793   4.598   9.447  1.7924 -3.7175  1.6647
  101OSM   C14F10256   5.939   4.665   9.306  0.4935  0.2413  0.1212
  101OSM   H14F10257   6.045   4.699   9.307  0.4920  0.2498  0.8501
  101OSM   H14G10258   5.878   4.750   9.269 -0.2325 -0.5115 -0.4334
  101OSM   C15F10259   5.901   4.549   9.216 -0.1081  0.1390 -0.2224
  101OSM   H15F10260   5.794   4.521   9.213  0.1922 -0.9833 -2.2366
  101OSM   H15G10261   5.942   4.452   9.253  1.9173  1.1278  0.2644
  101OSM   C16F10262   5.942   4.564   9.074  0.0593 -0.4422  0.4455
  101OSM   H16F10263   5.947   4.674   9.060  1.3236 -0.6982 -1.4535
  101OSM   H16G10264   5.867   4.521   9.004  0.7794  2.4093 -2.2910
  101OSM   C17F10265   6.079   4.512   9.029  0.1535 -0.2555 -0.1679
  101OSM   H17F10266   6.103   4.557   8.930 -0.7128  0.3874 -0.0941
  101OSM   H17G10267   6.062   4.405   9.005  1.0476 -0.4372 -0.0202
  101OSM   C18F10268   6.195   4.526   9.127 -0.0232  0.4094 -0.2391
  101OSM   H18F10269   6.167   4.502   9.231 -1.5498 -0.7877 -0.8901
  101OSM   H18G10270   6.237   4.628   9.117 -1.8337  1.2988  0.8085
  101OSM   H18H10271   6.275   4.454   9.097  0.4782  0.7267  0.3264
  102OSM      N10272   5.629   1.730  10.711  0.2328  0.4541  0.0478
  102OSM    C1510273   5.753   1.793  10.751  0.1589  0.8389 -0.0640
  102OSM   H15A10274   5.752   1.834  10.851  0.1013  0.8433 -0.0657
  102OSM   H15B10275   5.773   1.873  10.682  1.9210 -0.4060 -1.0782
  102OSM   H15C10276   5.835   1.724  10.739  0.9551  1.9171 -1.0036
  102OSM    C1410277   5.651   1.704  10.567 -0.9681  0.7982  0.0928
  102OSM   H14A10278   5.674   1.790  10.507  0.6130 -0.8835 -1.8778
  102OSM   H14B10279   5.562   1.660  10.522 -0.5693 -1.4846  1.3870
  102OSM   H14C10280   5.729   1.629  10.568  1.5755  3.2759  1.4372
  102OSM    C1310281   5.597   1.611  10.792  0.3840 -0.1037 -0.4699
  102OSM   H13A10282   5.676   1.538  10.803  1.4297  1.3428  2.8277
  102OSM   H13B10283   5.508   1.564  10.753 -0.6204  1.9032 -0.7557
  102OSM   H13C10284   5.577   1.634  10.895  0.1538  0.5436 -0.6570
  102OSM    C1210285   5.513   1.830  10.727 -0.1981 -0.4849  0.7521
  102OSM   H12A10286   5.420   1.785  10.697  0.0261 -0.2563 -0.3626
  102OSM   H12B10287   5.533   1.915  10.663 -0.1689 -1.1349 -0.1131
  102OSM    C1110288   5.475   1.881  10.874  0.0966 -0.0103  0.6816
  102OSM   H11A10289   5.458   1.794  10.941  1.4830 -0.9739 -0.1653
  102OSM   H11B10290   5.376   1.928  10.855  0.8994  2.2160  1.5602
  102OSM      P10291   5.549   2.124  10.917 -0.2252  0.4528  0.3718
  102OSM    O1310292   5.461   2.157  11.020  0.7850 -0.6911 -0.0751
  102OSM    O1410293   5.678   2.202  10.913 -0.4147  0.2881 -0.5087
  102OSM    O1110294   5.483   2.144  10.777  0.4552 -0.0181 -0.1792
  102OSM    O1210295   5.577   1.970  10.924 -0.1370 -0.3772 -0.1397
  102OSM    C1S10296   5.539   2.219  10.671 -0.1434 -0.1808 -0.0234
  102OSM    H1S10297   5.635   2.179  10.632 -0.2709  0.5525 -1.1381
  102OSM    H1T10298   5.562   2.320  10.710 -1.2524 -1.1426  3.5476
  102OSM     NF10299   5.502   2.253  10.421 -0.1282  0.1869 -0.6323
  102OSM    HNF10300   5.479   2.341  10.382  2.0100 -0.0012 -2.4660
  102OSM    C2S10301   5.440   2.224  10.552 -0.4041  0.2340  0.0639
  102OSM    H2S10302   5.390   2.125  10.548  2.7046 -1.5644  2.1869
  102OSM    C3S10303   5.321   2.325  10.586 -1.0491  0.1075  0.0822
  102OSM    H3S10304   5.370   2.425  10.586 -1.4259  0.4011 -3.2941
  102OSM     O310305   5.262   2.303  10.714  0.8937  0.3512 -0.4836
  102OSM    HO310306   5.323   2.239  10.752  2.3552  0.3933 -2.6224
  102OSM    C4S10307   5.219   2.328  10.476  0.5665  0.1287  0.0264
  102OSM    H4S10308   5.230   2.416  10.411  1.1690  1.9012  2.3981
  102OSM    C5S10309   5.119   2.241  10.453  0.1155 -0.7826 -0.0852
  102OSM    H5S10310   5.105   2.158  10.524  0.6470 -0.6407  0.1873
  102OSM    C6S10311   5.028   2.257  10.337  0.7677  0.3767 -0.1411
  102OSM    H6S10312   5.050   2.332  10.259 -1.2183  0.5170 -0.6076
  102OSM    H6T10313   4.931   2.289  10.380  1.3573  0.2519  1.3486
  102OSM    C7S10314   5.001   2.126  10.260 -0.1077  0.2855 -0.0517
  102OSM    H7S10315   4.956   2.058  10.335  1.2244  0.5791  1.0553
  102OSM    H7T10316   5.104   2.090  10.238  0.7676  2.1782  0.7282
  102OSM    C8S10317   4.913   2.136  10.133  0.0851  0.2332  0.0702
  102OSM    H8S10318   4.872   2.237  10.111  1.0518  0.3692 -1.2989
  102OSM    H8T10319   4.828   2.066  10.143 -0.2272  0.4303 -1.0802
  102OSM    C9S10320   4.999   2.107  10.004 -0.1089 -0.0314  0.0578
  102OSM    H9S10321   5.006   1.996   9.998  0.6517  0.0915 -3.4466
  102OSM    H9T10322   5.103   2.144  10.016 -0.7588  1.9399 -0.0071
  102OSM   C10S10323   4.925   2.159   9.883 -0.0012 -0.7538 -1.0597
  102OSM   H10S10324   4.939   2.269   9.896  0.8120 -0.9028 -0.5670
  102OSM   H10T10325   4.818   2.142   9.907  0.3921 -1.2403  0.4972
  102OSM   C11S10326   4.983   2.099   9.751  0.5688 -0.5852  0.1995
  102OSM   H11S10327   4.953   1.992   9.749  2.1858 -1.0993  1.1274
  102OSM   H11T10328   5.094   2.094   9.744  0.7015  0.4628  1.2306
  102OSM   C12S10329   4.905   2.169   9.641  0.1237  0.3470  0.1054
  102OSM   H12S10330   4.928   2.278   9.640  1.8191  0.0156 -0.2313
  102OSM   H12T10331   4.797   2.169   9.668 -0.5637  0.4697 -2.3814
  102OSM   C13S10332   4.932   2.110   9.502 -0.4582 -0.6173  0.1293
  102OSM   H13S10333   4.885   2.013   9.475 -0.0364 -0.3494 -1.7056
  102OSM   H13T10334   5.040   2.091   9.487 -0.2608 -0.5996  1.3995
  102OSM   C14S10335   4.892   2.214   9.390  0.0170 -0.1835  0.1358
  102OSM   H14S10336   4.971   2.290   9.408  0.6479 -1.2529  2.3236
  102OSM   H14T10337   4.793   2.259   9.414  0.6000  2.1100 -1.4018
  102OSM   C15S10338   4.891   2.151   9.250 -0.1481 -0.2300 -0.2458
  102OSM   H15S10339   4.850   2.050   9.268  0.5637 -0.7182 -1.2246
  102OSM   H15T10340   4.994   2.120   9.221  0.6465  0.4073  1.7638
  102OSM   C16S10341   4.813   2.231   9.151  0.1499 -0.3090 -0.0049
  102OSM   H16S10342   4.858   2.329   9.122 -1.2467  0.0453 -1.0629
  102OSM   H16T10343   4.714   2.262   9.191  0.2925 -0.3636  0.3951
  102OSM   C17S10344   4.766   2.152   9.028  0.8788  0.2484  0.3285
  102OSM   H17S10345   4.855   2.099   8.989  1.0745 -0.4459  1.6436
  102OSM   H17T10346   4.741   2.231   8.954  1.0559  0.7619  0.8060
  102OSM   C18S10347   4.653   2.055   9.048  0.2138 -0.2714  0.8157
  102OSM   H18S10348   4.555   2.102   9.072  0.4111  1.5290 -1.5211
  102OSM   H18T10349   4.685   1.976   9.120 -0.3410 -0.6410  0.6602
  102OSM   H18U10350   4.634   2.002   8.953  0.2633  2.5314 -0.8548
  102OSM    C1F10351   5.579   2.171  10.356  0.2861 -0.1122 -0.2109
  102OSM     OF10352   5.584   2.060  10.413  0.1997  0.0541  0.2776
  102OSM    C2F10353   5.647   2.216  10.229  0.2400  0.3828 -0.3381
  102OSM    H2F10354   5.723   2.294  10.254  0.0161  0.9666 -1.4315
  102OSM    H2G10355   5.568   2.265  10.169  0.7833  0.5589 -0.9157
  102OSM    C3F10356   5.703   2.093  10.154  0.3992 -0.6982 -0.0490
  102OSM    H3F10357   5.639   2.004  10.170 -1.0247  0.2502 -0.2886
  102OSM    H3G10358   5.806   2.077  10.193  0.6415  1.4572  0.3214
  102OSM    C4F10359   5.679   2.123  10.003  0.0340 -0.4145 -0.6602
  102OSM    H4F10360   5.695   2.227   9.969  1.5249 -0.9565 -1.7125
  102OSM    H4G10361   5.574   2.093   9.982 -0.2403  0.4326 -0.5187
  102OSM    C5F10362   5.780   2.046   9.911  0.9746  0.0399 -0.3525
  102OSM    H5F10363   5.783   1.940   9.944  1.2774  0.3081  0.5035
  102OSM    H5G10364   5.886   2.073   9.931  1.2948 -2.3784  1.6028
  102OSM    C6F10365   5.743   2.072   9.766  0.7884 -0.0941  0.7302
  102OSM    H6F10366   5.741   2.182   9.745  0.7465 -0.4551 -1.3559
  102OSM    H6G10367   5.643   2.030   9.743  0.7949 -0.7621  1.8649
  102OSM    C7F10368   5.846   2.004   9.670 -0.4969  0.1087 -0.7437
  102OSM    H7F10369   5.836   1.894   9.682  1.7613 -0.1825 -1.1183
  102OSM    H7G10370   5.953   2.019   9.696 -0.4248 -1.6390  0.1370
  102OSM    C8F10371   5.815   2.034   9.516 -0.7445  0.2552 -0.1352
  102OSM    H8F10372   5.852   2.137   9.497  1.8930 -0.2709  1.5685
  102OSM    H8G10373   5.707   2.020   9.499 -0.4606 -0.8251 -1.1533
  102OSM    C9F10374   5.904   1.947   9.431 -0.3270 -0.2007 -0.5297
  102OSM    H9F10375   5.995   1.913   9.484  0.0595  0.6293 -0.6527
  102OSM   C10F10376   5.885   1.917   9.302 -0.5233  0.0734 -0.0823
  102OSM   H10F10377   5.955   1.847   9.254  1.6195  0.2067  2.5864
  102OSM   C11F10378   5.773   1.972   9.220 -0.2134  0.3377  0.3384
  102OSM   H11F10379   5.798   2.080   9.209  1.2231 -0.0130  0.0055
  102OSM   H11G10380   5.678   1.954   9.274  0.0080  0.0321  0.6273
  102OSM   C12F10381   5.769   1.899   9.086 -0.1130 -0.6420 -0.0897
  102OSM   H12F10382   5.675   1.926   9.034  1.6027  2.1842 -2.0285
  102OSM   H12G10383   5.769   1.788   9.099 -3.1719 -0.6968  0.1685
  102OSM   C13F10384   5.887   1.934   8.991 -0.2046 -0.1153  0.2408
  102OSM   H13F10385   5.980   1.879   9.017 -1.1602 -1.0579  1.9256
  102OSM   H13G10386   5.916   2.040   9.003  1.5710 -0.6728  1.1381
  102OSM   C14F10387   5.847   1.875   8.854  0.6712  0.0857  0.1027
  102OSM   H14F10388   5.750   1.916   8.820 -0.6875 -2.5195  0.6045
  102OSM   H14G10389   5.840   1.765   8.865  0.0663  0.3014  2.4356
  102OSM   C15F10390   5.952   1.927   8.760 -0.4794  0.1590 -0.3024
  102OSM   H15F10391   6.048   1.916   8.814 -0.9582  1.9049  0.9662
  102OSM   H15G10392   5.942   2.037   8.749 -0.9108  0.1640  0.1219
  102OSM   C16F10393   5.948   1.850   8.624  0.5882  0.2852 -0.3963
  102OSM   H16F10394   5.841   1.837   8.600  0.9653 -1.7111 -1.1905
  102OSM   H16G10395   5.988   1.747   8.639 -0.6665 -0.1707 -0.0539
  102OSM   C17F10396   6.025   1.920   8.508 -0.5990  0.5591  0.1336
  102OSM   H17F10397   6.134   1.910   8.526 -0.7102  0.3272  0.7296
  102OSM   H17G10398   6.011   2.030   8.504 -1.7916  0.4519  0.8397
  102OSM   C18F10399   5.996   1.860   8.371 -0.0190  0.1686  0.0299
  102OSM   H18F10400   6.004   1.749   8.370  1.1783  0.2235 -1.7135
  102OSM   H18G10401   6.082   1.887   8.306  0.5754  2.1644  1.5697
  102OSM   H18H10402   5.900   1.887   8.321 -0.0541 -0.3541 -0.1914
  103OSM      N10403   5.758   6.392  11.301 -0.1757 -0.3120  0.2438
  103OSM    C1510404   5.779   6.268  11.371  0.3053 -0.2121  0.3754
  103OSM   H15A10405   5.758   6.291  11.474 -1.0115 -0.4669  0.1835
  103OSM   H15B10406   5.876   6.221  11.373  0.7917  0.7131 -0.5080
  103OSM   H15C10407   5.704   6.193  11.354  1.2372 -0.8561 -1.1422
  103OSM    C1410408   5.624   6.446  11.330  0.0519 -0.8812 -0.9172
  103OSM   H14A10409   5.579   6.511  11.256  1.2569  0.3613 -0.5954
  103OSM   H14B10410   5.627   6.490  11.428  0.8894  2.3590 -2.2568
  103OSM   H14C10411   5.555   6.363  11.338 -1.2064  0.2022 -0.2248
  103OSM    C1310412   5.860   6.492  11.347 -0.3298  0.0343  0.1689
  103OSM   H13A10413   5.830   6.555  11.430  2.3896  1.6228  0.0757
  103OSM   H13B10414   5.869   6.567  11.270  1.9599  1.9448  2.1208
  103OSM   H13C10415   5.958   6.445  11.351 -0.1168  0.4508 -0.1282
  103OSM    C1210416   5.775   6.375  11.148  0.0225  0.2603 -0.3333
  103OSM   H12A10417   5.729   6.282  11.121 -1.1289  0.8129 -0.3396
  103OSM   H12B10418   5.880   6.361  11.126  0.2498  0.6879  0.4286
  103OSM    C1110419   5.709   6.472  11.045  0.2881  0.1794  0.1392
  103OSM   H11A10420   5.748   6.459  10.942 -2.4200 -2.7356 -0.6881
  103OSM   H11B10421   5.723   6.571  11.092 -0.2996 -0.3812  1.5862
  103OSM      P10422   5.497   6.362  10.948 -0.3860 -0.0480  0.1146
  103OSM    O1310423   5.560   6.233  10.967  0.1344  0.0682 -0.2780
  103OSM    O1410424   5.353   6.376  10.969  0.8929  0.2593  0.1549
  103OSM    O1110425   5.535   6.407  10.805  1.0903  0.1404 -0.7138
  103OSM    O1210426   5.570   6.464  11.038  0.0090 -0.4406  0.6951
  103OSM    C1S10427   5.549   6.543  10.764  0.7460 -0.0933  0.0241
  103OSM    H1S10428   5.647   6.587  10.792 -0.2162  0.9906  1.8901
  103OSM    H1T10429   5.479   6.608  10.821 -0.4150 -0.9106 -0.4209
  103OSM     NF10430   5.547   6.696  10.564 -0.0449  0.1812 -0.0731
  103OSM    HNF10431   5.463   6.747  10.545 -0.5066  0.0731  1.5403
  103OSM    C2S10432   5.523   6.560  10.613  0.3596  0.0681  1.2687
  103OSM    H2S10433   5.586   6.493  10.550 -0.6635 -0.7921  1.1418
  103OSM    C3S10434   5.376   6.513  10.590  0.8746 -0.3040  0.6152
  103OSM    H3S10435   5.303   6.582  10.638  0.9622  0.9286 -0.9661
  103OSM     O310436   5.342   6.380  10.633  0.0397  0.4789 -0.8596
  103OSM    HO310437   5.417   6.354  10.687 -1.0640 -0.0392  0.5002
  103OSM    C4S10438   5.335   6.536  10.441 -0.6017  0.0762  0.6102
  103OSM    H4S10439   5.311   6.638  10.407 -0.3525  0.4238  1.4406
  103OSM    C5S10440   5.336   6.440  10.340  0.5247  0.4367 -0.0752
  103OSM    H5S10441   5.391   6.346  10.351  1.6992  1.3390  2.7733
  103OSM    C6S10442   5.310   6.480  10.204 -0.5780 -0.3281  0.8560
  103OSM    H6S10443   5.306   6.591  10.198  0.2228 -0.2927  0.8731
  103OSM    H6T10444   5.214   6.450  10.157  0.2630 -0.9957 -0.5008
  103OSM    C7S10445   5.419   6.442  10.101  0.1531 -0.3070  0.2777
  103OSM    H7S10446   5.448   6.335  10.114  0.5551 -0.3579 -0.9329
  103OSM    H7T10447   5.509   6.495  10.139 -1.1884  1.1223  1.6289
  103OSM    C8S10448   5.382   6.470   9.954  0.2023  0.6881  0.2944
  103OSM    H8S10449   5.478   6.452   9.900  1.1599  0.1204  2.1073
  103OSM    H8T10450   5.355   6.577   9.941  0.5056  0.6700 -0.5127
  103OSM    C9S10451   5.271   6.386   9.902 -0.3227 -0.4398  0.6411
  103OSM    H9S10452   5.183   6.452   9.887  0.4342  0.6544  0.9203
  103OSM    H9T10453   5.267   6.296   9.967 -0.0354 -1.4683 -0.7333
  103OSM   C10S10454   5.312   6.328   9.761  0.7330 -0.4325 -0.1632
  103OSM   H10S10455   5.243   6.245   9.736  0.4525 -0.6537  1.2254
  103OSM   H10T10456   5.413   6.283   9.774  1.2800  0.9685  0.7320
  103OSM   C11S10457   5.303   6.425   9.646  0.3667  0.7280 -0.6804
  103OSM   H11S10458   5.361   6.518   9.662 -1.6073  1.8058  0.5664
  103OSM   H11T10459   5.196   6.452   9.630 -0.1382 -1.3424 -1.1739
  103OSM   C12S10460   5.336   6.356   9.508  0.1058  0.3245 -0.6665
  103OSM   H12S10461   5.255   6.281   9.501 -2.2754  2.7388 -0.6810
  103OSM   H12T10462   5.438   6.311   9.502  1.0533  2.2174  0.1077
  103OSM   C13S10463   5.312   6.439   9.375 -0.4386  0.7456  0.4261
  103OSM   H13S10464   5.384   6.522   9.389  0.4615 -0.2746  2.1430
  103OSM   H13T10465   5.205   6.465   9.359 -0.4387  0.3101 -0.3000
  103OSM   C14S10466   5.354   6.363   9.248  0.0306 -0.0007  0.2521
  103OSM   H14S10467   5.282   6.284   9.219  2.8429 -2.1719 -1.2686
  103OSM   H14T10468   5.442   6.300   9.269 -1.2315 -2.0688 -0.3907
  103OSM   C15S10469   5.405   6.457   9.133  0.2481 -0.3347  0.4773
  103OSM   H15S10470   5.499   6.507   9.164  0.9449 -0.3304 -1.4864
  103OSM   H15T10471   5.328   6.537   9.133  0.4812  0.0210 -2.5621
  103OSM   C16S10472   5.416   6.385   8.996 -0.4640 -0.3664  1.1960
  103OSM   H16S10473   5.323   6.336   8.960 -0.2992  1.1540 -1.5952
  103OSM   H16T10474   5.489   6.303   9.010  0.9315  0.3919 -1.0189
  103OSM   C17S10475   5.459   6.483   8.880  0.5921  0.8694 -0.4214
  103OSM   H17S10476   5.556   6.521   8.919  1.0433  1.2725 -1.8763
  103OSM   H17T10477   5.376   6.557   8.884 -1.6130 -1.5079  0.2676
  103OSM   C18S10478   5.489   6.421   8.743 -0.1532 -0.4204 -0.6515
  103OSM   H18S10479   5.401   6.370   8.698 -0.5168 -0.1806 -0.2230
  103OSM   H18T10480   5.566   6.341   8.748 -1.1844 -1.3721  0.8516
  103OSM   H18U10481   5.525   6.496   8.669  1.4621  1.3793  1.8236
  103OSM    C1F10482   5.666   6.750  10.546 -0.1539  0.2979 -0.3752
  103OSM     OF10483   5.767   6.678  10.554  0.4692  0.1794  0.0776
  103OSM    C2F10484   5.667   6.898  10.513 -0.8486 -0.0294 -0.0336
  103OSM    H2F10485   5.710   6.951  10.601  2.4754 -1.1873 -0.7844
  103OSM    H2G10486   5.562   6.933  10.512  0.1649  3.5686  1.1861
  103OSM    C3F10487   5.734   6.926  10.378 -0.0061 -0.3052 -1.2104
  103OSM    H3F10488   5.833   6.875  10.374 -0.5307 -1.3530 -1.1288
  103OSM    H3G10489   5.756   7.035  10.374 -0.9632  0.0509  1.2632
  103OSM    C4F10490   5.638   6.897  10.266 -0.4334  0.2217  0.3938
  103OSM    H4F10491   5.539   6.947  10.259  0.3546  1.9296  1.0097
  103OSM    H4G10492   5.617   6.789  10.281  2.3520 -0.0307  3.5291
  103OSM    C5F10493   5.716   6.916  10.133 -0.3144 -0.4178 -0.3888
  103OSM    H5F10494   5.817   6.870  10.145  0.9219  1.4414 -2.7558
  103OSM    H5G10495   5.733   7.025  10.126  1.3004 -0.5579  0.6643
  103OSM    C6F10496   5.638   6.871  10.004  0.0065 -0.1318  0.6372
  103OSM    H6F10497   5.532   6.903   9.989 -0.1775 -1.6267 -1.8547
  103OSM    H6G10498   5.635   6.762   9.984  0.3871 -0.3523  1.7443
  103OSM    C7F10499   5.721   6.929   9.888 -0.6201  0.1312  0.4329
  103OSM    H7F10500   5.826   6.894   9.895 -0.6760  0.1653  1.6076
  103OSM    H7G10501   5.724   7.039   9.901 -2.4622  0.1567  1.0502
  103OSM    C8F10502   5.653   6.907   9.749  0.6617  0.4414 -0.0765
  103OSM    H8F10503   5.716   6.957   9.672  3.3075 -0.1645  1.5736
  103OSM    H8G10504   5.556   6.961   9.755  0.0365 -0.6486 -0.2773
  103OSM    C9F10505   5.636   6.762   9.711  0.1673 -0.9437 -0.2427
  103OSM    H9F10506   5.641   6.692   9.795 -0.8382 -0.5364  0.1758
  103OSM   C10F10507   5.591   6.718   9.586  0.6543  0.2692 -0.6020
  103OSM   H10F10508   5.595   6.609   9.573  0.4775  0.2439 -0.4432
  103OSM   C11F10509   5.556   6.793   9.460  0.3799  0.3220 -0.9428
  103OSM   H11F10510   5.532   6.899   9.484  3.2945  1.2675 -1.7965
  103OSM   H11G10511   5.462   6.752   9.416 -0.8201  2.7180 -0.7954
  103OSM   C12F10512   5.677   6.787   9.366  0.4242 -0.9960  0.5611
  103OSM   H12F10513   5.699   6.678   9.362 -1.1860 -1.3405  0.4026
  103OSM   H12G10514   5.760   6.848   9.408 -0.7838  0.6995  0.6056
  103OSM   C13F10515   5.650   6.828   9.220 -0.1696 -0.8268 -0.2156
  103OSM   H13F10516   5.549   6.813   9.178  0.0051 -1.6126 -0.3822
  103OSM   H13G10517   5.672   6.936   9.208 -0.5751 -0.7086  0.1139
  103OSM   C14F10518   5.753   6.753   9.131 -0.1952 -0.5927  0.7779
  103OSM   H14F10519   5.724   6.646   9.126 -0.0660 -0.5742 -2.1423
  103OSM   H14G10520   5.854   6.776   9.172 -1.2971  1.7360  2.3950
  103OSM   C15F10521   5.753   6.809   8.983  0.6116  0.5077  0.5720
  103OSM   H15F10522   5.792   6.913   8.988  1.1358  0.4170 -1.0849
  103OSM   H15G10523   5.645   6.812   8.955  0.9799  1.2542 -0.8138
  103OSM   C16F10524   5.837   6.721   8.886 -0.1444  0.1725  0.6145
  103OSM   H16F10525   5.795   6.618   8.895  1.4419 -0.5211  0.4140
  103OSM   H16G10526   5.943   6.724   8.916 -0.1636  0.4264  0.6544
  103OSM   C17F10527   5.814   6.764   8.737 -0.7802  0.0828 -0.3773
  103OSM   H17F10528   5.852   6.672   8.687 -1.2936 -0.8315  0.8685
  103OSM   H17G10529   5.882   6.850   8.723 -0.1164 -0.2785  0.5599
  103OSM   C18F10530   5.673   6.795   8.691 -0.5013  0.3232 -0.6083
  103OSM   H18F10531   5.656   6.904   8.702 -0.2427  0.7417 -3.4377
  103OSM   H18G10532   5.591   6.746   8.747 -0.0446  1.0698  0.7458
  103OSM   H18H10533   5.659   6.768   8.584 -2.2574 -2.3047  0.1795
  104OSM      N10534   3.978   5.669  11.021 -0.0069  0.3889  0.0952
  104OSM    C1510535   4.115   5.700  10.992  0.5384 -0.8966  0.1967
  104OSM   H15A10536   4.189   5.637  11.038 -1.4257 -2.6389  1.1266
  104OSM   H15B10537   4.142   5.792  11.042 -3.4351  0.5709 -0.0063
  104OSM   H15C10538   4.133   5.712  10.886 -1.6281 -0.5819 -0.1968
  104OSM    C1410539   3.964   5.645  11.169 -0.2413  0.6625 -0.0250
  104OSM   H14A10540   3.965   5.731  11.234 -0.4774 -0.6931  1.8583
  104OSM   H14B10541   4.038   5.576  11.206  1.2107  2.2635  0.1490
  104OSM   H14C10542   3.873   5.587  11.183  1.6286 -2.7278 -0.7581
  104OSM    C1310543   3.880   5.766  10.975  0.3840 -0.0106  0.1982
  104OSM   H13A10544   3.779   5.740  11.004  0.8584 -0.6092  1.3500
  104OSM   H13B10545   3.875   5.779  10.868 -1.1056 -0.9867  0.1175
  104OSM   H13C10546   3.893   5.867  11.010 -0.8888 -0.3262  1.7166
  104OSM    C1210547   3.951   5.525  10.969  0.3963 -0.8440 -0.0027
  104OSM   H12A10548   3.859   5.504  11.022  1.2689 -3.6225  0.5870
  104OSM   H12B10549   4.014   5.448  11.013 -0.4579 -1.5141  0.0812
  104OSM    C1110550   3.925   5.502  10.816  0.8540 -0.5642 -0.5074
  104OSM   H11A10551   4.026   5.497  10.770  0.6769 -1.2729 -0.8407
  104OSM   H11B10552   3.883   5.591  10.766 -0.3444 -0.5454  0.5158
  104OSM      P10553   3.701   5.384  10.794 -0.0593 -0.0252  0.0405
  104OSM    O1310554   3.648   5.454  10.913 -0.3823 -0.5686  0.3953
  104OSM    O1410555   3.679   5.441  10.659 -0.1381  0.5068  0.2376
  104OSM    O1110556   3.664   5.233  10.789  0.3690  0.3482 -0.2750
  104OSM    O1210557   3.862   5.379  10.815 -0.3341  0.1487  0.3766
  104OSM    C1S10558   3.535   5.198  10.737 -0.3411  0.3579  0.6805
  104OSM    H1S10559   3.458   5.270  10.770 -1.5585 -1.4421  1.9939
  104OSM    H1T10560   3.491   5.103  10.775  0.1680 -0.6179 -1.0239
  104OSM     NF10561   3.416   5.107  10.533 -0.5662  0.1359 -0.5635
  104OSM    HNF10562   3.422   5.014  10.498 -1.1941  0.0637 -0.5056
  104OSM    C2S10563   3.540   5.159  10.584  0.0017 -0.0616  0.4217
  104OSM    H2S10564   3.557   5.249  10.522 -0.5444 -0.2030  0.0670
  104OSM    C3S10565   3.672   5.073  10.547  0.5927 -0.5447 -0.5931
  104OSM    H3S10566   3.661   4.973  10.594 -1.0603 -0.2307 -0.2425
  104OSM     O310567   3.799   5.119  10.588 -0.5214  0.7544 -0.2337
  104OSM    HO310568   3.768   5.185  10.650 -1.8949  1.3697 -1.4891
  104OSM    C4S10569   3.666   5.056  10.403  0.2627  0.1952  0.5650
  104OSM    H4S10570   3.617   4.961  10.378 -0.8347  0.9479 -0.2631
  104OSM    C5S10571   3.698   5.143  10.307 -0.6436  0.1636  0.4678
  104OSM    H5S10572   3.745   5.233  10.348 -0.4810  0.5204 -0.4813
  104OSM    C6S10573   3.680   5.120  10.164 -0.6957  0.0358  0.0630
  104OSM    H6S10574   3.774   5.083  10.119 -1.7859 -2.3948 -0.3328
  104OSM    H6T10575   3.657   5.219  10.118  0.3742  0.0335 -0.5040
  104OSM    C7S10576   3.572   5.016  10.118  0.2392 -0.3165  0.8583
  104OSM    H7S10577   3.470   5.054  10.139 -0.6351 -1.1815 -1.4113
  104OSM    H7T10578   3.594   4.921  10.171 -2.2056 -0.9976  0.8048
  104OSM    C8S10579   3.567   4.997   9.962  0.3725 -0.3475  0.4915
  104OSM    H8S10580   3.488   4.922   9.942  0.1235  0.1562 -0.5143
  104OSM    H8T10581   3.669   4.965   9.930  0.0219 -0.0303 -1.0462
  104OSM    C9S10582   3.529   5.125   9.887  0.8972  0.1586  0.3755
  104OSM    H9S10583   3.597   5.213   9.896 -1.5053  2.4330 -1.9872
  104OSM    H9T10584   3.441   5.167   9.941 -0.2025  0.5292 -1.6136
  104OSM   C10S10585   3.489   5.103   9.741 -0.1153  0.2910 -0.0811
  104OSM   H10S10586   3.407   5.172   9.711  0.2238  0.3852 -0.8094
  104OSM   H10T10587   3.454   4.998   9.730  1.3240 -0.0194 -2.4812
  104OSM   C11S10588   3.606   5.122   9.643  0.5772  0.8823  0.2985
  104OSM   H11S10589   3.675   5.037   9.662 -2.0414 -2.1177 -2.4225
  104OSM   H11T10590   3.649   5.222   9.663  0.1070  0.9769  0.9043
  104OSM   C12S10591   3.571   5.097   9.496 -0.0663  0.1488 -0.1314
  104OSM   H12S10592   3.511   5.003   9.493  0.3137 -0.0913 -0.4081
  104OSM   H12T10593   3.663   5.073   9.438  0.9864  0.7598  1.2281
  104OSM   C13S10594   3.503   5.213   9.438 -0.4674  0.1020 -0.1202
  104OSM   H13S10595   3.563   5.306   9.435 -1.0092  0.4887 -3.5548
  104OSM   H13T10596   3.412   5.236   9.498 -1.4879  2.7718 -2.4430
  104OSM   C14S10597   3.454   5.208   9.286 -0.5809  0.3485 -0.5110
  104OSM   H14S10598   3.383   5.290   9.264 -0.8628  0.4113  0.5895
  104OSM   H14T10599   3.401   5.111   9.269 -0.2224  0.1024 -0.2455
  104OSM   C15S10600   3.571   5.210   9.183  0.2094 -0.2822  0.1247
  104OSM   H15S10601   3.652   5.134   9.196  2.0049  1.4503 -0.5473
  104OSM   H15T10602   3.626   5.306   9.191  2.7771 -1.6243 -0.3369
  104OSM   C16S10603   3.525   5.208   9.035  0.1790  0.8298 -0.6966
  104OSM   H16S10604   3.453   5.292   9.020  1.3749  2.1842  0.8279
  104OSM   H16T10605   3.474   5.110   9.021  1.2879  0.0636  0.4225
  104OSM   C17S10606   3.642   5.208   8.944  0.4739 -0.1547 -0.7793
  104OSM   H17S10607   3.702   5.121   8.978  0.1005 -0.7086 -1.5079
  104OSM   H17T10608   3.712   5.294   8.952 -0.0893  0.4733 -2.2131
  104OSM   C18S10609   3.607   5.186   8.797 -0.6568  0.1608 -0.4040
  104OSM   H18S10610   3.554   5.275   8.755 -0.7939  0.4608  0.3778
  104OSM   H18T10611   3.550   5.092   8.783  0.8289 -0.5569 -2.0410
  104OSM   H18U10612   3.705   5.165   8.748 -0.4724 -0.8078  0.3480
  104OSM    C1F10613   3.309   5.175  10.539  0.0316  0.1921  0.4266
  104OSM     OF10614   3.315   5.294  10.561 -0.1946 -0.0723 -0.2369
  104OSM    C2F10615   3.176   5.110  10.520 -0.0922  0.2193 -0.2750
  104OSM    H2F10616   3.135   5.078  10.618 -0.0474  1.1802  0.0599
  104OSM    H2G10617   3.179   5.013  10.466 -0.6128 -0.0475  0.1664
  104OSM    C3F10618   3.076   5.201  10.448  0.0307 -0.0476  0.1567
  104OSM    H3F10619   3.117   5.222  10.347 -0.0416  1.0694  0.3482
  104OSM    H3G10620   3.046   5.291  10.505  0.0270 -1.3849  2.3833
  104OSM    C4F10621   2.947   5.125  10.412 -0.6574  0.2432  0.1568
  104OSM    H4F10622   2.896   5.187  10.336  0.9528  1.5417  0.0822
  104OSM    H4G10623   2.894   5.114  10.509  1.6127  0.4132  1.4927
  104OSM    C5F10624   2.964   4.988  10.339 -0.5530  0.4343  0.1055
  104OSM    H5F10625   2.870   4.945  10.299 -1.0351  2.6814 -1.3995
  104OSM    H5G10626   3.010   4.914  10.407 -2.2173  0.3697  1.2341
  104OSM    C6F10627   3.058   5.002  10.209  0.2878  0.3505  1.2414
  104OSM    H6F10628   3.092   4.900  10.181  1.7814  0.1572  3.5273
  104OSM    H6G10629   3.152   5.058  10.227  1.5676 -0.8613 -1.2347
  104OSM    C7F10630   2.982   5.065  10.089 -0.0634  0.6297  0.3487
  104OSM    H7F10631   2.931   5.160  10.116 -1.0574  0.2095  0.0085
  104OSM    H7G10632   2.900   4.998  10.055  0.1461  1.0504 -1.0744
  104OSM    C8F10633   3.073   5.084   9.967 -0.1476  0.0371 -0.5554
  104OSM    H8F10634   3.149   5.153  10.009  0.7399 -1.1261 -0.2144
  104OSM    H8G10635   3.019   5.138   9.887  0.3805 -0.6734 -1.4106
  104OSM    C9F10636   3.136   4.955   9.912 -0.0196 -0.5233  0.0752
  104OSM    H9F10637   3.205   4.910   9.983  0.8107 -2.5926 -1.9174
  104OSM   C10F10638   3.117   4.902   9.797  0.6095 -0.7506 -0.0116
  104OSM   H10F10639   3.154   4.800   9.779  1.2527 -1.1883  3.2007
  104OSM   C11F10640   3.026   4.954   9.698 -0.5881  0.5090  0.4627
  104OSM   H11F10641   3.021   5.064   9.685  1.8805  0.3374 -4.7702
  104OSM   H11G10642   2.921   4.924   9.718 -1.6250  3.2937 -0.3034
  104OSM   C12F10643   3.048   4.911   9.553 -0.6179 -0.2109  0.1870
  104OSM   H12F10644   2.949   4.921   9.502  0.2968  0.4424 -1.5480
  104OSM   H12G10645   3.070   4.803   9.541 -1.6019 -0.7168  2.4493
  104OSM   C13F10646   3.160   4.989   9.470 -0.3081 -0.1273  0.3467
  104OSM   H13F10647   3.238   4.910   9.467 -1.2896 -1.1350  0.1424
  104OSM   H13G10648   3.197   5.072   9.533  1.8639 -0.0211 -1.0050
  104OSM   C14F10649   3.112   5.031   9.329 -0.2107 -0.6415 -0.5428
  104OSM   H14F10650   3.181   5.104   9.281  0.2594 -0.4976  0.3220
  104OSM   H14G10651   3.018   5.088   9.345  1.2682  1.4127  1.5137
  104OSM   C15F10652   3.090   4.907   9.240 -0.3055  1.3508  0.5202
  104OSM   H15F10653   3.014   4.838   9.283 -1.6243  0.4979 -2.8830
  104OSM   H15G10654   3.193   4.867   9.232  0.3658  3.3999 -3.3339
  104OSM   C16F10655   3.043   4.939   9.093  0.5987 -0.0725  0.1215
  104OSM   H16F10656   3.094   5.029   9.053 -2.4606  1.6538 -0.2154
  104OSM   H16G10657   2.935   4.959   9.080  1.2053  2.3104 -2.2171
  104OSM   C17F10658   3.074   4.828   8.988  0.1307 -0.1509 -0.8107
  104OSM   H17F10659   3.177   4.794   9.013  0.4833  3.3374  3.7386
  104OSM   H17G10660   3.061   4.870   8.886 -0.7534 -0.7994 -0.9786
  104OSM   C18F10661   2.987   4.697   8.999  0.0379 -0.7999 -0.0184
  104OSM   H18F10662   3.022   4.625   8.923  0.6439 -1.2181  0.6527
  104OSM   H18G10663   2.884   4.727   8.968 -0.3364 -0.5454  1.4030
  104OSM   H18H10664   2.980   4.653   9.100  0.0205  0.8763  0.7446
  105OSM      N10665   3.733   5.030  11.078 -0.2513 -0.1403 -0.6378
  105OSM    C1510666   3.723   4.925  11.187 -0.9065 -0.1767  0.5810
  105OSM   H15A10667   3.805   4.858  11.165  0.3582  2.5132 -4.3971
  105OSM   H15B10668   3.631   4.868  11.180 -1.8219  1.3717 -0.6576
  105OSM   H15C10669   3.730   4.969  11.285  0.1635  0.2744  0.3190
  105OSM    C1410670   3.634   5.142  11.114 -0.3219  0.2221  0.6614
  105OSM   H14A10671   3.624   5.203  11.026  0.9236 -0.4603  0.0124
  105OSM   H14B10672   3.670   5.194  11.201 -0.4446 -0.8973  1.4024
  105OSM   H14C10673   3.535   5.105  11.138 -1.2367  1.0279 -1.6127
  105OSM    C1310674   3.866   5.083  11.079 -0.4489 -0.1573  0.0123
  105OSM   H13A10675   3.883   5.122  11.178 -3.2142  0.2997  0.3909
  105OSM   H13B10676   3.889   5.140  10.990  0.4690 -0.3780  0.1059
  105OSM   H13C10677   3.926   4.995  11.066 -0.8142 -0.2872 -0.8805
  105OSM    C1210678   3.701   4.967  10.945  0.6804 -0.7104  0.0073
  105OSM   H12A10679   3.708   5.049  10.875 -0.2374  0.0419  0.7637
  105OSM   H12B10680   3.599   4.932  10.943  1.2271 -2.4859  0.9383
  105OSM    C1110681   3.780   4.846  10.894  0.1299  0.0752  0.6267
  105OSM   H11A10682   3.887   4.875  10.902 -0.5991  2.7765  2.0013
  105OSM   H11B10683   3.748   4.832  10.789  0.6640 -0.9537  0.5915
  105OSM      P10684   3.609   4.656  10.936  0.0068 -0.1979  0.4064
  105OSM    O1310685   3.603   4.536  11.019 -0.0192  0.8830 -0.1581
  105OSM    O1410686   3.495   4.754  10.954 -0.5914  0.4323 -0.3891
  105OSM    O1110687   3.626   4.620  10.786 -0.1467  0.5194  0.6532
  105OSM    O1210688   3.745   4.730  10.968  0.4806 -0.6554  0.1999
  105OSM    C1S10689   3.518   4.617  10.701  0.2259 -0.6171 -0.1419
  105OSM    H1S10690   3.471   4.718  10.696  0.4550 -0.4978  0.1435
  105OSM    H1T10691   3.441   4.547  10.739 -1.2345  1.5253  1.0650
  105OSM     NF10692   3.431   4.593  10.477  0.4502 -0.2345  0.4201
  105OSM    HNF10693   3.375   4.513  10.459 -2.3939  1.5133  0.9047
  105OSM    C2S10694   3.550   4.583  10.555 -0.3396 -1.0103 -1.1822
  105OSM    H2S10695   3.625   4.659  10.527  1.4996 -2.8925 -1.5705
  105OSM    C3S10696   3.620   4.443  10.534  0.5287 -0.0876  0.6849
  105OSM    H3S10697   3.555   4.364  10.578 -2.5568  1.7162 -0.3312
  105OSM     O310698   3.736   4.436  10.613 -0.2093  0.6082  0.4923
  105OSM    HO310699   3.706   4.474  10.696 -1.3686 -0.0418  0.3912
  105OSM    C4S10700   3.645   4.414  10.387  0.3652 -0.5554 -0.1195
  105OSM    H4S10701   3.550   4.394  10.335 -1.1823  0.8445  1.9752
  105OSM    C5S10702   3.764   4.426  10.312 -0.1782 -0.3193  0.0091
  105OSM    H5S10703   3.860   4.448  10.361  0.2983 -1.0956 -0.5610
  105OSM    C6S10704   3.768   4.401  10.164 -0.2671  0.3910  0.4546
  105OSM    H6S10705   3.678   4.360  10.115  0.4112  1.1266 -1.4859
  105OSM    H6T10706   3.850   4.330  10.139  0.8944  1.6530  0.5739
  105OSM    C7S10707   3.799   4.545  10.108 -0.0655 -0.0492  0.6825
  105OSM    H7S10708   3.893   4.581  10.156  0.6405 -1.3667  0.3407
  105OSM    H7T10709   3.718   4.615  10.135 -1.4050 -1.4569  0.4165
  105OSM    C8S10710   3.837   4.544   9.961  0.1880 -0.2762 -0.3546
  105OSM    H8S10711   3.900   4.454   9.942  1.3400 -0.1662  2.4297
  105OSM    H8T10712   3.898   4.633   9.937 -0.4343  1.0362  2.4769
  105OSM    C9S10713   3.712   4.552   9.871 -0.0075 -0.7904 -0.4132
  105OSM    H9S10714   3.644   4.633   9.906 -1.1293 -0.7496 -2.5116
  105OSM    H9T10715   3.661   4.455   9.890 -0.2952 -0.3794  1.0626
  105OSM   C10S10716   3.741   4.588   9.721  0.3038  0.5002  0.0763
  105OSM   H10S10717   3.816   4.513   9.690 -1.8234 -2.1211  0.9333
  105OSM   H10T10718   3.795   4.686   9.714 -1.9392  2.1360  3.1148
  105OSM   C11S10719   3.617   4.578   9.636  0.2560 -0.6889  0.1143
  105OSM   H11S10720   3.547   4.648   9.687 -0.6930 -1.6394  0.1666
  105OSM   H11T10721   3.582   4.476   9.663  1.8293 -0.8830  1.5364
  105OSM   C12S10722   3.646   4.608   9.494 -0.5233  0.0469 -0.0027
  105OSM   H12S10723   3.560   4.562   9.441 -0.4376  1.7921 -1.7620
  105OSM   H12T10724   3.736   4.546   9.476  0.0415  0.6987  0.5460
  105OSM   C13S10725   3.660   4.754   9.456 -0.1771  0.9591 -0.0617
  105OSM   H13S10726   3.731   4.792   9.532 -0.4827  3.2279 -0.8300
  105OSM   H13T10727   3.560   4.800   9.450 -3.3125 -4.6090  1.6230
  105OSM   C14S10728   3.716   4.760   9.313  0.5469 -0.0939  0.3846
  105OSM   H14S10729   3.792   4.682   9.294  2.4072  1.4724  1.1277
  105OSM   H14T10730   3.776   4.852   9.297 -0.4842  0.7104  0.9703
  105OSM   C15S10731   3.596   4.749   9.225 -0.6733 -0.6472  0.3226
  105OSM   H15S10732   3.526   4.832   9.248 -1.7816 -1.8406  1.5080
  105OSM   H15T10733   3.532   4.658   9.227 -2.5035  0.5115 -1.6048
  105OSM   C16S10734   3.633   4.758   9.074 -0.3492  0.0201  0.2273
  105OSM   H16S10735   3.712   4.686   9.043  0.3860  1.2679 -0.8959
  105OSM   H16T10736   3.681   4.858   9.070  0.5642 -0.4265 -0.1766
  105OSM   C17S10737   3.521   4.775   8.976  0.7240  0.4299 -0.5260
  105OSM   H17S10738   3.453   4.856   9.010 -0.2271 -0.7674  0.5256
  105OSM   H17T10739   3.469   4.677   8.960  2.4989 -0.5927 -0.2833
  105OSM   C18S10740   3.571   4.800   8.837  0.1085 -0.1564 -0.2269
  105OSM   H18S10741   3.606   4.711   8.780 -1.9838 -0.2148 -1.5278
  105OSM   H18T10742   3.657   4.869   8.830  0.0040 -0.1117 -5.4847
  105OSM   H18U10743   3.492   4.841   8.770  0.7107  1.2218 -0.1169
  105OSM    C1F10744   3.382   4.708  10.430  0.1336 -0.3665 -0.3146
  105OSM     OF10745   3.437   4.813  10.454 -0.1597  0.3990 -0.3295
  105OSM    C2F10746   3.266   4.685  10.339  0.3454  0.1284  0.0006
  105OSM    H2F10747   3.186   4.760  10.353 -0.4677 -0.2948 -1.9508
  105OSM    H2G10748   3.248   4.575  10.348  1.3211 -0.1330 -0.9383
  105OSM    C3F10749   3.317   4.712  10.193 -0.2084  0.6308  0.7509
  105OSM    H3F10750   3.345   4.819  10.198  1.4319  0.2571  0.0727
  105OSM    H3G10751   3.238   4.711  10.115  0.2996 -3.3462  0.0580
  105OSM    C4F10752   3.427   4.618  10.133 -0.2779  0.5409  0.3738
  105OSM    H4F10753   3.506   4.595  10.208  1.0469  2.8674 -0.2309
  105OSM    H4G10754   3.480   4.670  10.051 -1.1148  1.0414  0.1308
  105OSM    C5F10755   3.364   4.491  10.077  0.7209  0.1678 -0.6554
  105OSM    H5F10756   3.289   4.443  10.143  1.3431  0.2531  0.1413
  105OSM    H5G10757   3.445   4.417  10.059 -0.0352 -1.3161  1.5623
  105OSM    C6F10758   3.293   4.508   9.945  0.0393 -0.0442 -0.0482
  105OSM    H6F10759   3.366   4.563   9.881 -0.0485 -0.6380 -0.6771
  105OSM    H6G10760   3.201   4.568   9.955 -0.6077 -0.4237 -2.8184
  105OSM    C7F10761   3.269   4.372   9.881  0.5153 -0.4749  0.2242
  105OSM    H7F10762   3.197   4.311   9.939 -0.2931 -0.1413 -0.3992
  105OSM    H7G10763   3.367   4.320   9.876  0.6946 -0.0850 -0.4928
  105OSM    C8F10764   3.230   4.377   9.727 -0.0942 -0.4893 -0.2055
  105OSM    H8F10765   3.220   4.275   9.684 -0.8933  0.0703 -1.3855
  105OSM    H8G10766   3.318   4.430   9.686  0.6361 -0.8758  0.8132
  105OSM    C9F10767   3.111   4.463   9.689  0.1157  0.3134  0.1781
  105OSM    H9F10768   3.023   4.459   9.755  1.8605  1.7559  2.7760
  105OSM   C10F10769   3.102   4.531   9.574  0.6378  0.1141  0.4159
  105OSM   H10F10770   3.006   4.580   9.557  0.4267 -0.8566 -1.4470
  105OSM   C11F10771   3.194   4.535   9.456 -0.1532 -0.4585  0.1171
  105OSM   H11F10772   3.291   4.486   9.481  0.6533  0.7254 -0.6085
  105OSM   H11G10773   3.230   4.637   9.435  2.1431 -1.1889  0.2399
  105OSM   C12F10774   3.136   4.478   9.320  0.1028  0.0141  0.8821
  105OSM   H12F10775   3.033   4.511   9.293  0.6781  1.5280  0.4375
  105OSM   H12G10776   3.133   4.371   9.349 -2.3432  0.0119  0.8251
  105OSM   C13F10777   3.221   4.508   9.210 -0.0409  0.4221  0.0459
  105OSM   H13F10778   3.321   4.470   9.239 -0.5885  0.1022  1.5908
  105OSM   H13G10779   3.218   4.613   9.174 -2.4871  0.3217 -0.2144
  105OSM   C14F10780   3.168   4.430   9.084 -0.0797 -0.3450  0.3997
  105OSM   H14F10781   3.069   4.457   9.042  0.9194  1.8655 -0.7256
  105OSM   H14G10782   3.168   4.323   9.112 -0.0394 -0.4971 -0.1668
  105OSM   C15F10783   3.269   4.438   8.966  0.4005 -0.0081 -0.8815
  105OSM   H15F10784   3.372   4.416   9.002  0.5979  1.9998 -0.0906
  105OSM   H15G10785   3.271   4.546   8.938 -2.3056  0.3990  0.1372
  105OSM   C16F10786   3.220   4.344   8.855 -0.1612 -0.7131 -0.4246
  105OSM   H16F10787   3.119   4.378   8.824 -0.2004  0.9122  1.3223
  105OSM   H16G10788   3.211   4.241   8.895  0.4006 -0.1778  1.1297
  105OSM   C17F10789   3.324   4.326   8.735  0.2796 -0.1134  0.0012
  105OSM   H17F10790   3.281   4.257   8.659  3.3722  0.1968 -2.2058
  105OSM   H17G10791   3.416   4.285   8.782  1.0732  2.0839  0.4810
  105OSM   C18F10792   3.359   4.458   8.663  0.1731 -0.0601 -0.0064
  105OSM   H18F10793   3.424   4.529   8.718  0.5540  1.1762 -1.9269
  105OSM   H18G10794   3.262   4.498   8.626 -0.7036 -0.8108  1.4092
  105OSM   H18H10795   3.414   4.438   8.569 -1.3313 -0.0384 -0.9292
  106OSM      N10796   4.832   2.242  10.803 -0.1223  0.9651  0.1915
  106OSM    C1510797   4.982   2.257  10.812 -0.4968 -0.2905 -0.9684
  106OSM   H15A10798   5.011   2.331  10.739 -3.8557  1.0608 -1.1037
  106OSM   H15B10799   5.042   2.170  10.787  0.0453  0.6027 -2.9040
  106OSM   H15C10800   5.008   2.289  10.912 -1.9799 -2.1114  0.0643
  106OSM    C1410801   4.781   2.257  10.660 -0.3205  0.0414  0.3750
  106OSM   H14A10802   4.675   2.251  10.644 -0.1233 -1.1231 -0.6405
  106OSM   H14B10803   4.827   2.182  10.597  0.4615  0.3851  0.5207
  106OSM   H14C10804   4.799   2.355  10.618 -0.4966  0.2288  0.7309
  106OSM    C1310805   4.806   2.105  10.848  0.6383 -0.3695  0.3328
  106OSM   H13A10806   4.841   2.025  10.784  1.0696  0.8198 -0.9670
  106OSM   H13B10807   4.700   2.093  10.863  0.4336  0.3402 -0.4699
  106OSM   H13C10808   4.846   2.083  10.946 -2.3387 -0.2318  1.6938
  106OSM    C1210809   4.760   2.344  10.898  0.5916 -0.5408  0.4591
  106OSM   H12A10810   4.788   2.442  10.862  2.0999 -1.4093 -0.8855
  106OSM   H12B10811   4.809   2.335  10.994  2.4749  0.2813 -0.3642
  106OSM    C1110812   4.605   2.335  10.913  0.0691 -0.3227  0.0830
  106OSM   H11A10813   4.553   2.381  10.827 -1.7819  0.2432  1.4324
  106OSM   H11B10814   4.583   2.408  10.995 -1.5607  2.3816 -2.5598
  106OSM      P10815   4.404   2.181  10.945  0.1418  0.5671  0.4090
  106OSM    O1310816   4.377   2.043  10.996 -0.4794 -0.1444 -0.0273
  106OSM    O1410817   4.327   2.297  10.994 -0.5655  0.1867  0.5065
  106OSM    O1110818   4.393   2.183  10.787 -0.2271  0.7378  0.0477
  106OSM    O1210819   4.560   2.208  10.957  0.4961 -0.1082  0.3825
  106OSM    C1S10820   4.447   2.072  10.717 -0.6047  0.2411  0.1084
  106OSM    H1S10821   4.428   1.971  10.759  2.8615 -1.6863 -2.3923
  106OSM    H1T10822   4.558   2.070  10.715 -0.6049 -1.2055  0.1697
  106OSM     NF10823   4.418   2.149  10.479 -0.5258 -0.3507  0.5992
  106OSM    HNF10824   4.356   2.220  10.445  0.9051  0.5295 -0.2781
  106OSM    C2S10825   4.375   2.052  10.580 -0.1974  0.2584 -0.3928
  106OSM    H2S10826   4.411   1.952  10.546 -0.1806  0.2995 -0.4960
  106OSM    C3S10827   4.220   2.037  10.601  0.0787 -0.5556 -0.6644
  106OSM    H3S10828   4.172   2.125  10.649  0.2475 -1.8579  2.0761
  106OSM     O310829   4.188   1.932  10.692  0.3797  0.0909  0.2330
  106OSM    HO310830   4.277   1.898  10.707  0.6361  1.0914  1.1113
  106OSM    C4S10831   4.156   2.009  10.471 -0.4684 -0.1004 -0.1041
  106OSM    H4S10832   4.177   1.912  10.424  1.7749  0.3580 -0.1771
  106OSM    C5S10833   4.074   2.085  10.403  0.4299 -0.4320 -0.4864
  106OSM    H5S10834   4.037   2.181  10.442 -1.3479 -0.8055 -1.1444
  106OSM    C6S10835   4.019   2.037  10.273  0.4065  0.2732  0.3741
  106OSM    H6S10836   3.910   2.060  10.273 -0.0443 -1.6425  0.9448
  106OSM    H6T10837   4.047   1.930  10.258 -0.0840  0.2093 -0.1126
  106OSM    C7S10838   4.104   2.095  10.150 -0.8025 -0.0393  0.0162
  106OSM    H7S10839   4.203   2.044  10.149 -0.3268  0.8663 -0.6664
  106OSM    H7T10840   4.115   2.202  10.177 -0.2287 -0.0011 -0.3457
  106OSM    C8S10841   4.045   2.065  10.017  0.6652  0.6869 -0.6802
  106OSM    H8S10842   3.937   2.090  10.026  0.4072 -1.0494  4.5953
  106OSM    H8T10843   4.040   1.954  10.007  0.3706  0.7266 -0.9994
  106OSM    C9S10844   4.104   2.131   9.889  0.2349 -0.3231  0.5753
  106OSM    H9S10845   4.205   2.085   9.883 -0.7752 -2.4081 -2.9558
  106OSM    H9T10846   4.106   2.242   9.902  2.3692 -0.0077 -1.7977
  106OSM   C10S10847   4.021   2.083   9.777  0.2215  0.2656 -0.0220
  106OSM   H10S10848   3.933   2.151   9.770  1.5359  2.0766  0.2372
  106OSM   H10T10849   3.967   1.987   9.793 -0.3320  0.6919  0.7005
  106OSM   C11S10850   4.098   2.087   9.654 -0.0447 -0.3209 -0.7770
  106OSM   H11S10851   4.161   1.996   9.646 -1.0118 -0.9708 -1.2422
  106OSM   H11T10852   4.156   2.182   9.649 -0.6714  0.1689  0.6969
  106OSM   C12S10853   4.007   2.081   9.529 -0.0871  0.2475  1.0553
  106OSM   H12S10854   3.944   2.169   9.508  0.6283  0.5064 -0.1038
  106OSM   H12T10855   3.936   2.000   9.555 -2.0654  1.9687  1.2118
  106OSM   C13S10856   4.086   2.045   9.405 -0.3391 -0.0094  0.2783
  106OSM   H13S10857   4.149   1.954   9.420  1.1991  0.7629 -1.2385
  106OSM   H13T10858   4.156   2.128   9.384  0.4669 -0.6743  0.2808
  106OSM   C14S10859   3.990   2.027   9.284 -0.7365  0.6896  0.0780
  106OSM   H14S10860   3.911   2.105   9.280 -1.9904 -0.2762  3.1492
  106OSM   H14T10861   3.940   1.929   9.302 -1.9030  1.6188  2.2585
  106OSM   C15S10862   4.076   2.025   9.146  0.3969  0.0357 -0.0629
  106OSM   H15S10863   4.132   2.120   9.135  0.2462  0.2288  0.7462
  106OSM   H15T10864   3.992   2.035   9.074  1.1716  0.4401 -0.9339
  106OSM   C16S10865   4.146   1.902   9.115  0.3455  0.5476 -0.2900
  106OSM   H16S10866   4.070   1.821   9.118 -0.1968  1.0332 -0.5949
  106OSM   H16T10867   4.233   1.881   9.182 -1.8785 -0.4672  2.4752
  106OSM   C17S10868   4.186   1.913   8.973  1.3176  1.0203 -0.2823
  106OSM   H17S10869   4.244   2.006   8.950 -0.7831  2.1299 -1.3678
  106OSM   H17T10870   4.098   1.924   8.906  0.1979  2.6831  1.3594
  106OSM   C18S10871   4.289   1.812   8.917 -0.6945  0.8380 -1.1445
  106OSM   H18S10872   4.300   1.821   8.807  0.0300  2.4499 -0.9787
  106OSM   H18T10873   4.271   1.706   8.944 -0.7104  1.0976 -0.0462
  106OSM   H18U10874   4.389   1.835   8.961 -0.3504  1.3184 -2.1450
  106OSM    C1F10875   4.542   2.155  10.434 -0.1911 -0.2116 -0.6280
  106OSM     OF10876   4.627   2.079  10.475 -0.4574 -0.0913  0.7399
  106OSM    C2F10877   4.575   2.256  10.328  0.0803  0.4884 -0.6392
  106OSM    H2F10878   4.672   2.220  10.289  0.8385 -1.1322  2.4554
  106OSM    H2G10879   4.581   2.360  10.368 -1.3897 -0.3228  1.9690
  106OSM    C3F10880   4.472   2.251  10.213 -0.2748  0.6717 -0.1349
  106OSM    H3F10881   4.364   2.265  10.235  0.1879  1.8134  1.6190
  106OSM    H3G10882   4.477   2.147  10.174  0.0408  0.3974  0.6053
  106OSM    C4F10883   4.514   2.346  10.104 -0.1507  0.2861  0.1519
  106OSM    H4F10884   4.617   2.318  10.073 -1.0347 -0.3309 -2.4784
  106OSM    H4G10885   4.523   2.450  10.144  3.6139  0.6379 -1.2493
  106OSM    C5F10886   4.420   2.330   9.982  0.0129 -0.5503  0.4890
  106OSM    H5F10887   4.329   2.390  10.001 -1.8652 -2.3028 -2.3580
  106OSM    H5G10888   4.390   2.225   9.963  0.0266  0.0100 -3.2764
  106OSM    C6F10889   4.486   2.366   9.851  0.4881  0.0608  0.4348
  106OSM    H6F10890   4.569   2.298   9.822  0.5268  0.3292 -0.1049
  106OSM    H6G10891   4.531   2.467   9.857 -1.6026  1.1404 -0.8161
  106OSM    C7F10892   4.372   2.373   9.742 -0.1638 -0.1995 -0.8141
  106OSM    H7F10893   4.291   2.440   9.777 -0.0894  0.2848 -1.5306
  106OSM    H7G10894   4.345   2.267   9.721  2.0800 -1.2230  1.0162
  106OSM    C8F10895   4.427   2.442   9.612 -0.1022  0.2990 -0.8778
  106OSM    H8F10896   4.535   2.420   9.598  0.5252  1.3583  1.7119
  106OSM    H8G10897   4.428   2.547   9.646  2.0487  0.0038  0.1393
  106OSM    C9F10898   4.332   2.413   9.501 -0.1387  0.3794  0.6778
  106OSM    H9F10899   4.237   2.465   9.485 -0.6412 -1.2821 -2.7507
  106OSM   C10F10900   4.361   2.339   9.389  0.3767  0.1458 -0.1450
  106OSM   H10F10901   4.282   2.340   9.313  0.0794  1.8451  0.1583
  106OSM   C11F10902   4.489   2.260   9.361  0.9582  0.4868 -0.5627
  106OSM   H11F10903   4.563   2.269   9.444  2.0581  0.5509 -1.5171
  106OSM   H11G10904   4.546   2.288   9.270  2.4960  1.5636  0.6576
  106OSM   C12F10905   4.468   2.110   9.344  0.2493  1.3867  0.3675
  106OSM   H12F10906   4.560   2.072   9.295 -0.4302  0.4593 -0.2168
  106OSM   H12G10907   4.396   2.094   9.261 -0.3997 -1.0297  1.3267
  106OSM   C13F10908   4.446   2.027   9.470  0.1742  0.2512 -0.1395
  106OSM   H13F10909   4.339   2.047   9.495  0.6541  1.4043  1.1581
  106OSM   H13G10910   4.502   2.070   9.556  3.3149 -0.5423 -1.6658
  106OSM   C14F10911   4.481   1.884   9.436  0.3002  1.3055 -0.2012
  106OSM   H14F10912   4.592   1.873   9.433  0.2874  1.0680  0.1352
  106OSM   H14G10913   4.451   1.848   9.335  0.6693 -1.8685  0.7052
  106OSM   C15F10914   4.436   1.778   9.542  0.6412  0.4878  0.3447
  106OSM   H15F10915   4.440   1.674   9.501  2.6122  0.0485  1.5059
  106OSM   H15G10916   4.330   1.787   9.573  0.9501  1.7853  1.0991
  106OSM   C16F10917   4.519   1.781   9.673 -0.1428 -0.2360 -0.3029
  106OSM   H16F10918   4.624   1.797   9.641 -1.0774 -0.2038 -3.7789
  106OSM   H16G10919   4.512   1.688   9.734  0.3464  0.6901  1.1979
  106OSM   C17F10920   4.466   1.888   9.782  0.0567 -0.3834 -0.4862
  106OSM   H17F10921   4.357   1.906   9.783  0.3259  1.5531 -1.5229
  106OSM   H17G10922   4.521   1.981   9.754 -0.8591  0.8921  1.6905
  106OSM   C18F10923   4.498   1.861   9.934 -0.0470 -0.3570 -0.5692
  106OSM   H18F10924   4.414   1.803   9.977 -0.8373  0.7241 -0.6378
  106OSM   H18G10925   4.512   1.950   9.999 -0.9272 -1.2395  0.8996
  106OSM   H18H10926   4.601   1.819   9.942  0.1095  0.3158  1.4314
  107OSM      N10927   3.552   6.256  10.995  0.9709  0.7362 -0.0380
  107OSM    C1510928   3.465   6.222  10.880  0.1895  0.0092 -0.0335
  107OSM   H15A10929   3.360   6.220  10.904 -0.2250  0.3532 -1.6737
  107OSM   H15B10930   3.497   6.135  10.823  0.9595 -0.1064  0.5606
  107OSM   H15C10931   3.471   6.304  10.809 -0.0012  1.8020  1.9412
  107OSM    C1410932   3.471   6.315  11.101 -0.0805 -0.1614 -0.5202
  107OSM   H14A10933   3.526   6.347  11.188  0.4884  1.0545 -1.3095
  107OSM   H14B10934   3.398   6.238  11.126  0.5427 -0.6374 -0.1438
  107OSM   H14C10935   3.409   6.395  11.064  0.5734  0.5036 -0.1990
  107OSM    C1310936   3.619   6.127  11.039  0.0691 -0.8462 -0.5214
  107OSM   H13A10937   3.685   6.092  10.961  0.6913 -1.1247  0.1260
  107OSM   H13B10938   3.554   6.044  11.062  0.4101 -0.6993  1.1213
  107OSM   H13C10939   3.689   6.144  11.119 -0.3981 -0.7361 -0.1359
  107OSM    C1210940   3.657   6.346  10.946  0.7049 -0.9811 -0.2099
  107OSM   H12A10941   3.725   6.367  11.027  0.2308  1.6588 -0.4343
  107OSM   H12B10942   3.604   6.434  10.916 -0.2813 -1.2496  0.6724
  107OSM    C1110943   3.748   6.294  10.827 -0.0183 -0.4973  0.6986
  107OSM   H11A10944   3.814   6.379  10.798 -1.6527  0.4764 -0.3546
  107OSM   H11B10945   3.683   6.277  10.739  0.5104 -1.5091  0.4837
  107OSM      P10946   3.951   6.200  10.942 -0.4377 -0.3278  0.0073
  107OSM    O1310947   3.939   6.327  11.017  0.3763  0.3202 -0.4689
  107OSM    O1410948   3.977   6.078  11.014  0.2208  0.0744  0.4921
  107OSM    O1110949   4.056   6.222  10.825 -0.0447 -0.0036  0.0049
  107OSM    O1210950   3.820   6.172  10.856 -0.1145  0.4163  0.0894
  107OSM    C1S10951   4.106   6.120  10.741 -0.6367 -0.3390  0.3572
  107OSM    H1S10952   4.025   6.048  10.715 -0.1418 -0.7434 -0.0662
  107OSM    H1T10953   4.181   6.063  10.799 -0.8977  1.4482  2.6054
  107OSM     NF10954   4.186   6.073  10.520 -0.8304 -0.1721 -0.3972
  107OSM    HNF10955   4.277   6.033  10.514  0.2684  2.1965 -0.7946
  107OSM    C2S10956   4.168   6.178  10.615  0.9100  0.1691  0.2317
  107OSM    H2S10957   4.087   6.246  10.580  2.4002  2.3163  0.8165
  107OSM    C3S10958   4.295   6.268  10.647  0.3865  1.1409  0.1799
  107OSM    H3S10959   4.387   6.217  10.682 -0.4586  1.3500  2.9305
  107OSM     O310960   4.274   6.364  10.754 -0.0476  0.1244  0.4099
  107OSM    HO310961   4.188   6.346  10.793  0.6076 -3.8544  0.4425
  107OSM    C4S10962   4.332   6.351  10.524 -0.2865  0.4002  0.0475
  107OSM    H4S10963   4.277   6.439  10.488 -1.0513 -0.3587 -0.6734
  107OSM    C5S10964   4.449   6.332  10.456 -0.4004 -0.0421 -0.1409
  107OSM    H5S10965   4.506   6.245  10.492 -0.6723 -0.4720 -0.7373
  107OSM    C6S10966   4.508   6.409  10.340  0.0782  0.6529 -0.1987
  107OSM    H6S10967   4.612   6.380  10.312 -1.1963 -2.0085 -2.6591
  107OSM    H6T10968   4.495   6.518  10.357 -1.1939  0.3578  0.8504
  107OSM    C7S10969   4.427   6.382  10.212  0.0844  0.2769 -0.1020
  107OSM    H7S10970   4.471   6.437  10.127  1.3414  0.1063  0.4234
  107OSM    H7T10971   4.320   6.412  10.220  0.3434  1.0900  0.4192
  107OSM    C8S10972   4.424   6.232  10.161 -0.1820  0.3994 -0.3235
  107OSM    H8S10973   4.352   6.175  10.223  0.7707  0.6539  1.0560
  107OSM    H8T10974   4.522   6.184  10.177  1.1165  1.9877 -2.8503
  107OSM    C9S10975   4.396   6.213  10.013  1.2217  0.4467  0.3786
  107OSM    H9S10976   4.323   6.293   9.984  1.4970  0.0015 -1.6355
  107OSM    H9T10977   4.346   6.115   9.998  0.9861  0.5678  0.3569
  107OSM   C10S10978   4.514   6.217   9.909 -0.2321  0.2259  0.4835
  107OSM   H10S10979   4.580   6.136   9.947 -0.2817 -0.3799 -0.6741
  107OSM   H10T10980   4.559   6.318   9.919 -2.0474  0.8949  2.5938
  107OSM   C11S10981   4.467   6.185   9.763 -0.8148  0.8818  0.4503
  107OSM   H11S10982   4.382   6.255   9.751 -1.7260 -0.2177  0.3078
  107OSM   H11T10983   4.429   6.080   9.762 -0.5985  0.7212 -3.0589
  107OSM   C12S10984   4.580   6.212   9.660  0.6703  0.3717  0.3774
  107OSM   H12S10985   4.663   6.138   9.663 -0.2159 -0.6292  0.9324
  107OSM   H12T10986   4.622   6.314   9.670 -1.6786  1.4986 -0.5901
  107OSM   C13S10987   4.531   6.208   9.514 -0.5066  0.5890  0.2992
  107OSM   H13S10988   4.596   6.273   9.451  0.6577  0.0772  0.9249
  107OSM   H13T10989   4.429   6.250   9.506 -0.1890  1.1386 -1.1261
  107OSM   C14S10990   4.539   6.060   9.467  0.3000  0.8066 -0.0281
  107OSM   H14S10991   4.471   5.991   9.522 -1.0550  1.3379 -0.9678
  107OSM   H14T10992   4.644   6.030   9.483 -0.0121 -0.1442  0.2920
  107OSM   C15S10993   4.519   6.037   9.314 -0.1882 -0.3636 -0.1224
  107OSM   H15S10994   4.514   5.927   9.298 -2.5479 -0.4275  0.7169
  107OSM   H15T10995   4.609   6.081   9.267 -0.0487 -0.6121 -0.0928
  107OSM   C16S10996   4.391   6.101   9.257  0.8652  0.4533  0.0475
  107OSM   H16S10997   4.389   6.212   9.266  1.9109  0.5433 -0.6704
  107OSM   H16T10998   4.311   6.054   9.319  0.8019 -0.8311 -0.9552
  107OSM   C17S10999   4.375   6.050   9.112 -0.3178 -0.3494 -0.1042
  107OSM   H17S11000   4.394   5.942   9.129  0.0695  0.1431  3.2532
  107OSM   H17T11001   4.453   6.083   9.040 -2.1692 -2.6943 -3.4516
  107OSM   C18S11002   4.241   6.094   9.045  0.5270 -0.3586 -0.5261
  107OSM   H18S11003   4.167   6.062   9.122  0.6668 -1.2451 -0.7504
  107OSM   H18T11004   4.233   6.030   8.956 -2.0577 -0.4034 -0.3557
  107OSM   H18U11005   4.237   6.204   9.025 -1.8748 -0.1121  0.8989
  107OSM    C1F11006   4.084   6.029  10.442 -0.1386 -0.3883  0.4404
  107OSM     OF11007   3.971   6.063  10.469 -0.4053  0.2322  0.5484
  107OSM    C2F11008   4.115   5.942  10.321 -0.3200  0.5268 -0.1120
  107OSM    H2F11009   4.130   5.837  10.354  0.3239  0.4784 -0.5440
  107OSM    H2G11010   4.212   5.974  10.279 -0.6294  2.3551  0.4868
  107OSM    C3F11011   3.995   5.949  10.231  0.1084  0.2433  0.3903
  107OSM    H3F11012   3.963   6.054  10.215 -0.3870 -0.0180 -0.4298
  107OSM    H3G11013   3.904   5.901  10.273 -2.8381  2.9534 -2.3170
  107OSM    C4F11014   4.004   5.878  10.093 -0.4816 -0.0019 -0.7076
  107OSM    H4F11015   3.989   5.770  10.115 -3.0955  0.6903  1.4482
  107OSM    H4G11016   4.107   5.892  10.053 -0.5630 -0.8387 -1.2410
  107OSM    C5F11017   3.896   5.920  10.002  0.5217 -0.2004 -0.0847
  107OSM    H5F11018   3.889   6.031  10.004  3.5649  0.0649 -0.2725
  107OSM    H5G11019   3.800   5.873  10.031 -0.7899  0.7293 -2.5854
  107OSM    C6F11020   3.938   5.892   9.855 -0.3611  0.6484 -0.6625
  107OSM    H6F11021   3.962   5.784   9.855  0.1691  0.7510 -1.6054
  107OSM    H6G11022   4.029   5.949   9.828  0.7503  0.9857  3.2634
  107OSM    C7F11023   3.825   5.924   9.753 -0.5554  0.2626  0.1852
  107OSM    H7F11024   3.780   6.022   9.778 -0.7973  0.0182  0.7410
  107OSM    H7G11025   3.743   5.853   9.781  0.3552 -1.3653 -1.0539
  107OSM    C8F11026   3.877   5.918   9.609 -0.0099 -0.2435  0.4980
  107OSM    H8F11027   3.947   5.837   9.580  0.5190 -0.1995  1.6113
  107OSM    H8G11028   3.944   6.005   9.596 -1.0250  0.4305 -0.4409
  107OSM    C9F11029   3.768   5.938   9.497  0.0620 -0.0948 -0.4653
  107OSM    H9F11030   3.712   6.032   9.510 -0.2643 -0.2356 -0.8266
  107OSM   C10F11031   3.697   5.842   9.431 -0.4067  0.5305 -0.1750
  107OSM   H10F11032   3.612   5.866   9.366  0.0223 -0.3788 -1.0983
  107OSM   C11F11033   3.728   5.689   9.442  0.4771  0.2849  0.1960
  107OSM   H11F11034   3.675   5.647   9.530  0.7465 -2.4578 -0.8526
  107OSM   H11G11035   3.836   5.668   9.451  0.4379 -0.5955 -1.1068
  107OSM   C12F11036   3.682   5.613   9.311 -0.3693 -0.2566 -0.2317
  107OSM   H12F11037   3.574   5.629   9.288 -0.3084  1.1687  0.3642
  107OSM   H12G11038   3.695   5.503   9.322  1.2424 -0.3898 -2.7135
  107OSM   C13F11039   3.764   5.651   9.189 -1.1458 -0.8304 -0.4555
  107OSM   H13F11040   3.873   5.631   9.205 -0.6232  0.2372 -2.3593
  107OSM   H13G11041   3.763   5.762   9.186 -3.2836 -0.8394 -1.6341
  107OSM   C14F11042   3.726   5.590   9.061  1.1247  0.0240  0.7442
  107OSM   H14F11043   3.620   5.594   9.025  2.0141 -2.6894 -2.7820
  107OSM   H14G11044   3.732   5.479   9.067 -1.3809 -0.4365 -2.3100
  107OSM   C15F11045   3.817   5.639   8.946  0.5828 -0.3655 -0.4300
  107OSM   H15F11046   3.779   5.587   8.856 -1.2710  1.2864 -0.6532
  107OSM   H15G11047   3.920   5.604   8.969  0.4775 -0.0913  0.4953
  107OSM   C16F11048   3.823   5.789   8.928 -0.4841 -0.5419  0.3092
  107OSM   H16F11049   3.886   5.813   9.016  0.4145 -1.2018 -0.1378
  107OSM   H16G11050   3.722   5.836   8.926  0.9062  2.6780 -0.7087
  107OSM   C17F11051   3.892   5.860   8.810 -0.0460  0.5448 -0.0172
  107OSM   H17F11052   3.853   5.830   8.711 -1.2683  1.6358  0.1037
  107OSM   H17G11053   3.998   5.832   8.829  0.1720  1.7805  0.7917
  107OSM   C18F11054   3.901   6.016   8.828 -0.1346 -0.1492 -0.6418
  107OSM   H18F11055   3.805   6.065   8.802  0.5912  0.9474 -1.3284
  107OSM   H18G11056   3.982   6.057   8.763  2.6474 -0.5558  2.3230
  107OSM   H18H11057   3.929   6.058   8.927 -0.8271  0.7597 -0.8165
  108OSM      N11058   0.068   6.188  11.125  0.0504 -0.5222 -0.2365
  108OSM    C1511059   0.072   6.319  11.199 -0.2629 -0.1552 -0.9375
  108OSM   H15A11060   0.172   6.360  11.196  0.3959 -0.9812  3.5908
  108OSM   H15B11061   0.044   6.301  11.302 -1.5733  2.3749 -0.7744
  108OSM   H15C11062  -0.005   6.382  11.156 -1.7149 -0.1049  1.5833
  108OSM    C1411063   0.173   6.093  11.176 -0.5228 -0.9548  0.1646
  108OSM   H14A11064   0.153   6.065  11.279  1.5411 -1.6292  0.4346
  108OSM   H14B11065   0.269   6.143  11.170 -2.0760  2.2143 -0.2016
  108OSM   H14C11066   0.181   6.008  11.110 -0.7829  1.2303 -2.8331
  108OSM    C1311067  -0.068   6.131  11.146  0.4094 -1.2853 -0.3653
  108OSM   H13A11068  -0.069   6.032  11.103 -1.4925 -0.9066 -1.3134
  108OSM   H13B11069  -0.145   6.188  11.097 -0.7585 -0.8399  1.8855
  108OSM   H13C11070  -0.098   6.129  11.249 -2.9388  0.8759 -1.1394
  108OSM    C1211071   0.095   6.217  10.975 -0.3164 -0.4823 -0.5462
  108OSM   H12A11072   0.023   6.288  10.937 -1.4994 -2.2079 -1.6969
  108OSM   H12B11073   0.064   6.127  10.923 -1.3898 -0.8571  0.6819
  108OSM    C1111074   0.231   6.286  10.934  1.1234  0.3841 -0.3366
  108OSM   H11A11075   0.225   6.283  10.823 -0.8612 -0.6779 -0.2461
  108OSM   H11B11076   0.315   6.223  10.971  0.2221 -0.8141 -0.2605
  108OSM      P11077   0.367   6.507  10.935  0.2532  0.3509 -0.4653
  108OSM    O1311078   0.334   6.648  10.958  0.0423  0.1079  0.0678
  108OSM    O1411079   0.485   6.451  11.010 -0.2488 -0.1210  0.5482
  108OSM    O1111080   0.369   6.476  10.774 -0.1682  0.4345 -0.9416
  108OSM    O1211081   0.247   6.421  10.972 -0.6483  0.0279 -0.2497
  108OSM    C1S11082   0.495   6.442  10.717  0.0666 -0.1899  0.4691
  108OSM    H1S11083   0.536   6.349  10.762  1.1420 -0.4606 -0.9867
  108OSM    H1T11084   0.570   6.521  10.736 -0.1695  0.5252 -1.4066
  108OSM     NF11085   0.616   6.369  10.514 -0.1477  1.0311 -0.4098
  108OSM    HNF11086   0.676   6.433  10.468  0.1860  0.1404 -1.2462
  108OSM    C2S11087   0.489   6.417  10.562  0.4653 -0.0056 -0.1689
  108OSM    H2S11088   0.408   6.341  10.559 -1.1001  1.6148 -1.4558
  108OSM    C3S11089   0.429   6.541  10.489 -0.0771  0.1895  0.7398
  108OSM    H3S11090   0.508   6.619  10.492  0.9529 -0.8376  0.8282
  108OSM     O311091   0.314   6.597  10.547 -0.0505  0.0968  1.0845
  108OSM    HO311092   0.294   6.553  10.630 -0.7306 -1.7687 -0.0132
  108OSM    C4S11093   0.405   6.493  10.348 -0.0831 -0.5832  0.5623
  108OSM    H4S11094   0.500   6.474  10.297  0.1712 -2.7782  1.7481
  108OSM    C5S11095   0.287   6.466  10.287  0.2005  0.8045 -0.4677
  108OSM    H5S11096   0.190   6.463  10.338 -0.2034 -0.7133 -1.2884
  108OSM    C6S11097   0.279   6.415  10.143  0.1322 -0.0664 -0.7425
  108OSM    H6S11098   0.383   6.393  10.110  0.1167 -0.1228 -0.7540
  108OSM    H6T11099   0.239   6.486  10.067 -2.3080 -0.9852 -0.3956
  108OSM    C7S11100   0.205   6.277  10.134 -0.0161  0.0080 -0.2910
  108OSM    H7S11101   0.096   6.286  10.154  0.0200 -0.7348  0.3044
  108OSM    H7T11102   0.252   6.206  10.205  1.1586  0.7291 -0.3156
  108OSM    C8S11103   0.220   6.219  10.003  0.3552  0.4511  0.3597
  108OSM    H8S11104   0.329   6.211   9.980  0.3787 -1.4897  0.9835
  108OSM    H8T11105   0.189   6.293   9.926  1.5168  0.0366 -0.5348
  108OSM    C9S11106   0.145   6.088   9.982 -0.3366 -0.4291 -0.3971
  108OSM    H9S11107   0.042   6.119   9.955 -0.3372  0.3240  0.4517
  108OSM    H9T11108   0.142   6.009  10.060  2.2735 -1.2854 -1.0795
  108OSM   C10S11109   0.201   6.012   9.856  0.9064 -0.2537  0.7843
  108OSM   H10S11110   0.151   5.913   9.850 -0.6615  0.5218  0.5553
  108OSM   H10T11111   0.309   5.995   9.877  1.0396  0.8668  1.0627
  108OSM   C11S11112   0.196   6.101   9.738  0.4732 -0.5590  0.3179
  108OSM   H11S11113   0.231   6.205   9.755 -1.1687 -0.0576  0.7351
  108OSM   H11T11114   0.093   6.122   9.704  1.2962  1.0113 -1.4306
  108OSM   C12S11115   0.269   6.042   9.616 -0.1479 -0.5228 -0.2952
  108OSM   H12S11116   0.197   5.960   9.594  0.5312 -1.1592 -0.2137
  108OSM   H12T11117   0.370   6.006   9.645 -0.2891 -0.0119  0.8581
  108OSM   C13S11118   0.278   6.140   9.506 -0.1511  0.5719 -0.5478
  108OSM   H13S11119   0.338   6.227   9.541 -0.2825  0.9749 -1.3049
  108OSM   H13T11120   0.183   6.183   9.468 -0.5196 -1.9990 -2.7801
  108OSM   C14S11121   0.348   6.085   9.381 -0.4033  0.1284  0.5416
  108OSM   H14S11122   0.450   6.059   9.416 -0.9437 -0.3278  1.8534
  108OSM   H14T11123   0.344   6.165   9.303  0.9199  0.3647  0.7062
  108OSM   C15S11124   0.268   5.969   9.314 -0.0949  0.8340  0.0112
  108OSM   H15S11125   0.167   6.006   9.286  0.4424  1.7882 -0.7298
  108OSM   H15T11126   0.252   5.890   9.390 -0.9382  0.1352 -0.8638
  108OSM   C16S11127   0.340   5.911   9.194 -0.1657  0.0704 -0.4281
  108OSM   H16S11128   0.415   5.837   9.230  1.5018 -0.1524 -3.9350
  108OSM   H16T11129   0.399   5.979   9.129 -0.1549  0.2769 -0.2009
  108OSM   C17S11130   0.239   5.832   9.107  0.2443  0.6933 -0.4758
  108OSM   H17S11131   0.165   5.909   9.077 -1.3339  0.2516  1.9855
  108OSM   H17T11132   0.180   5.751   9.154  1.9855 -1.7077 -2.2242
  108OSM   C18S11133   0.309   5.751   8.994  0.2927 -0.5839 -1.0466
  108OSM   H18S11134   0.388   5.687   9.040  0.3808  1.5239  2.0301
  108OSM   H18T11135   0.370   5.816   8.929  0.6782  1.3480  1.1173
  108OSM   H18U11136   0.240   5.687   8.935  1.9314 -2.5735 -0.9345
  108OSM    C1F11137   0.643   6.244  10.548 -0.0827  0.1693 -0.0167
  108OSM     OF11138   0.558   6.165  10.589  0.0164 -0.4074  0.0197
  108OSM    C2F11139   0.783   6.199  10.550  0.3620 -0.2731 -0.3340
  108OSM    H2F11140   0.809   6.176  10.656  0.8799 -0.6072 -0.5305
  108OSM    H2G11141   0.860   6.273  10.519 -1.4273  1.4587 -0.8234
  108OSM    C3F11142   0.808   6.067  10.471  0.3234 -0.1187  0.7873
  108OSM    H3F11143   0.752   6.052  10.376  1.1066 -2.5251  0.6309
  108OSM    H3G11144   0.770   5.982  10.532 -1.4424  0.0803  0.0098
  108OSM    C4F11145   0.957   6.036  10.441  0.1566 -0.7427  0.0718
  108OSM    H4F11146   1.000   6.048  10.542 -0.5604 -0.6078  0.3656
  108OSM    H4G11147   1.005   6.107  10.370 -0.0328 -0.5597  0.1306
  108OSM    C5F11148   0.982   5.893  10.401  0.0528 -0.1041  0.4499
  108OSM    H5F11149   0.912   5.836  10.465 -0.2945 -1.0267 -0.7305
  108OSM    H5G11150   1.090   5.867  10.412 -0.6195 -2.4918  2.2529
  108OSM    C6F11151   0.932   5.858  10.262  0.4395 -0.0466 -0.1083
  108OSM    H6F11152   1.018   5.874  10.194 -0.0588 -0.4980 -0.8667
  108OSM    H6G11153   0.850   5.927  10.234 -0.0730 -0.2370  0.8689
  108OSM    C7F11154   0.893   5.715  10.244 -0.4377  0.3412 -0.3037
  108OSM    H7F11155   0.824   5.689  10.327 -0.2257  0.6157 -0.0381
  108OSM    H7G11156   0.986   5.655  10.254 -0.0445  0.7139 -1.5241
  108OSM    C8F11157   0.826   5.681  10.106 -0.1514 -0.2060 -0.2840
  108OSM    H8F11158   0.744   5.753  10.084  0.8852  0.3877 -2.4499
  108OSM    H8G11159   0.781   5.579  10.111 -1.5201  0.4300  1.8590
  108OSM    C9F11160   0.933   5.682   9.999  0.0890  0.4451 -0.4131
  108OSM    H9F11161   0.996   5.592  10.003  0.6158  0.7420 -1.6448
  108OSM   C10F11162   0.958   5.774   9.910  0.5264 -0.9144 -0.5310
  108OSM   H10F11163   1.048   5.761   9.847  0.9722  0.8683 -0.3227
  108OSM   C11F11164   0.879   5.899   9.880  0.2548  0.7845  0.1046
  108OSM   H11F11165   0.925   5.983   9.935 -2.5915  1.9679  0.8702
  108OSM   H11G11166   0.771   5.885   9.902  0.1681  0.7533 -0.3269
  108OSM   C12F11167   0.891   5.935   9.735  0.5686 -0.6876  0.1547
  108OSM   H12F11168   0.996   5.960   9.710  1.0211 -1.3000  1.3494
  108OSM   H12G11169   0.830   6.027   9.721 -0.5230 -1.5910 -1.2921
  108OSM   C13F11170   0.834   5.832   9.642 -0.5117  0.2111 -0.1192
  108OSM   H13F11171   0.736   5.796   9.680  0.7135  0.3303  3.5267
  108OSM   H13G11172   0.897   5.740   9.632 -0.0488  0.6953 -2.3573
  108OSM   C14F11173   0.822   5.867   9.493 -0.6433  0.0852 -0.2331
  108OSM   H14F11174   0.914   5.870   9.432 -1.9792 -1.0088 -2.4470
  108OSM   H14G11175   0.790   5.973   9.483  3.3585  1.3548 -1.5039
  108OSM   C15F11176   0.734   5.756   9.429  0.0971  0.1672  0.0052
  108OSM   H15F11177   0.630   5.767   9.464 -0.8382 -0.4538 -2.3541
  108OSM   H15G11178   0.769   5.653   9.453  2.1811  0.7560 -0.2755
  108OSM   C16F11179   0.736   5.766   9.277 -0.5646  0.3863  0.4607
  108OSM   H16F11180   0.662   5.694   9.236 -0.6305  1.0162 -0.5841
  108OSM   H16G11181   0.834   5.735   9.235 -1.2945 -0.7125 -0.4939
  108OSM   C17F11182   0.697   5.908   9.229  0.2669  0.3836  0.3816
  108OSM   H17F11183   0.777   5.971   9.273 -0.8928  2.2114 -0.0137
  108OSM   H17G11184   0.600   5.939   9.273  0.1937  1.1763 -0.3131
  108OSM   C18F11185   0.688   5.925   9.071 -0.1637  0.4501 -0.5134
  108OSM   H18F11186   0.626   5.844   9.026 -1.1054  0.4980  0.6585
  108OSM   H18G11187   0.790   5.902   9.033 -0.4149  0.7016 -1.3727
  108OSM   H18H11188   0.661   6.030   9.047  3.1746  1.9687  1.5725
  109OSM      N11189   3.251   0.068  11.127  0.4068  0.3839 -0.2355
  109OSM    C1511190   3.168   0.072  10.995 -0.1815  0.3047 -0.4982
  109OSM   H15A11191   3.215   0.025  10.910  1.2733  0.3170  0.2650
  109OSM   H15B11192   3.131   0.172  10.982  2.1957  1.3566  0.2902
  109OSM   H15C11193   3.080   0.009  11.000 -0.8415  0.9156 -2.9831
  109OSM    C1411194   3.337   0.193  11.125 -0.4911  0.1417  0.2889
  109OSM   H14A11195   3.377   0.218  11.222 -0.0213 -1.3700  0.5198
  109OSM   H14B11196   3.272   0.276  11.104  0.2282  0.9574  1.2050
  109OSM   H14C11197   3.420   0.186  11.057  0.6311 -0.9490  1.6959
  109OSM    C1311198   3.162   0.090  11.242  0.6308 -0.2709 -0.5916
  109OSM   H13A11199   3.075   0.153  11.227  0.2085 -0.6647  0.1016
  109OSM   H13B11200   3.214   0.129  11.328  0.0894  2.0223 -1.2335
  109OSM   H13C11201   3.124  -0.000  11.288  2.7785 -0.1774  1.5547
  109OSM    C1211202   3.328  -0.061  11.146 -0.2258 -0.2709 -0.6502
  109OSM   H12A11203   3.252  -0.136  11.161 -2.1963  2.0296  1.8314
  109OSM   H12B11204   3.382  -0.051  11.238 -2.0305  1.6756  0.2868
  109OSM    C1111205   3.432  -0.096  11.038 -0.1286 -0.3107 -0.0103
  109OSM   H11A11206   3.387  -0.120  10.939 -0.6952  0.3552  0.0819
  109OSM   H11B11207   3.478  -0.187  11.081 -0.6545 -0.4236  0.3074
  109OSM      P11208   3.670  -0.005  10.956  0.3435  0.0169 -0.3698
  109OSM    O1311209   3.758   0.110  10.980  0.4611 -0.1858 -0.3357
  109OSM    O1411210   3.737  -0.133  10.978 -0.0585 -0.2657 -0.1070
  109OSM    O1111211   3.624  -0.007  10.804 -0.1599 -0.3160 -0.2482
  109OSM    O1211212   3.529   0.011  11.029  0.2013  0.1188 -0.1424
  109OSM    C1S11213   3.727  -0.037  10.711 -0.5206 -0.6717 -0.3758
  109OSM    H1S11214   3.765  -0.138  10.738  1.5251  0.0185 -0.4975
  109OSM    H1T11215   3.809   0.037  10.714  0.0129 -1.1545 -1.9763
  109OSM     NF11216   3.771  -0.110  10.482 -0.0112 -0.5473 -0.1314
  109OSM    HNF11217   3.855  -0.062  10.454 -0.0424 -1.9347 -3.0003
  109OSM    C2S11218   3.672  -0.040  10.562 -0.1015  0.1423  0.3636
  109OSM    H2S11219   3.578  -0.098  10.559  0.4672 -0.7825 -1.4452
  109OSM    C3S11220   3.640   0.105  10.512 -0.4099  0.0171  0.3537
  109OSM    H3S11221   3.745   0.138  10.494  0.1814 -2.0902 -0.3618
  109OSM     O311222   3.580   0.186  10.617 -0.6438 -0.2437  0.7806
  109OSM    HO311223   3.576   0.124  10.690  1.0771 -0.9723  0.2911
  109OSM    C4S11224   3.558   0.103  10.386 -0.3352 -0.2810  1.0754
  109OSM    H4S11225   3.621   0.094  10.297 -1.0799  2.7884  0.1322
  109OSM    C5S11226   3.422   0.113  10.375 -0.2756  0.0385 -0.3916
  109OSM    H5S11227   3.364   0.123  10.468  0.4845 -1.1733  0.2410
  109OSM    C6S11228   3.351   0.112  10.244  0.2717 -0.0644  0.0463
  109OSM    H6S11229   3.262   0.179  10.244  1.3176  1.3818  1.2817
  109OSM    H6T11230   3.325   0.005  10.230 -0.2458  0.0109  0.3962
  109OSM    C7S11231   3.443   0.159  10.125  0.4815 -0.9543  0.5790
  109OSM    H7S11232   3.523   0.081  10.120  1.7662  0.3342  0.3105
  109OSM    H7T11233   3.496   0.256  10.140  1.8680 -1.5798 -0.0362
  109OSM    C8S11234   3.362   0.176   9.995 -0.0021  0.0541 -0.3745
  109OSM    H8S11235   3.274   0.243  10.007 -0.0844  0.4491 -2.7530
  109OSM    H8T11236   3.318   0.075   9.980  0.4315 -0.4072  1.2556
  109OSM    C9S11237   3.449   0.228   9.879  0.0251 -0.2877 -0.1755
  109OSM    H9S11238   3.540   0.165   9.871  3.9248  4.2114  2.9034
  109OSM    H9T11239   3.486   0.325   9.920  1.7703  1.3068 -4.8424
  109OSM   C10S11240   3.362   0.252   9.754 -0.1191 -0.1990 -0.8817
  109OSM   H10S11241   3.304   0.341   9.786  0.5974 -1.0273  3.2955
  109OSM   H10T11242   3.300   0.161   9.742  0.7956 -0.9098 -0.3937
  109OSM   C11S11243   3.432   0.277   9.628 -0.0888 -0.0815 -0.4781
  109OSM   H11S11244   3.493   0.190   9.596  0.1403  0.8292 -2.7449
  109OSM   H11T11245   3.507   0.359   9.633 -0.2225 -0.0255  1.1512
  109OSM   C12S11246   3.330   0.309   9.518 -0.2175  0.3396  0.0074
  109OSM   H12S11247   3.264   0.396   9.538  0.7329  1.1616 -0.3429
  109OSM   H12T11248   3.262   0.221   9.514  0.1632  0.0788 -0.8809
  109OSM   C13S11249   3.401   0.332   9.384  0.1022  0.0216  0.1050
  109OSM   H13S11250   3.431   0.232   9.347 -0.2461 -0.1711  0.3307
  109OSM   H13T11251   3.498   0.380   9.408  0.3317  0.5844 -1.7974
  109OSM   C14S11252   3.319   0.411   9.278  0.0102  0.3442 -0.3235
  109OSM   H14S11253   3.300   0.509   9.327  1.5634 -0.3582  1.8540
  109OSM   H14T11254   3.226   0.360   9.247 -0.1844  0.6799 -0.2936
  109OSM   C15S11255   3.394   0.449   9.144  0.1082  0.3136 -0.6547
  109OSM   H15S11256   3.503   0.446   9.165  0.1717  3.4358 -0.0541
  109OSM   H15T11257   3.377   0.557   9.125 -0.5304  0.8060  2.2376
  109OSM   C16S11258   3.358   0.356   9.029 -0.1002 -0.9411  0.0053
  109OSM   H16S11259   3.254   0.374   8.995  0.8331  0.3333 -2.3900
  109OSM   H16T11260   3.375   0.248   9.051  0.0854 -0.7245  0.9821
  109OSM   C17S11261   3.447   0.391   8.898  0.5211  0.5061 -1.1603
  109OSM   H17S11262   3.553   0.367   8.921  0.4019  1.5349  0.6382
  109OSM   H17T11263   3.433   0.499   8.875  3.0094  1.4311  1.1859
  109OSM   C18S11264   3.395   0.314   8.777 -0.1248 -0.1945  0.4865
  109OSM   H18S11265   3.285   0.302   8.781 -0.1122 -1.3807 -1.3208
  109OSM   H18T11266   3.444   0.215   8.782 -0.0890 -0.1928  0.1657
  109OSM   H18U11267   3.419   0.355   8.676  1.0629 -1.4222  0.2416
  109OSM    C1F11268   3.774  -0.240  10.486  0.4554 -0.0559 -0.4052
  109OSM     OF11269   3.691  -0.308  10.549 -0.3962 -0.1425 -0.0605
  109OSM    C2F11270   3.880  -0.311  10.405 -0.1964 -0.5545  1.0268
  109OSM    H2F11271   3.903  -0.417  10.429  0.2337 -1.3082 -2.2580
  109OSM    H2G11272   3.964  -0.244  10.432 -2.5418  2.7738  0.6685
  109OSM    C3F11273   3.849  -0.308  10.252 -0.2986  0.2506 -0.0801
  109OSM    H3F11274   3.846  -0.202  10.221 -0.3237  0.7379  1.5004
  109OSM    H3G11275   3.753  -0.360  10.228 -1.0221  0.0187  2.9452
  109OSM    C4F11276   3.949  -0.386  10.165  0.3424  0.0688  0.1854
  109OSM    H4F11277   3.981  -0.483  10.209  1.5499  0.4047  0.0740
  109OSM    H4G11278   4.044  -0.329  10.166 -0.6148  1.7176  2.1536
  109OSM    C5F11279   3.894  -0.403  10.023 -0.0916 -0.2773 -0.6083
  109OSM    H5F11280   3.853  -0.311   9.976 -0.1731 -0.2616 -0.5058
  109OSM    H5G11281   3.797  -0.458  10.018  0.5229 -1.2924 -2.7479
  109OSM    C6F11282   3.999  -0.459   9.930 -0.4688  0.5661  0.0805
  109OSM    H6F11283   4.050  -0.549   9.969 -1.6229  0.7587  2.1464
  109OSM    H6G11284   4.085  -0.389   9.919  0.3953 -0.4682  0.1358
  109OSM    C7F11285   3.942  -0.487   9.785  0.1462  0.1788  0.0197
  109OSM    H7F11286   3.872  -0.406   9.755 -3.3078 -1.9240  1.8026
  109OSM    H7G11287   3.872  -0.570   9.807  2.2224 -1.4078  0.9418
  109OSM    C8F11288   4.026  -0.541   9.668 -0.3530  0.4456  0.5837
  109OSM    H8F11289   3.948  -0.588   9.606  0.6817  0.3442 -0.6889
  109OSM    H8G11290   4.078  -0.626   9.718 -1.8282  1.0463  3.3342
  109OSM    C9F11291   4.109  -0.441   9.593 -0.2671 -0.0941  0.4520
  109OSM    H9F11292   4.184  -0.397   9.660 -1.0915 -0.8557  1.9333
  109OSM   C10F11293   4.099  -0.411   9.461  0.2424 -0.3396 -0.0350
  109OSM   H10F11294   4.161  -0.332   9.416 -1.9502  2.1666  1.0792
  109OSM   C11F11295   4.008  -0.466   9.351  0.3863 -0.3521  0.5210
  109OSM   H11F11296   3.955  -0.556   9.390  0.2978 -1.4481 -1.9668
  109OSM   H11G11297   4.079  -0.498   9.272  0.9084  0.8274  0.5022
  109OSM   C12F11298   3.903  -0.366   9.304 -0.2136  0.2655  0.4860
  109OSM   H12F11299   3.940  -0.262   9.290  0.2249  0.3809  2.2195
  109OSM   H12G11300   3.816  -0.361   9.373 -1.2259 -1.3552 -0.6322
  109OSM   C13F11301   3.841  -0.406   9.166 -0.2787 -0.0818  0.2468
  109OSM   H13F11302   3.744  -0.353   9.163  0.3005  0.9775 -1.9376
  109OSM   H13G11303   3.823  -0.516   9.171  0.8432 -0.2302  1.3936
  109OSM   C14F11304   3.927  -0.376   9.044 -0.1549  0.6042 -0.2462
  109OSM   H14F11305   4.016  -0.443   9.042 -1.2978 -1.0865 -4.0121
  109OSM   H14G11306   3.954  -0.269   9.051 -2.2375  1.2282 -0.9509
  109OSM   C15F11307   3.859  -0.398   8.905 -0.0055  0.9266  0.6194
  109OSM   H15F11308   3.751  -0.374   8.918  0.0067  2.6990 -1.8316
  109OSM   H15G11309   3.866  -0.506   8.878  1.3970  0.8531  1.1911
  109OSM   C16F11310   3.917  -0.329   8.786 -1.0522 -0.5166 -0.9812
  109OSM   H16F11311   4.020  -0.369   8.779 -1.7840 -2.8422  0.3851
  109OSM   H16G11312   3.918  -0.219   8.803 -2.1999 -0.4516 -1.2493
  109OSM   C17F11313   3.835  -0.359   8.651  0.1047  0.4439  0.0479
  109OSM   H17F11314   3.743  -0.298   8.662  1.6933  3.0761 -0.3906
  109OSM   H17G11315   3.821  -0.469   8.647  2.1201  0.0547  1.6582
  109OSM   C18F11316   3.915  -0.308   8.534  0.0132 -0.3606  0.1110
  109OSM   H18F11317   3.973  -0.218   8.563  0.7462 -0.8572  0.2169
  109OSM   H18G11318   3.844  -0.289   8.450 -0.6856 -0.9688  0.5521
  109OSM   H18H11319   3.980  -0.381   8.482 -0.1534 -1.1489  0.9896
  110OSM      N11320   4.432   3.443  11.081  0.1504 -1.2817  0.0682
  110OSM    C1511321   4.285   3.391  11.102  0.2695  0.5411 -0.1482
  110OSM   H15A11322   4.219   3.476  11.090 -1.3678 -0.7115 -0.2775
  110OSM   H15B11323   4.258   3.351  11.199 -1.4398  2.4574  0.2461
  110OSM   H15C11324   4.255   3.320  11.027  1.3980 -2.0680  1.7002
  110OSM    C1411325   4.458   3.550  11.179 -0.1229 -0.1739 -0.4074
  110OSM   H14A11326   4.562   3.578  11.168  0.0390 -1.1893 -1.7854
  110OSM   H14B11327   4.438   3.524  11.281  1.9106 -0.6119 -0.0754
  110OSM   H14C11328   4.394   3.635  11.159  1.2851  0.9432 -0.3152
  110OSM    C1311329   4.532   3.328  11.091  0.2184  0.2871  0.0923
  110OSM   H13A11330   4.630   3.362  11.062 -0.7203  4.6279  1.1914
  110OSM   H13B11331   4.503   3.252  11.020 -0.1914  0.2501  0.2941
  110OSM   H13C11332   4.534   3.274  11.184 -2.3615  1.3177  0.8422
  110OSM    C1211333   4.447   3.507  10.950  0.0937 -0.0161 -0.7164
  110OSM   H12A11334   4.477   3.436  10.875  3.0113  1.1302 -0.7465
  110OSM   H12B11335   4.537   3.566  10.947  1.0626 -1.3150  1.3476
  110OSM    C1111336   4.327   3.590  10.891 -0.0179  0.1817 -0.5040
  110OSM   H11A11337   4.237   3.527  10.899 -0.4689  0.9140  0.5440
  110OSM   H11B11338   4.344   3.608  10.783 -1.3652  0.2006 -0.7262
  110OSM      P11339   4.170   3.754  11.011 -0.2928  0.0943  0.0057
  110OSM    O1311340   4.105   3.640  11.071  0.2200  0.7008  0.5094
  110OSM    O1411341   4.184   3.879  11.088 -0.4859 -0.2991 -0.1752
  110OSM    O1111342   4.097   3.791  10.882  0.0566 -0.6795 -0.7017
  110OSM    O1211343   4.312   3.715  10.960 -0.5234 -0.5977 -0.0514
  110OSM    C1S11344   4.113   3.921  10.816  0.6152  0.4646  0.1557
  110OSM    H1S11345   4.213   3.965  10.839  0.6501 -0.7406  2.7251
  110OSM    H1T11346   4.037   3.991  10.859 -2.3416 -1.4351 -1.6155
  110OSM     NF11347   4.098   4.036  10.595  0.0550  0.2912 -0.0280
  110OSM    HNF11348   4.014   4.085  10.569 -1.9197 -2.8639 -0.1125
  110OSM    C2S11349   4.077   3.914  10.669  0.1801 -0.0341 -0.4122
  110OSM    H2S11350   4.136   3.835  10.618  0.7185 -0.9247  1.5084
  110OSM    C3S11351   3.931   3.864  10.657 -0.2562  0.2741  0.3140
  110OSM    H3S11352   3.858   3.922  10.717 -2.8912 -0.8867 -1.5835
  110OSM     O311353   3.920   3.727  10.706 -0.0872  0.1621  0.2369
  110OSM    HO311354   4.002   3.717  10.754 -0.1135 -0.9687  0.0565
  110OSM    C4S11355   3.899   3.863  10.509 -0.3344 -0.1518  0.2834
  110OSM    H4S11356   3.960   3.797  10.445  2.3462  0.3193  2.1629
  110OSM    C5S11357   3.813   3.957  10.455  0.4710  0.0646  0.7455
  110OSM    H5S11358   3.772   4.040  10.513 -2.8430  0.0902 -1.3107
  110OSM    C6S11359   3.777   3.977  10.310  0.2055  0.2829 -0.2042
  110OSM    H6S11360   3.805   4.079  10.274  1.2351  0.3723  0.8154
  110OSM    H6T11361   3.667   3.964  10.301  0.6412 -3.3897 -2.2779
  110OSM    C7S11362   3.844   3.879  10.212  0.0549  1.0101 -0.4564
  110OSM    H7S11363   3.827   3.774  10.244  0.5476  1.4113  1.2112
  110OSM    H7T11364   3.953   3.890  10.232  0.1808 -1.7174  0.7681
  110OSM    C8S11365   3.809   3.911  10.073  0.7598  0.4571 -0.6148
  110OSM    H8S11366   3.809   4.022  10.072 -0.7844  0.6639  3.3486
  110OSM    H8T11367   3.702   3.881  10.061  1.6305 -2.1136 -2.8343
  110OSM    C9S11368   3.895   3.838   9.971  0.2467 -0.3494  0.1150
  110OSM    H9S11369   3.923   3.745  10.026 -0.0860 -0.0326  0.8340
  110OSM    H9T11370   3.991   3.892   9.958 -0.0560  0.7645  2.1156
  110OSM   C10S11371   3.840   3.798   9.832 -0.0880 -0.6305  0.3453
  110OSM   H10S11372   3.741   3.848   9.829  0.5262  0.6968  1.2856
  110OSM   H10T11373   3.820   3.691   9.808 -1.2532 -0.5712  0.9672
  110OSM   C11S11374   3.918   3.847   9.713 -0.5568 -0.0969 -0.6285
  110OSM   H11S11375   4.020   3.805   9.726 -0.5444  0.1803  0.2564
  110OSM   H11T11376   3.922   3.958   9.704  0.2194  0.1522  1.9921
  110OSM   C12S11377   3.858   3.809   9.571  0.1843 -0.6937  0.2848
  110OSM   H12S11378   3.754   3.849   9.567  0.6672  0.4909 -1.5983
  110OSM   H12T11379   3.850   3.698   9.576 -0.3451 -0.6532  5.3548
  110OSM   C13S11380   3.947   3.866   9.459 -0.2867  0.3393 -0.9453
  110OSM   H13S11381   4.047   3.822   9.479 -0.3041  0.6018 -0.2303
  110OSM   H13T11382   3.982   3.969   9.478  0.1360  0.1538 -0.7010
  110OSM   C14S11383   3.907   3.828   9.322  0.7582  0.0008  0.6681
  110OSM   H14S11384   3.804   3.869   9.326  1.1327  0.9275  1.0550
  110OSM   H14T11385   3.906   3.717   9.320  0.8438 -0.0143 -1.5842
  110OSM   C15S11386   3.968   3.876   9.192 -0.1289  0.3101  0.0004
  110OSM   H15S11387   4.070   3.833   9.177  0.0575  0.4098  0.9599
  110OSM   H15T11388   3.984   3.985   9.182  1.1615  0.0511 -1.0356
  110OSM   C16S11389   3.892   3.829   9.068  0.3836 -0.2736 -0.1177
  110OSM   H16S11390   3.800   3.890   9.053 -0.2045 -0.4287  2.3506
  110OSM   H16T11391   3.876   3.720   9.084  1.0109 -0.0624  2.3785
  110OSM   C17S11392   3.964   3.840   8.931 -0.2592 -0.7311  0.0002
  110OSM   H17S11393   3.895   3.807   8.851 -1.1050 -0.6941  0.6928
  110OSM   H17T11394   4.050   3.770   8.932 -0.5644 -1.1118 -0.0269
  110OSM   C18S11395   4.001   3.989   8.895  0.1164  0.1470  0.0323
  110OSM   H18S11396   4.004   4.048   8.989  0.5768 -0.2497  0.2716
  110OSM   H18T11397   3.911   4.025   8.841  1.0542  2.4010 -0.1447
  110OSM   H18U11398   4.085   3.999   8.823 -0.8608 -1.8696 -1.4769
  110OSM    C1F11399   4.212   4.098  10.584  0.8150  0.0795 -0.1853
  110OSM     OF11400   4.314   4.040  10.604 -0.5216 -0.5366  0.0431
  110OSM    C2F11401   4.205   4.245  10.553  0.5163  0.4509  0.3554
  110OSM    H2F11402   4.205   4.306  10.645 -3.7020  2.4058 -0.6609
  110OSM    H2G11403   4.103   4.276  10.520  0.0034 -1.3670  0.0924
  110OSM    C3F11404   4.325   4.298  10.469 -1.0642 -0.2220  0.2554
  110OSM    H3F11405   4.423   4.255  10.500  0.4866  3.5548  1.0341
  110OSM    H3G11406   4.340   4.407  10.479  0.6066 -0.4840  1.1326
  110OSM    C4F11407   4.306   4.274  10.318 -0.1087 -0.1502  0.7529
  110OSM    H4F11408   4.301   4.165  10.297  2.4345  0.0442 -1.3128
  110OSM    H4G11409   4.396   4.312  10.266 -0.7642 -2.0462 -1.9898
  110OSM    C5F11410   4.186   4.343  10.248 -0.5429 -0.0052  0.6458
  110OSM    H5F11411   4.200   4.451  10.272  2.5642 -0.5632  1.8253
  110OSM    H5G11412   4.088   4.322  10.296 -0.8935 -2.0098 -0.8391
  110OSM    C6F11413   4.175   4.317  10.098  0.5624 -0.8008 -0.0262
  110OSM    H6F11414   4.270   4.351  10.052  2.0163 -1.2287  2.4776
  110OSM    H6G11415   4.101   4.389  10.057  0.7992 -1.3367 -1.4589
  110OSM    C7F11416   4.117   4.182  10.063  0.7713  0.3272 -1.0563
  110OSM    H7F11417   4.016   4.184  10.109 -0.1809 -1.2985 -2.9540
  110OSM    H7G11418   4.176   4.101  10.110  0.3238  2.0412  2.9384
  110OSM    C8F11419   4.099   4.160   9.915 -0.2393 -0.4979  0.7113
  110OSM    H8F11420   4.029   4.238   9.881  1.0686 -0.2015 -1.5248
  110OSM    H8G11421   4.046   4.063   9.903 -2.4501  0.9459 -2.8506
  110OSM    C9F11422   4.227   4.159   9.840 -0.7865  0.1089  0.0384
  110OSM    H9F11423   4.319   4.122   9.887  0.6806  2.8997 -0.4020
  110OSM   C10F11424   4.237   4.196   9.710  0.6791  0.2903  0.4965
  110OSM   H10F11425   4.335   4.187   9.660 -0.5318 -0.2389 -1.9847
  110OSM   C11F11426   4.131   4.242   9.618 -1.0117  0.0480 -0.0818
  110OSM   H11F11427   4.079   4.322   9.675  2.2428  1.4883  1.1215
  110OSM   H11G11428   4.050   4.167   9.618 -1.7998  0.8731  0.8308
  110OSM   C12F11429   4.170   4.285   9.472  0.2471  0.2404 -0.3458
  110OSM   H12F11430   4.252   4.360   9.483  0.4246  0.0177 -0.1469
  110OSM   H12G11431   4.084   4.338   9.426 -0.6414 -0.1772  0.7883
  110OSM   C13F11432   4.198   4.162   9.388  0.0901  0.3110  0.3333
  110OSM   H13F11433   4.097   4.131   9.355  0.3395  0.9199 -1.0808
  110OSM   H13G11434   4.238   4.082   9.454  0.6405  0.6211  0.3850
  110OSM   C14F11435   4.299   4.182   9.277 -0.4503 -0.4126  0.2158
  110OSM   H14F11436   4.327   4.082   9.237  1.2422 -0.6765  1.8970
  110OSM   H14G11437   4.387   4.230   9.325  0.1187  0.0846 -1.2700
  110OSM   C15F11438   4.249   4.275   9.166  0.1702  0.2635  0.0422
  110OSM   H15F11439   4.218   4.370   9.216 -0.4569 -0.0085  0.1819
  110OSM   H15G11440   4.158   4.234   9.118 -0.8640  2.6417 -0.2039
  110OSM   C16F11441   4.358   4.303   9.064 -0.5926 -0.3364 -0.4981
  110OSM   H16F11442   4.391   4.213   9.007  1.1552  0.5386 -0.9289
  110OSM   H16G11443   4.458   4.326   9.106 -0.6140 -2.1926  0.6876
  110OSM   C17F11444   4.335   4.428   8.970  0.3303  0.7677  0.0028
  110OSM   H17F11445   4.328   4.509   9.045 -4.4488 -2.1927  3.3496
  110OSM   H17G11446   4.232   4.427   8.927  0.2989 -0.2757  0.0842
  110OSM   C18F11447   4.444   4.442   8.868  0.5102  0.3256  0.1356
  110OSM   H18F11448   4.547   4.443   8.908  0.1007  2.2094  1.2890
  110OSM   H18G11449   4.423   4.535   8.810 -1.4155 -0.6264 -0.7760
  110OSM   H18H11450   4.446   4.365   8.788  0.4689 -0.0833  0.5240
  111OSM      N11451   4.789   1.410  10.975  0.2666  0.1041 -0.6454
  111OSM    C1511452   4.897   1.356  11.072 -0.4878  0.0352 -0.0677
  111OSM   H15A11453   4.864   1.340  11.173  0.6349  0.6890  0.4221
  111OSM   H15B11454   4.976   1.430  11.075  0.4523 -0.8771 -1.1254
  111OSM   H15C11455   4.947   1.268  11.035 -1.4796 -1.3195  1.6886
  111OSM    C1411456   4.675   1.314  10.972  0.6327 -0.2477  0.0176
  111OSM   H14A11457   4.584   1.362  10.939  0.7088  0.0633  0.2553
  111OSM   H14B11458   4.658   1.275  11.071 -0.3216 -1.1860 -0.4973
  111OSM   H14C11459   4.688   1.227  10.910 -1.2951 -1.9002  1.7889
  111OSM    C1311460   4.756   1.542  11.041 -0.2182 -1.3500  0.6075
  111OSM   H13A11461   4.844   1.605  11.052 -0.2524 -0.8097 -1.7567
  111OSM   H13B11462   4.706   1.543  11.137 -3.2483 -0.9478 -0.8816
  111OSM   H13C11463   4.686   1.596  10.980  1.4102  0.0793 -0.1057
  111OSM    C1211464   4.835   1.440  10.833 -0.3473 -0.2316  0.1765
  111OSM   H12A11465   4.761   1.487  10.771 -0.2408 -0.6248 -0.2533
  111OSM   H12B11466   4.849   1.342  10.788  0.9265 -0.7337  1.5621
  111OSM    C1111467   4.961   1.523  10.799 -1.0554  0.0394  0.0229
  111OSM   H11A11468   4.964   1.625  10.842  3.5485  0.1496 -0.1104
  111OSM   H11B11469   4.964   1.529  10.688  0.3812 -2.8052 -0.1732
  111OSM      P11470   5.212   1.533  10.857 -0.5369 -0.6855 -0.5108
  111OSM    O1311471   5.191   1.639  10.970 -0.1631  0.3034  0.3575
  111OSM    O1411472   5.329   1.446  10.871 -0.0476 -0.1877  0.1481
  111OSM    O1111473   5.216   1.597  10.709 -0.2443  0.1702  0.0426
  111OSM    O1211474   5.080   1.450  10.837  0.4167  0.1897 -0.0818
  111OSM    C1S11475   5.241   1.521  10.590 -0.1884 -0.4863  0.0610
  111OSM    H1S11476   5.188   1.423  10.579  1.2803 -1.2403 -0.6310
  111OSM    H1T11477   5.345   1.482  10.582 -0.2512 -0.4855 -0.9229
  111OSM     NF11478   5.233   1.496  10.343  0.4677  0.4820  0.1353
  111OSM    HNF11479   5.330   1.487  10.321  0.4912  0.4219  0.2642
  111OSM    C2S11480   5.208   1.589  10.455 -0.4353  1.0603  0.9952
  111OSM    H2S11481   5.101   1.616  10.459 -1.3305 -1.9281  0.0565
  111OSM    C3S11482   5.296   1.715  10.429 -0.3450 -0.8301 -0.2089
  111OSM    H3S11483   5.405   1.701  10.441 -0.4383 -0.2193  1.5827
  111OSM     O311484   5.278   1.812  10.535 -0.0338 -0.3211 -0.1658
  111OSM    HO311485   5.228   1.762  10.600  0.3714 -0.1490  0.2859
  111OSM    C4S11486   5.270   1.789  10.300 -0.7410 -0.9792  0.2673
  111OSM    H4S11487   5.163   1.805  10.277 -0.6901 -0.9224  0.0688
  111OSM    C5S11488   5.362   1.837  10.212 -0.5004  0.6938  0.3461
  111OSM    H5S11489   5.469   1.837  10.237 -0.2096 -1.4810 -0.6182
  111OSM    C6S11490   5.322   1.905  10.090 -0.0683 -0.2828  0.2806
  111OSM    H6S11491   5.359   2.010  10.085  2.1499 -1.0385 -0.6150
  111OSM    H6T11492   5.212   1.920  10.084 -0.0762 -0.0691  0.8486
  111OSM    C7S11493   5.377   1.862   9.954 -0.0725 -0.7896  1.0312
  111OSM    H7S11494   5.360   1.753   9.942 -1.2991 -0.5239  0.2004
  111OSM    H7T11495   5.488   1.861   9.945 -0.1122 -0.6446  0.4991
  111OSM    C8S11496   5.322   1.939   9.836 -0.0445  0.0628 -0.1520
  111OSM    H8S11497   5.358   2.044   9.841 -1.4244  0.5166  0.7372
  111OSM    H8T11498   5.211   1.938   9.835 -0.1383 -1.9385  2.9188
  111OSM    C9S11499   5.360   1.860   9.710  0.1264  0.2129  0.6386
  111OSM    H9S11500   5.319   1.757   9.712  1.5073 -0.4880 -1.9706
  111OSM    H9T11501   5.468   1.837   9.700 -0.0159 -0.3990  0.4463
  111OSM   C10S11502   5.324   1.941   9.586  0.1010 -0.2494 -0.0935
  111OSM   H10S11503   5.370   2.041   9.601  1.7173 -1.1604  1.4144
  111OSM   H10T11504   5.214   1.955   9.572  0.4208  1.6136 -1.1721
  111OSM   C11S11505   5.377   1.875   9.458 -0.3289 -0.4690 -0.4257
  111OSM   H11S11506   5.314   1.785   9.442  0.3386 -0.8870 -0.7499
  111OSM   H11T11507   5.483   1.843   9.469 -0.0808 -0.0894 -1.5832
  111OSM   C12S11508   5.373   1.966   9.333  0.4998  0.3384  0.5053
  111OSM   H12S11509   5.452   2.044   9.328 -1.7603  2.6757 -2.4171
  111OSM   H12T11510   5.271   2.010   9.333  0.1400 -0.4753  1.0892
  111OSM   C13S11511   5.366   1.887   9.198  0.1259 -0.2844 -0.0427
  111OSM   H13S11512   5.281   1.816   9.192  1.0162 -1.2509 -2.5510
  111OSM   H13T11513   5.450   1.814   9.195  0.5692  0.2104 -0.0608
  111OSM   C14S11514   5.386   1.984   9.078  0.4768  0.1734 -0.4744
  111OSM   H14S11515   5.417   1.925   8.989 -0.0141 -0.2745 -0.3573
  111OSM   H14T11516   5.456   2.064   9.110 -0.5651  0.2423  1.7765
  111OSM   C15S11517   5.248   2.035   9.045 -0.0721 -0.4647  0.0773
  111OSM   H15S11518   5.201   2.082   9.134  0.4466 -1.1423  0.7181
  111OSM   H15T11519   5.179   1.957   9.006  0.2342  0.6321 -2.9510
  111OSM   C16S11520   5.258   2.135   8.919 -0.1258  0.3008 -0.1515
  111OSM   H16S11521   5.303   2.080   8.834 -1.8795 -1.2036 -0.1689
  111OSM   H16T11522   5.325   2.218   8.950 -1.8755  1.9552 -0.6036
  111OSM   C17S11523   5.128   2.202   8.873  0.2113  0.0224  0.7661
  111OSM   H17S11524   5.083   2.258   8.958 -1.0311 -0.1889  0.2736
  111OSM   H17T11525   5.066   2.113   8.849  0.1805  0.3292 -0.3574
  111OSM   C18S11526   5.143   2.305   8.757  0.2768  0.0370 -0.7679
  111OSM   H18S11527   5.171   2.241   8.670  0.9303 -0.5453 -0.1418
  111OSM   H18T11528   5.211   2.386   8.792 -0.2217 -0.1876  0.7579
  111OSM   H18U11529   5.045   2.353   8.740 -0.5129  0.0627  2.9798
  111OSM    C1F11530   5.143   1.403  10.321  0.4389  0.5963 -0.3089
  111OSM     OF11531   5.052   1.386  10.398  0.2782 -0.0943 -0.7633
  111OSM    C2F11532   5.167   1.317  10.198  1.2001 -0.8002  0.1814
  111OSM    H2F11533   5.257   1.255  10.213  0.1995 -1.7882  2.7123
  111OSM    H2G11534   5.185   1.388  10.115  0.7722 -2.1764 -1.1367
  111OSM    C3F11535   5.049   1.216  10.184 -0.0400 -0.2347 -0.0645
  111OSM    H3F11536   4.947   1.250  10.210 -0.2012 -0.5449 -0.2799
  111OSM    H3G11537   5.067   1.139  10.262 -0.4007 -1.7033 -1.3850
  111OSM    C4F11538   5.044   1.134  10.056  0.9969 -0.2912 -0.2707
  111OSM    H4F11539   4.951   1.073  10.051  2.1376 -2.2031  0.6406
  111OSM    H4G11540   5.130   1.064  10.048  0.8379 -0.3884 -1.2276
  111OSM    C5F11541   5.035   1.223   9.923 -0.6939  0.2457  0.0981
  111OSM    H5F11542   5.124   1.289   9.924 -1.0507  0.7391 -0.1843
  111OSM    H5G11543   4.937   1.276   9.924 -1.3192 -0.8880 -0.1451
  111OSM    C6F11544   5.044   1.129   9.799  0.7763 -0.7458 -0.3745
  111OSM    H6F11545   4.991   1.034   9.817  0.1000 -0.3937 -0.4767
  111OSM    H6G11546   5.149   1.105   9.772 -0.3391 -1.0901 -5.2922
  111OSM    C7F11547   4.991   1.203   9.677  1.0177  0.1663 -0.8802
  111OSM    H7F11548   5.040   1.303   9.670 -0.0138  0.8355  0.9331
  111OSM    H7G11549   4.883   1.218   9.699  0.7595 -3.1886  0.7001
  111OSM    C8F11550   5.001   1.132   9.536  0.1981 -0.0208  0.1064
  111OSM    H8F11551   4.960   1.028   9.537  0.5960 -0.1815  1.5471
  111OSM    H8G11552   5.110   1.118   9.519  0.1922  0.1443 -0.0663
  111OSM    C9F11553   4.954   1.220   9.418  0.2635 -1.1209 -0.0467
  111OSM    H9F11554   5.009   1.315   9.407 -0.6791 -0.6586 -0.9615
  111OSM   C10F11555   4.842   1.209   9.344  0.2940 -0.5701  0.2019
  111OSM   H10F11556   4.819   1.282   9.265 -2.7024 -2.4607 -0.8247
  111OSM   C11F11557   4.737   1.095   9.346 -0.1158 -0.5434 -0.3129
  111OSM   H11F11558   4.785   1.005   9.390 -0.6481 -0.2909  0.7992
  111OSM   H11G11559   4.708   1.064   9.243 -1.7938  2.3609 -0.8141
  111OSM   C12F11560   4.603   1.140   9.410  0.0012  1.0287  0.7844
  111OSM   H12F11561   4.522   1.068   9.388  2.3313 -1.0355 -1.6664
  111OSM   H12G11562   4.581   1.238   9.363  1.1122  1.6093  1.4096
  111OSM   C13F11563   4.617   1.184   9.551  0.1353 -0.6463  0.2629
  111OSM   H13F11564   4.706   1.251   9.550  0.3149 -0.8340  1.8265
  111OSM   H13G11565   4.646   1.103   9.620  1.3908 -0.1517  0.3420
  111OSM   C14F11566   4.499   1.259   9.620  0.3962 -0.1620  0.3250
  111OSM   H14F11567   4.405   1.201   9.614 -1.4633  2.7475 -1.1150
  111OSM   H14G11568   4.482   1.343   9.549  1.5268 -0.8367 -0.7860
  111OSM   C15F11569   4.534   1.325   9.758  0.1905  0.3765  0.1183
  111OSM   H15F11570   4.455   1.396   9.791 -0.7068 -0.4235 -0.2358
  111OSM   H15G11571   4.633   1.372   9.748 -0.3308  1.3793 -0.4679
  111OSM   C16F11572   4.544   1.223   9.870 -0.7975  0.5213  0.8900
  111OSM   H16F11573   4.600   1.141   9.820  0.7478  2.5123 -0.8635
  111OSM   H16G11574   4.443   1.193   9.903 -1.6611  2.2972 -0.0026
  111OSM   C17F11575   4.629   1.266   9.986  0.2672 -0.0711 -0.9757
  111OSM   H17F11576   4.735   1.290   9.959  0.0078  1.7117 -0.5394
  111OSM   H17G11577   4.639   1.175  10.049  0.4189  0.0416 -0.8357
  111OSM   C18F11578   4.569   1.387  10.068 -0.4301 -0.1484 -0.4492
  111OSM   H18F11579   4.646   1.407  10.145  0.2935 -0.5690 -1.0425
  111OSM   H18G11580   4.471   1.361  10.113 -0.6663  1.3898 -0.0073
  111OSM   H18H11581   4.550   1.471   9.997 -1.0850  1.7832  1.8803
  112OSM      N11582   4.362   6.342  11.137 -0.1711 -0.0316 -0.3499
  112OSM    C1511583   4.239   6.335  11.222 -0.1911  0.0995 -0.5277
  112OSM   H15A11584   4.231   6.244  11.281 -1.4672  0.0652 -0.7084
  112OSM   H15B11585   4.154   6.353  11.158  0.2621  2.1380 -0.6019
  112OSM   H15C11586   4.236   6.415  11.295  0.0933 -1.3584  1.1726
  112OSM    C1411587   4.369   6.474  11.071 -0.5422  0.0609 -0.6647
  112OSM   H14A11588   4.359   6.543  11.153 -0.0641 -0.5981 -0.0463
  112OSM   H14B11589   4.295   6.500  10.996  0.8980  1.1227 -1.7690
  112OSM   H14C11590   4.465   6.492  11.026 -1.1345 -0.5026 -2.2229
  112OSM    C1311591   4.484   6.317  11.229  0.3189  0.2380 -0.1560
  112OSM   H13A11592   4.468   6.220  11.274 -1.0684  0.6348  0.2309
  112OSM   H13B11593   4.506   6.386  11.309  2.2985 -1.6032  1.0060
  112OSM   H13C11594   4.575   6.315  11.169  1.7168 -1.7638  1.8542
  112OSM    C1211595   4.363   6.238  11.027  0.1811 -0.2688 -0.1236
  112OSM   H12A11596   4.466   6.235  10.994  0.6338  3.1613  0.5845
  112OSM   H12B11597   4.294   6.278  10.955  1.9955  1.1670 -1.1852
  112OSM    C1111598   4.323   6.095  11.062 -0.2694  0.4370 -0.6568
  112OSM   H11A11599   4.318   6.035  10.969  2.2210 -0.7004 -0.1278
  112OSM   H11B11600   4.226   6.082  11.114 -0.6569 -0.3564 -1.5422
  112OSM      P11601   4.562   5.983  11.111 -0.0730  0.2687 -0.5911
  112OSM    O1311602   4.651   6.047  11.204 -0.3059 -0.0621  0.1956
  112OSM    O1411603   4.554   5.835  11.110 -0.0322 -0.2902  0.1671
  112OSM    O1111604   4.584   6.049  10.964  0.5605 -0.1963  0.3873
  112OSM    O1211605   4.424   6.037  11.147  0.3901 -0.8484  0.1325
  112OSM    C1S11606   4.615   5.971  10.853  0.4644  0.4299  0.5565
  112OSM    H1S11607   4.529   5.909  10.818  1.7980 -1.5415  0.5931
  112OSM    H1T11608   4.686   5.891  10.885  1.2315  0.5547 -0.7863
  112OSM     NF11609   4.666   5.990  10.607  0.0641  0.1238 -0.4624
  112OSM    HNF11610   4.747   5.951  10.565  0.4269 -0.9556  1.1456
  112OSM    C2S11611   4.668   6.062  10.737 -0.5760  0.1048  0.8767
  112OSM    H2S11612   4.603   6.149  10.714 -0.8390 -0.4202 -0.4332
  112OSM    C3S11613   4.807   6.116  10.770 -0.4845 -0.4278 -0.0913
  112OSM    H3S11614   4.881   6.036  10.789  2.3423  1.6526 -1.5688
  112OSM     O311615   4.800   6.205  10.881 -0.1304  0.3076 -0.1625
  112OSM    HO311616   4.712   6.194  10.917  0.9228 -1.1198  2.2321
  112OSM    C4S11617   4.862   6.203  10.663 -0.1693  0.5585 -0.9214
  112OSM    H4S11618   4.832   6.308  10.674 -1.2254 -0.0021  3.2358
  112OSM    C5S11619   4.959   6.172  10.579 -0.3956  0.0229  0.1365
  112OSM    H5S11620   5.019   6.079  10.587  1.1726  0.8438 -1.3846
  112OSM    C6S11621   5.006   6.250  10.459  0.2031  0.3298 -0.4971
  112OSM    H6S11622   5.111   6.284  10.472 -0.2414  1.8452 -0.6088
  112OSM    H6T11623   4.945   6.341  10.439  0.7057  0.1296 -3.5183
  112OSM    C7S11624   4.996   6.176  10.320  0.9924 -0.9389 -0.3902
  112OSM    H7S11625   5.050   6.079  10.329  1.1956 -0.7454  0.6272
  112OSM    H7T11626   5.046   6.231  10.238  1.6877 -0.7059  0.1812
  112OSM    C8S11627   4.849   6.158  10.273  0.6218  0.5141 -0.3003
  112OSM    H8S11628   4.803   6.258  10.259 -0.0272  0.1754 -0.6291
  112OSM    H8T11629   4.798   6.103  10.355  0.1292 -0.1271 -1.0285
  112OSM    C9S11630   4.820   6.082  10.138 -0.1669 -0.0430  0.1928
  112OSM    H9S11631   4.711   6.087  10.116  0.0203 -2.5838 -1.6871
  112OSM    H9T11632   4.851   5.977  10.157  1.9702  0.2295 -1.3705
  112OSM   C10S11633   4.907   6.121  10.022 -0.1058  0.5196  0.1543
  112OSM   H10S11634   5.016   6.107  10.040 -0.4925 -2.5821  0.6711
  112OSM   H10T11635   4.890   6.228   9.997  0.2378  0.7212  0.7588
  112OSM   C11S11636   4.876   6.032   9.898  0.1466  0.4758 -0.3612
  112OSM   H11S11637   4.766   6.027   9.883  0.0235 -0.5473  0.7282
  112OSM   H11T11638   4.919   5.930   9.905 -2.0812 -0.6270 -1.5413
  112OSM   C12S11639   4.942   6.096   9.771 -0.2404  0.7010  0.0002
  112OSM   H12S11640   5.038   6.144   9.797 -0.0399  0.1598  0.2825
  112OSM   H12T11641   4.867   6.173   9.746  0.7178  1.0610 -1.9644
  112OSM   C13S11642   4.954   6.001   9.653 -0.3529 -0.2547 -0.4865
  112OSM   H13S11643   4.854   5.987   9.607 -0.1052  0.8838 -1.4279
  112OSM   H13T11644   4.984   5.902   9.695 -2.3832 -0.7978 -0.2297
  112OSM   C14S11645   5.047   6.056   9.545  0.5221  0.0194  0.1294
  112OSM   H14S11646   5.154   6.055   9.575  0.4901  2.4161  0.5136
  112OSM   H14T11647   5.022   6.163   9.529 -1.0272 -0.4566 -0.8905
  112OSM   C15S11648   5.050   5.973   9.415 -0.0569 -0.0929  0.5789
  112OSM   H15S11649   5.071   5.871   9.455 -0.2868 -0.5740 -0.4818
  112OSM   H15T11650   5.132   6.001   9.345 -2.3204 -0.0618 -2.2044
  112OSM   C16S11651   4.916   5.966   9.344 -0.1195  0.0943 -0.6209
  112OSM   H16S11652   4.886   6.065   9.304  1.4993  1.5534  1.5307
  112OSM   H16T11653   4.829   5.930   9.403 -0.0626  0.6250 -0.2018
  112OSM   C17S11654   4.929   5.875   9.230  0.8424  0.5060  0.5978
  112OSM   H17S11655   4.960   5.784   9.286 -1.8979 -0.8574  0.0625
  112OSM   H17T11656   5.010   5.916   9.166 -0.7523  1.8121 -0.6766
  112OSM   C18S11657   4.794   5.853   9.151 -0.4987  0.8069 -0.2468
  112OSM   H18S11658   4.701   5.850   9.211 -0.7796 -0.6006 -0.7223
  112OSM   H18T11659   4.802   5.753   9.105  0.1877  0.7667 -0.0391
  112OSM   H18U11660   4.777   5.926   9.068 -0.9073  0.9094 -0.0763
  112OSM    C1F11661   4.558   5.929  10.555 -0.3127  0.1989  0.3841
  112OSM     OF11662   4.446   5.959  10.600  0.0043 -0.4922 -0.0600
  112OSM    C2F11663   4.587   5.836  10.447  0.8973  0.2649  0.3910
  112OSM    H2F11664   4.602   5.732  10.481  0.4751  0.1989  0.3800
  112OSM    H2G11665   4.684   5.871  10.405  1.3004 -1.2222  0.0467
  112OSM    C3F11666   4.472   5.846  10.343  0.2749 -0.1876  0.0848
  112OSM    H3F11667   4.471   5.950  10.305  3.1477 -0.2351 -0.3243
  112OSM    H3G11668   4.375   5.812  10.386 -0.2301 -1.3617 -1.8850
  112OSM    C4F11669   4.499   5.760  10.214  0.2933  0.4019 -0.2677
  112OSM    H4F11670   4.466   5.660  10.248  1.4622  1.1269  3.3601
  112OSM    H4G11671   4.607   5.754  10.190  0.4556  0.0205  0.5303
  112OSM    C5F11672   4.407   5.811  10.103  0.4366  0.4018 -0.0259
  112OSM    H5F11673   4.418   5.922  10.110 -1.9579  0.7602 -0.8317
  112OSM    H5G11674   4.306   5.791  10.144  0.7765  1.0705  1.1976
  112OSM    C6F11675   4.415   5.758   9.965 -0.4521  0.0425  0.0074
  112OSM    H6F11676   4.333   5.790   9.897  0.1716 -1.3008 -1.4634
  112OSM    H6G11677   4.407   5.647   9.961  0.8456 -0.1400  1.4330
  112OSM    C7F11678   4.557   5.771   9.913  0.1345 -0.0480  0.3501
  112OSM    H7F11679   4.625   5.730   9.991 -0.5835  1.5485  1.8973
  112OSM    H7G11680   4.574   5.879   9.896 -0.5999  0.2981  1.6306
  112OSM    C8F11681   4.574   5.700   9.780  0.1939 -0.7078 -0.2262
  112OSM    H8F11682   4.498   5.735   9.707 -1.8350 -3.4213  0.4215
  112OSM    H8G11683   4.556   5.594   9.810  0.1727 -0.7530 -0.4024
  112OSM    C9F11684   4.713   5.710   9.724 -0.4278 -0.7669  0.1007
  112OSM    H9F11685   4.781   5.728   9.809 -2.2020 -0.3520  1.4808
  112OSM   C10F11686   4.747   5.681   9.597 -1.0346 -0.0954 -0.1993
  112OSM   H10F11687   4.848   5.717   9.569 -1.3772  0.4617 -0.7412
  112OSM   C11F11688   4.648   5.641   9.492  0.2973  0.1761  0.2299
  112OSM   H11F11689   4.633   5.732   9.430  0.8035 -0.6579 -1.1853
  112OSM   H11G11690   4.546   5.611   9.524  0.2795  1.4671  1.4660
  112OSM   C12F11691   4.693   5.526   9.398  0.1491 -0.0818  0.2580
  112OSM   H12F11692   4.729   5.436   9.451 -2.7006 -1.4652  0.0480
  112OSM   H12G11693   4.777   5.564   9.336 -0.1788 -1.5191 -1.1289
  112OSM   C13F11694   4.578   5.491   9.300 -0.0639 -0.3790 -0.4719
  112OSM   H13F11695   4.568   5.575   9.229  0.0557 -0.3023 -0.3987
  112OSM   H13G11696   4.482   5.483   9.355 -0.2277  0.3953 -0.6382
  112OSM   C14F11697   4.599   5.355   9.229 -0.5698  0.2189  0.6103
  112OSM   H14F11698   4.567   5.267   9.288  1.1868 -0.7595  0.1770
  112OSM   H14G11699   4.708   5.340   9.213 -0.7389  0.3795 -0.8694
  112OSM   C15F11700   4.531   5.337   9.086 -0.4959  1.0033  0.0269
  112OSM   H15F11701   4.532   5.425   9.017 -0.8971  1.8041  1.0224
  112OSM   H15G11702   4.421   5.331   9.100 -0.3922 -0.2034  0.3978
  112OSM   C16F11703   4.590   5.228   8.999  1.0519  0.3085 -0.1904
  112OSM   H16F11704   4.612   5.142   9.067 -1.9403 -1.8320 -1.7190
  112OSM   H16G11705   4.683   5.263   8.949  0.4120  1.5493 -0.5272
  112OSM   C17F11706   4.480   5.183   8.896 -0.1999  0.6311 -0.2737
  112OSM   H17F11707   4.447   5.275   8.844  1.7590 -0.1722 -3.1619
  112OSM   H17G11708   4.390   5.148   8.951  0.1883 -0.8030 -0.5010
  112OSM   C18F11709   4.532   5.087   8.800 -0.2145 -0.1381 -0.4561
  112OSM   H18F11710   4.572   5.000   8.857  0.2357 -1.6760 -2.9972
  112OSM   H18G11711   4.613   5.134   8.740  0.3417  0.7478  0.9372
  112OSM   H18H11712   4.453   5.043   8.736 -0.8839 -2.1274  1.5837
  113OSM      N11713   1.937   3.686  11.485  0.4691 -0.0818  0.3898
  113OSM    C1511714   2.030   3.590  11.550 -0.4624  0.1162 -0.1542
  113OSM   H15A11715   2.133   3.595  11.518 -0.0274  1.2614  1.2973
  113OSM   H15B11716   1.984   3.492  11.541 -1.0937  0.3308  0.6001
  113OSM   H15C11717   2.042   3.617  11.654  2.4835 -1.8257  0.1335
  113OSM    C1411718   1.809   3.689  11.557 -0.2072 -0.2223 -0.0995
  113OSM   H14A11719   1.737   3.756  11.513  0.1994 -0.4041 -1.0520
  113OSM   H14B11720   1.828   3.719  11.659  1.1858  3.0924 -1.1938
  113OSM   H14C11721   1.767   3.590  11.559  2.5677 -1.5126 -1.0231
  113OSM    C1311722   2.000   3.825  11.498  0.0039 -0.4254  0.5986
  113OSM   H13A11723   2.090   3.832  11.440 -0.1675 -0.9567  0.2591
  113OSM   H13B11724   2.032   3.857  11.596  2.0064  1.0857 -0.4954
  113OSM   H13C11725   1.933   3.899  11.457  2.2742  0.9672 -0.7773
  113OSM    C1211726   1.913   3.649  11.340 -0.1481 -0.2880 -0.0955
  113OSM   H12A11727   1.829   3.702  11.296  0.0553 -1.4436 -1.9655
  113OSM   H12B11728   1.893   3.543  11.332 -1.5335 -0.4367  3.2744
  113OSM    C1111729   2.038   3.666  11.250 -0.0288  0.2666 -1.1877
  113OSM   H11A11730   2.017   3.609  11.156 -1.6087 -0.6188 -0.3398
  113OSM   H11B11731   2.129   3.621  11.296 -1.0284  0.3159  0.9516
  113OSM      P11732   2.179   3.846  11.135 -0.2508  0.1595 -0.0624
  113OSM    O1311733   2.157   3.993  11.121  0.4558  0.1216 -0.4224
  113OSM    O1411734   2.297   3.810  11.210  0.0553  0.3151 -0.4228
  113OSM    O1111735   2.174   3.756  10.998  0.5527 -0.0183 -0.5097
  113OSM    O1211736   2.056   3.805  11.220 -0.0659  0.1601 -0.5258
  113OSM    C1S11737   2.054   3.772  10.918 -0.7519  0.6486 -0.6351
  113OSM    H1S11738   1.978   3.834  10.969 -3.5094 -1.2719 -2.1331
  113OSM    H1T11739   2.010   3.670  10.925 -0.8778  0.7709  0.3984
  113OSM     NF11740   1.986   3.882  10.703  0.2161  0.5008 -0.2960
  113OSM    HNF11741   1.932   3.828  10.638 -0.0361 -0.9997  1.0748
  113OSM    C2S11742   2.099   3.827  10.776  0.5751  0.4112  0.4614
  113OSM    H2S11743   2.179   3.904  10.777 -0.1803  1.2230  0.0385
  113OSM    C3S11744   2.158   3.700  10.704  0.1594 -0.3168  0.7316
  113OSM    H3S11745   2.074   3.628  10.708 -1.6686  1.6855  0.4186
  113OSM     O311746   2.276   3.644  10.766 -0.2969 -0.0753 -0.2510
  113OSM    HO311747   2.292   3.694  10.846  1.8053 -2.0187  0.6574
  113OSM    C4S11748   2.179   3.734  10.557 -0.2503  0.5521 -1.1647
  113OSM    H4S11749   2.106   3.692  10.487 -2.3146 -2.0511  2.2509
  113OSM    C5S11750   2.273   3.824  10.508  0.4686  0.6908  0.3575
  113OSM    H5S11751   2.340   3.881  10.575  0.4333 -0.8846  1.8067
  113OSM    C6S11752   2.280   3.854  10.360  0.6206  0.2350  0.4070
  113OSM    H6S11753   2.382   3.843  10.319  0.0221 -0.3721 -1.0118
  113OSM    H6T11754   2.252   3.960  10.342 -1.5174 -0.6514 -2.1057
  113OSM    C7S11755   2.194   3.771  10.269 -0.3227 -0.5332 -0.1608
  113OSM    H7S11756   2.084   3.778  10.285 -0.0364  0.7703  1.4406
  113OSM    H7T11757   2.220   3.664  10.281  0.0192 -0.4455 -0.0989
  113OSM    C8S11758   2.221   3.818  10.124 -0.0912  0.3266  0.4508
  113OSM    H8S11759   2.330   3.836  10.113 -0.3317  0.6403 -1.7976
  113OSM    H8T11760   2.174   3.913  10.089  2.1569 -0.0730 -4.3707
  113OSM    C9S11761   2.193   3.706  10.025  0.1618 -0.3483 -0.1673
  113OSM    H9S11762   2.095   3.660  10.045  1.1111 -3.0215 -1.2593
  113OSM    H9T11763   2.262   3.619  10.037 -1.1911 -1.0739  4.0369
  113OSM   C10S11764   2.202   3.755   9.877 -0.7390 -0.6207 -0.2178
  113OSM   H10S11765   2.308   3.776   9.851 -0.5847 -0.7162  0.3142
  113OSM   H10T11766   2.141   3.844   9.851  2.4611  1.6566 -0.4852
  113OSM   C11S11767   2.146   3.656   9.770 -0.2367 -0.1972 -0.0509
  113OSM   H11S11768   2.046   3.616   9.796  0.3616 -3.8926 -2.7139
  113OSM   H11T11769   2.222   3.577   9.754  1.1015  1.3172 -1.5729
  113OSM   C12S11770   2.145   3.719   9.630  0.0296  0.2364 -0.7462
  113OSM   H12S11771   2.247   3.760   9.611  0.1363  0.0343 -0.6182
  113OSM   H12T11772   2.087   3.814   9.631  1.7742  1.5449  4.0960
  113OSM   C13S11773   2.118   3.625   9.517 -0.0556  0.5622 -0.6180
  113OSM   H13S11774   2.009   3.605   9.524  0.4910 -2.1503  1.6349
  113OSM   H13T11775   2.180   3.534   9.528  0.6561  1.2832  1.8490
  113OSM   C14S11776   2.140   3.690   9.379  0.5600 -0.1146  0.0845
  113OSM   H14S11777   2.245   3.723   9.371  0.3637  0.5718  0.2640
  113OSM   H14T11778   2.088   3.788   9.373  1.0239  0.1134 -0.2006
  113OSM   C15S11779   2.089   3.610   9.260  0.3679 -0.6626  0.0812
  113OSM   H15S11780   2.096   3.675   9.170 -0.3441 -0.5580  0.0971
  113OSM   H15T11781   1.980   3.586   9.260 -0.8489  3.8914 -0.6197
  113OSM   C16S11782   2.185   3.492   9.224 -0.3564 -0.3839 -0.4269
  113OSM   H16S11783   2.188   3.414   9.304  1.0869  0.0864  0.0125
  113OSM   H16T11784   2.287   3.536   9.234  1.0640 -3.3510 -0.7793
  113OSM   C17S11785   2.168   3.434   9.083 -0.2054 -0.1487  0.8875
  113OSM   H17S11786   2.218   3.502   9.011 -0.7977 -2.4252 -1.8824
  113OSM   H17T11787   2.057   3.427   9.074 -0.4144  0.6946  2.4635
  113OSM   C18S11788   2.231   3.296   9.075  0.5873 -0.2493  0.0694
  113OSM   H18S11789   2.178   3.238   9.153 -0.4937  2.0105  1.1128
  113OSM   H18T11790   2.337   3.311   9.104 -0.0999  1.4694  1.8799
  113OSM   H18U11791   2.210   3.255   8.974  1.2767  1.3184 -0.7432
  113OSM    C1F11792   1.928   3.994  10.749 -0.0037  0.7841  0.2847
  113OSM     OF11793   1.968   4.053  10.844  0.0065 -0.4390  0.1040
  113OSM    C2F11794   1.798   4.030  10.687 -1.2273 -0.3329 -1.0531
  113OSM    H2F11795   1.720   4.021  10.765 -2.4341  0.6482 -2.0907
  113OSM    H2G11796   1.761   3.950  10.619 -2.4375 -0.1173 -0.6692
  113OSM    C3F11797   1.811   4.169  10.626 -0.0210 -0.0244 -0.6007
  113OSM    H3F11798   1.821   4.248  10.704  1.4667 -0.7109 -0.0518
  113OSM    H3G11799   1.711   4.187  10.582 -0.6133  1.1081  1.0780
  113OSM    C4F11800   1.907   4.178  10.512  0.2166 -0.0387  0.7500
  113OSM    H4F11801   1.905   4.086  10.450  2.8273  1.3407 -1.6617
  113OSM    H4G11802   2.013   4.181  10.545  0.8613 -0.6701 -1.1427
  113OSM    C5F11803   1.890   4.303  10.429 -0.1220  0.3253 -0.4298
  113OSM    H5F11804   1.928   4.391  10.485  0.7733  0.3691 -1.0692
  113OSM    H5G11805   1.783   4.319  10.404 -0.1091  0.0535 -0.6648
  113OSM    C6F11806   1.965   4.307  10.296 -0.5067  0.5624 -0.1735
  113OSM    H6F11807   2.071   4.290  10.326 -1.2405  0.7158  2.8986
  113OSM    H6G11808   1.957   4.412  10.259 -3.1395  0.6895  0.5569
  113OSM    C7F11809   1.912   4.199  10.201  0.0274  0.6371 -0.0328
  113OSM    H7F11810   1.803   4.206  10.184 -0.1795 -2.2999 -0.3182
  113OSM    H7G11811   1.943   4.102  10.245 -1.4354 -0.2380 -0.8509
  113OSM    C8F11812   1.972   4.213  10.053 -0.3323 -0.0821  0.1786
  113OSM    H8F11813   2.079   4.240  10.062 -0.0607 -0.7885 -0.7423
  113OSM    H8G11814   1.928   4.306  10.011 -0.7360 -0.3355  0.0285
  113OSM    C9F11815   1.945   4.099   9.962  0.3664  0.3186 -0.1567
  113OSM    H9F11816   1.852   4.045   9.987 -0.0103  1.1678  0.3223
  113OSM   C10F11817   2.023   4.063   9.864 -0.1894  0.2366 -0.3366
  113OSM   H10F11818   1.993   3.980   9.798  1.4913 -0.8912  0.2462
  113OSM   C11F11819   2.157   4.125   9.827  0.7250  0.5233 -0.2644
  113OSM   H11F11820   2.217   4.132   9.920  1.1039 -0.3818 -0.4368
  113OSM   H11G11821   2.147   4.232   9.800  2.2134  0.4923 -1.0207
  113OSM   C12F11822   2.235   4.067   9.713 -0.8668  0.5197  0.4639
  113OSM   H12F11823   2.181   4.030   9.624 -2.0420 -1.1503  1.8105
  113OSM   H12G11824   2.282   3.976   9.756 -1.4318 -0.4852 -0.9728
  113OSM   C13F11825   2.343   4.169   9.675 -0.9445 -0.6226  0.6677
  113OSM   H13F11826   2.402   4.197   9.765  1.0590 -0.0909 -0.7505
  113OSM   H13G11827   2.296   4.266   9.650  0.0209  0.2075  1.9662
  113OSM   C14F11828   2.456   4.135   9.577 -0.2025  0.4817 -0.3292
  113OSM   H14F11829   2.524   4.062   9.626 -1.8705  0.6906  2.5228
  113OSM   H14G11830   2.509   4.230   9.551 -0.6541  0.9800  0.5103
  113OSM   C15F11831   2.404   4.065   9.448  0.5472 -0.7918  0.0771
  113OSM   H15F11832   2.370   3.960   9.465 -1.4174 -0.2528 -0.3252
  113OSM   H15G11833   2.486   4.059   9.374  0.3062  0.0214 -0.2654
  113OSM   C16F11834   2.297   4.147   9.369  0.2571 -0.0455  0.4521
  113OSM   H16F11835   2.229   4.191   9.445  0.5630  0.9392  0.1643
  113OSM   H16G11836   2.236   4.079   9.305  1.4805  0.8807 -1.8081
  113OSM   C17F11837   2.350   4.268   9.293 -0.5911 -0.3411  0.3809
  113OSM   H17F11838   2.443   4.236   9.241  0.0916  0.1445  1.2583
  113OSM   H17G11839   2.374   4.347   9.367 -0.0213 -3.3290  3.6495
  113OSM   C18F11840   2.249   4.310   9.193  0.1838 -0.1661 -0.0074
  113OSM   H18F11841   2.222   4.221   9.132  0.2360 -0.0097 -0.2603
  113OSM   H18G11842   2.279   4.396   9.129  1.5059  0.0769  0.9081
  113OSM   H18H11843   2.160   4.341   9.252  0.2218  1.7583 -0.8777
  114OSM      N11844   4.466   5.238  11.296 -0.3397 -0.1337  0.1544
  114OSM    C1511845   4.500   5.319  11.409  0.4977 -0.6706  0.6431
  114OSM   H15A11846   4.574   5.259  11.460  1.1803 -0.9524 -0.6157
  114OSM   H15B11847   4.416   5.330  11.475 -0.3137  2.6745 -0.7367
  114OSM   H15C11848   4.542   5.413  11.376  0.0503 -0.1886  1.4198
  114OSM    C1411849   4.586   5.206  11.221  0.1003  0.3205 -0.2222
  114OSM   H14A11850   4.560   5.140  11.139  0.9547 -1.0540  0.5580
  114OSM   H14B11851   4.650   5.150  11.288  1.8417  0.1449 -1.9292
  114OSM   H14C11852   4.636   5.290  11.175 -1.6236  0.8114 -1.2722
  114OSM    C1311853   4.413   5.109  11.350 -0.2831 -0.5286  0.0431
  114OSM   H13A11854   4.318   5.128  11.399 -0.8023 -4.5341  0.9916
  114OSM   H13B11855   4.486   5.056  11.410  0.8859 -0.0649 -0.9391
  114OSM   H13C11856   4.381   5.051  11.265 -0.4652  1.1043 -1.0272
  114OSM    C1211857   4.362   5.307  11.210 -0.1017 -0.6186  0.8237
  114OSM   H12A11858   4.402   5.406  11.195  0.3193 -0.7991  0.7356
  114OSM   H12B11859   4.266   5.322  11.258 -0.5651  0.5009 -0.3941
  114OSM    C1111860   4.329   5.256  11.075  0.1619  0.8542 -0.2614
  114OSM   H11A11861   4.417   5.233  11.010 -0.9538  1.1889 -1.9720
  114OSM   H11B11862   4.276   5.337  11.020 -1.0451 -1.6566 -3.1064
  114OSM      P11863   4.247   5.008  11.017  0.1822  0.1875  0.3267
  114OSM    O1311864   4.363   4.922  11.055 -0.5738  0.1408  0.4529
  114OSM    O1411865   4.116   4.942  11.046  0.4331 -0.1137  0.1856
  114OSM    O1111866   4.263   5.031  10.858  0.6160 -0.6727 -0.2539
  114OSM    O1211867   4.241   5.146  11.088  0.3498 -0.4084  0.4702
  114OSM    C1S11868   4.157   5.109  10.792 -0.2114  0.9789 -0.2966
  114OSM    H1S11869   4.176   5.217  10.814  0.4823  0.6270  0.9325
  114OSM    H1T11870   4.054   5.077  10.819  0.0849 -0.4749 -0.8103
  114OSM     NF11871   4.067   5.169  10.573  0.6080  0.5543 -0.5638
  114OSM    HNF11872   3.972   5.140  10.563  1.1893 -1.4905 -0.5997
  114OSM    C2S11873   4.163   5.086  10.640 -0.3211 -0.6854  0.4636
  114OSM    H2S11874   4.264   5.121  10.610  0.0577 -1.1189  1.2009
  114OSM    C3S11875   4.140   4.936  10.618 -0.2941 -0.1509 -1.2029
  114OSM    H3S11876   4.047   4.899  10.665  0.5983 -0.0640  0.7108
  114OSM     O311877   4.254   4.860  10.668 -0.2377 -0.1656 -0.6250
  114OSM    HO311878   4.284   4.911  10.743  0.8049 -1.4972 -0.0979
  114OSM    C4S11879   4.125   4.908  10.479  0.3579  0.2154  1.1373
  114OSM    H4S11880   4.216   4.918  10.418 -1.6494  2.9560 -1.7140
  114OSM    C5S11881   4.002   4.873  10.422 -0.1406 -0.0220 -0.3937
  114OSM    H5S11882   3.914   4.859  10.487  1.6031 -0.3435  2.0381
  114OSM    C6S11883   3.989   4.837  10.278 -0.2848 -0.7449  0.3359
  114OSM    H6S11884   3.883   4.843  10.247 -0.1410 -0.5763 -0.1195
  114OSM    H6T11885   4.012   4.734  10.245  0.6080 -0.1898 -0.8415
  114OSM    C7S11886   4.066   4.936  10.186 -0.1133  0.0913  0.8359
  114OSM    H7S11887   4.173   4.911  10.196 -0.3197 -1.0342  0.2864
  114OSM    H7T11888   4.035   5.041  10.207 -2.3023 -0.3856  0.2243
  114OSM    C8S11889   4.026   4.906  10.036 -1.2753 -0.3072  0.2834
  114OSM    H8S11890   3.920   4.937  10.025 -2.2199 -2.9407  1.3682
  114OSM    H8T11891   4.041   4.799  10.012 -0.6317 -0.0416 -0.5819
  114OSM    C9S11892   4.102   4.995   9.933 -0.2128  0.3536 -0.0209
  114OSM    H9S11893   4.204   4.956   9.916 -0.2367 -0.3269  1.2925
  114OSM    H9T11894   4.126   5.096   9.972 -0.3521  0.4325 -0.1378
  114OSM   C10S11895   4.039   5.003   9.798 -0.3348  0.1055  0.1634
  114OSM   H10S11896   3.933   5.033   9.815 -0.6442 -0.3553 -0.8512
  114OSM   H10T11897   4.041   4.900   9.755  1.5432 -0.1498  0.7829
  114OSM   C11S11898   4.103   5.109   9.713  0.8568  0.5110  0.6583
  114OSM   H11S11899   4.208   5.079   9.694  0.2837 -1.4714  0.4265
  114OSM   H11T11900   4.111   5.205   9.767  1.5603  0.4642  0.6446
  114OSM   C12S11901   4.023   5.137   9.582  0.3146 -0.3874 -0.0541
  114OSM   H12S11902   3.913   5.155   9.586  0.6520  1.7332  0.9690
  114OSM   H12T11903   4.020   5.040   9.528 -0.1179 -0.8435  0.7665
  114OSM   C13S11904   4.083   5.251   9.495  0.9054 -0.2355  0.3797
  114OSM   H13S11905   4.194   5.246   9.491  1.2531  1.4663  3.7064
  114OSM   H13T11906   4.051   5.353   9.527 -0.8992 -1.1053  1.5105
  114OSM   C14S11907   4.041   5.232   9.339 -0.3786 -0.3213 -0.5363
  114OSM   H14S11908   3.931   5.229   9.348 -0.3475 -0.8379 -0.3115
  114OSM   H14T11909   4.086   5.133   9.319 -1.7159 -1.4958  1.8973
  114OSM   C15S11910   4.101   5.332   9.241  0.5020  0.3046  0.1865
  114OSM   H15S11911   4.201   5.357   9.281  1.0737 -0.6518 -0.5857
  114OSM   H15T11912   4.034   5.418   9.218 -1.8930 -1.9882 -2.1981
  114OSM   C16S11913   4.128   5.260   9.108  0.0112 -0.5902  0.5491
  114OSM   H16S11914   4.180   5.162   9.103 -0.0073 -0.5739 -0.1442
  114OSM   H16T11915   4.194   5.327   9.047  0.4458  0.2922  1.9422
  114OSM   C17S11916   4.002   5.245   9.013  0.8639  0.3591 -0.1907
  114OSM   H17S11917   3.924   5.322   9.034  0.6055  0.3090 -0.9463
  114OSM   H17T11918   3.945   5.152   9.036  0.7901 -0.3575 -2.8984
  114OSM   C18S11919   4.026   5.240   8.865  0.4332  0.9698 -0.0670
  114OSM   H18S11920   4.104   5.162   8.861  1.0772  1.6410 -0.9693
  114OSM   H18T11921   4.078   5.329   8.824  1.1892  0.1953 -0.8206
  114OSM   H18U11922   3.937   5.211   8.805  0.0457 -1.6943  1.6302
  114OSM    C1F11923   4.098   5.288  10.537  0.4603  0.2310  0.2353
  114OSM     OF11924   4.208   5.335  10.565 -0.3826  0.3332  0.1569
  114OSM    C2F11925   3.985   5.377  10.474 -0.5761  0.1125  0.8109
  114OSM    H2F11926   3.925   5.395  10.566 -1.4637  0.6078  0.1501
  114OSM    H2G11927   3.932   5.302  10.411 -0.0705  0.2823  0.1684
  114OSM    C3F11928   4.031   5.512  10.406  0.1200 -0.2707  0.2179
  114OSM    H3F11929   4.096   5.565  10.479 -2.7381  1.4366  1.6547
  114OSM    H3G11930   3.945   5.581  10.392  1.0071  0.8846  0.3112
  114OSM    C4F11931   4.098   5.482  10.273 -0.1468  0.1726 -0.6923
  114OSM    H4F11932   4.197   5.437  10.293  0.1855  1.2705  0.2171
  114OSM    H4G11933   4.107   5.577  10.216 -0.3052 -0.5657 -2.0024
  114OSM    C5F11934   4.016   5.389  10.180 -0.3832 -0.2921 -0.1447
  114OSM    H5F11935   3.913   5.431  10.177 -1.8377 -3.4055  0.9709
  114OSM    H5G11936   4.010   5.289  10.228 -0.7656  0.2778  1.0308
  114OSM    C6F11937   4.067   5.370  10.039 -0.2366  0.3873  0.4186
  114OSM    H6F11938   3.986   5.323   9.979 -1.4494  0.4711  1.9265
  114OSM    H6G11939   4.162   5.313  10.034  0.2254  1.2539 -1.1517
  114OSM    C7F11940   4.091   5.508   9.978 -0.6225 -0.1463 -0.0315
  114OSM    H7F11941   4.184   5.553  10.019 -1.4677 -0.1619  1.9752
  114OSM    H7G11942   4.007   5.576  10.004 -1.1615 -0.4979 -0.8044
  114OSM    C8F11943   4.086   5.511   9.824  0.2931 -0.3642 -0.3926
  114OSM    H8F11944   4.041   5.608   9.794 -0.2304 -0.6780 -0.6416
  114OSM    H8G11945   4.014   5.438   9.780 -0.8073  0.6078 -0.2491
  114OSM    C9F11946   4.218   5.496   9.757  0.1935 -0.0013 -0.6567
  114OSM    H9F11947   4.288   5.431   9.812 -0.0153  0.1360 -0.2273
  114OSM   C10F11948   4.274   5.564   9.654 -0.4635 -0.2845 -0.3030
  114OSM   H10F11949   4.370   5.528   9.614 -1.0088 -0.3884 -1.5747
  114OSM   C11F11950   4.211   5.666   9.567  0.7243  0.5176  1.3124
  114OSM   H11F11951   4.263   5.763   9.583  2.4893 -0.0764 -0.4860
  114OSM   H11G11952   4.107   5.689   9.600  0.4496  1.3594 -0.0992
  114OSM   C12F11953   4.204   5.618   9.420  0.3931 -0.0199  0.5897
  114OSM   H12F11954   4.115   5.553   9.404  1.2916 -1.0260 -0.5924
  114OSM   H12G11955   4.295   5.560   9.392  0.2620  0.7928 -1.7286
  114OSM   C13F11956   4.188   5.732   9.322 -0.2145  0.1933  0.9897
  114OSM   H13F11957   4.286   5.783   9.311 -0.3504 -0.0527 -2.5298
  114OSM   H13G11958   4.101   5.797   9.348 -1.0393 -0.7152  0.5508
  114OSM   C14F11959   4.151   5.688   9.179 -0.2910 -0.0275  0.3890
  114OSM   H14F11960   4.088   5.770   9.139 -2.0715 -0.9919  1.1502
  114OSM   H14G11961   4.081   5.604   9.195 -3.1308  1.9014 -0.9799
  114OSM   C15F11962   4.269   5.653   9.087  0.0256 -0.0459  1.1415
  114OSM   H15F11963   4.314   5.558   9.122 -1.9153 -1.3583  0.2223
  114OSM   H15G11964   4.347   5.732   9.083 -0.7952  0.7235 -0.4678
  114OSM   C16F11965   4.216   5.635   8.945  0.1314  0.7572 -0.5522
  114OSM   H16F11966   4.157   5.724   8.916 -1.5847  0.1772  0.9466
  114OSM   H16G11967   4.138   5.555   8.950  1.8522 -1.1457 -2.1590
  114OSM   C17F11968   4.338   5.608   8.842  0.2334 -0.4272  0.5667
  114OSM   H17F11969   4.288   5.618   8.744  1.9381  0.9324 -0.2171
  114OSM   H17G11970   4.373   5.505   8.861  1.9100  0.0408  0.2068
  114OSM   C18F11971   4.465   5.703   8.833  0.4984  0.3144 -0.1667
  114OSM   H18F11972   4.427   5.805   8.812  0.8650  0.1989 -1.4597
  114OSM   H18G11973   4.523   5.651   8.754  1.4561  0.1175  0.6450
  114OSM   H18H11974   4.516   5.697   8.931  0.3975 -1.0312 -0.1753
  115OSM      N11975   0.235   4.827  10.788  0.0321 -0.0244  0.3735
  115OSM    C1511976   0.350   4.732  10.768 -0.2382  0.0816  0.1751
  115OSM   H15A11977   0.445   4.775  10.796 -0.3565 -0.6675  1.8228
  115OSM   H15B11978   0.360   4.691  10.668 -0.7297 -0.2268  0.2497
  115OSM   H15C11979   0.327   4.649  10.833  2.4955 -1.1592 -0.3079
  115OSM    C1411980   0.239   4.933  10.683  0.2996  0.4680 -0.5517
  115OSM   H14A11981   0.320   5.004  10.690  0.8246 -0.2498  1.3869
  115OSM   H14B11982   0.143   4.981  10.695  1.4688  2.4771  1.7424
  115OSM   H14C11983   0.244   4.884  10.587  0.1613 -0.3643 -0.1431
  115OSM    C1311984   0.111   4.744  10.768 -0.5720  0.0705  0.5735
  115OSM   H13A11985   0.092   4.676  10.849 -1.0286  1.3885  1.6062
  115OSM   H13B11986   0.111   4.700  10.669  1.6720 -0.4885  0.7855
  115OSM   H13C11987   0.028   4.813  10.755 -0.2688  0.5113  0.9763
  115OSM    C1211988   0.240   4.890  10.927  0.0865 -0.0328  1.2134
  115OSM   H12A11989   0.320   4.963  10.937 -2.6719  3.2579  1.0794
  115OSM   H12B11990   0.259   4.812  10.999  2.2882 -1.7085 -0.9905
  115OSM    C1111991   0.117   4.975  10.969  0.0125  0.3702  0.0973
  115OSM   H11A11992   0.143   4.998  11.075  1.2441  0.3474 -0.1841
  115OSM   H11B11993   0.027   4.911  10.961  1.0565 -1.1167 -0.1460
  115OSM      P11994   0.025   5.216  10.944 -0.3217 -0.7040  0.1382
  115OSM    O1311995  -0.081   5.161  11.030 -0.4420 -0.2614 -0.1879
  115OSM    O1411996   0.117   5.312  11.010 -0.0665  0.3383 -0.7937
  115OSM    O1111997  -0.025   5.266  10.808 -0.4220  0.1273 -0.2531
  115OSM    O1211998   0.110   5.095  10.899 -0.1768  0.0899  0.5838
  115OSM    C1S11999  -0.149   5.228  10.744 -0.1149 -1.1080 -0.3497
  115OSM    H1S12000  -0.243   5.256  10.795  0.0592 -1.6940  0.3196
  115OSM    H1T12001  -0.150   5.117  10.742 -0.2483 -1.1167  0.1230
  115OSM     NF12002  -0.280   5.235  10.538 -0.2332 -0.2089  0.5121
  115OSM    HNF12003  -0.284   5.153  10.482 -3.4940 -1.0853  1.7711
  115OSM    C2S12004  -0.157   5.275  10.596 -0.1845 -0.3773  0.0179
  115OSM    H2S12005  -0.148   5.385  10.588  0.6333 -0.1599  2.9444
  115OSM    C3S12006  -0.030   5.222  10.509 -1.3162 -0.0778 -0.6011
  115OSM    H3S12007  -0.024   5.111  10.506 -0.4188 -0.0163 -2.6404
  115OSM     O312008   0.091   5.282  10.555 -0.1589 -0.0256 -0.3670
  115OSM    HO312009   0.071   5.307  10.645  0.3870 -0.2487 -0.1751
  115OSM    C4S12010  -0.048   5.270  10.371  0.2983 -0.1054  0.6971
  115OSM    H4S12011  -0.028   5.377  10.358  1.6959 -0.5536 -1.2306
  115OSM    C5S12012  -0.083   5.189  10.265  0.3395 -0.1782 -0.0863
  115OSM    H5S12013  -0.106   5.081  10.271  0.3029 -0.2418 -1.0897
  115OSM    C6S12014  -0.106   5.232  10.125 -0.4463  0.1855 -0.2040
  115OSM    H6S12015  -0.023   5.188  10.066 -0.6231  1.1003 -1.1534
  115OSM    H6T12016  -0.089   5.341  10.113  0.0160  0.0709 -0.6185
  115OSM    C7S12017  -0.240   5.188  10.082 -0.0642  0.4161  0.3892
  115OSM    H7S12018  -0.311   5.222  10.160  0.1025  1.0096  0.2842
  115OSM    H7T12019  -0.245   5.079  10.060  1.5991  0.6927 -1.7828
  115OSM    C8S12020  -0.281   5.266   9.956  0.5078 -0.5953  0.2616
  115OSM    H8S12021  -0.286   5.372   9.988  1.6149  0.0986 -1.6913
  115OSM    H8T12022  -0.384   5.240   9.923  0.7145  1.6922 -2.6493
  115OSM    C9S12023  -0.193   5.252   9.830 -0.2499  0.7800 -0.4140
  115OSM    H9S12024  -0.086   5.255   9.860 -0.7222 -0.1998  1.4762
  115OSM    H9T12025  -0.223   5.331   9.758 -3.4439  0.4208  0.3753
  115OSM   C10S12026  -0.216   5.122   9.760 -0.4909 -0.3712  0.6735
  115OSM   H10S12027  -0.325   5.112   9.738 -0.6705 -1.5800  1.9287
  115OSM   H10T12028  -0.183   5.042   9.830 -0.0059  0.6761  1.6758
  115OSM   C11S12029  -0.141   5.087   9.626  0.0502  0.0366  0.2340
  115OSM   H11S12030  -0.162   5.158   9.543 -0.9592  0.4759  0.8345
  115OSM   H11T12031  -0.187   4.992   9.591 -0.7706  0.1970  0.8289
  115OSM   C12S12032   0.011   5.076   9.655  0.7134 -0.2577 -0.0968
  115OSM   H12S12033   0.023   5.010   9.743 -3.3379 -1.3761 -0.2219
  115OSM   H12T12034   0.053   5.176   9.680 -2.7995  1.0991  0.9516
  115OSM   C13S12035   0.092   5.016   9.542  0.0831 -0.0388  0.3122
  115OSM   H13S12036   0.050   4.919   9.507  2.4751 -0.5243 -1.4586
  115OSM   H13T12037   0.194   4.988   9.578 -0.8662 -3.6713  0.5317
  115OSM   C14S12038   0.107   5.091   9.415  0.3253 -0.0485  0.3198
  115OSM   H14S12039   0.166   5.184   9.425  0.7273 -0.0933 -1.2956
  115OSM   H14T12040   0.016   5.136   9.370  0.2308  0.5344  1.0840
  115OSM   C15S12041   0.167   5.009   9.298  0.0846  0.1725  1.2666
  115OSM   H15S12042   0.100   4.926   9.270  0.8709 -0.4999  1.3486
  115OSM   H15T12043   0.262   4.967   9.338  0.3086  0.5297  1.1221
  115OSM   C16S12044   0.207   5.094   9.167  0.4861 -0.2634  0.4238
  115OSM   H16S12045   0.271   5.031   9.102 -1.1173 -1.1769 -0.3426
  115OSM   H16T12046   0.265   5.182   9.202  1.0381  1.2094 -3.5886
  115OSM   C17S12047   0.085   5.143   9.091 -0.0335 -0.4519 -0.5721
  115OSM   H17S12048   0.014   5.205   9.151  0.4006  1.7184 -2.1591
  115OSM   H17T12049   0.023   5.055   9.063 -0.9214 -0.9043  2.4873
  115OSM   C18S12050   0.127   5.228   8.975  0.7022 -0.4984  0.0942
  115OSM   H18S12051   0.206   5.178   8.915  1.4283 -0.7559  1.2382
  115OSM   H18T12052   0.170   5.327   9.001  1.6385 -0.6153 -0.9041
  115OSM   H18U12053   0.039   5.235   8.908 -1.1149 -0.1998  2.3913
  115OSM    C1F12054  -0.401   5.294  10.557 -0.2815 -0.2040  0.6429
  115OSM     OF12055  -0.410   5.395  10.621  0.3175  0.1875 -0.4465
  115OSM    C2F12056  -0.517   5.223  10.484 -0.2580  0.2645  1.1478
  115OSM    H2F12057  -0.485   5.128  10.435 -0.1183  1.1157 -0.4779
  115OSM    H2G12058  -0.554   5.298  10.412 -1.0375 -1.5342 -0.4125
  115OSM    C3F12059  -0.638   5.192  10.566  0.2836  0.1334  0.3886
  115OSM    H3F12060  -0.680   5.290  10.597  1.0748  0.6750 -0.2103
  115OSM    H3G12061  -0.619   5.139  10.661 -0.5988 -0.2371  0.3687
  115OSM    C4F12062  -0.760   5.128  10.489 -0.0673 -0.0976 -0.2331
  115OSM    H4F12063  -0.857   5.153  10.537  0.1033  0.0123  0.0611
  115OSM    H4G12064  -0.740   5.020  10.507  3.7042  0.7654  1.7311
  115OSM    C5F12065  -0.769   5.156  10.338 -0.0425 -0.3909  0.0056
  115OSM    H5F12066  -0.675   5.122  10.290 -0.0181 -0.8212  0.3491
  115OSM    H5G12067  -0.764   5.266  10.324 -0.2078 -0.5414 -1.3637
  115OSM    C6F12068  -0.895   5.105  10.267 -1.1255 -0.1723 -0.8540
  115OSM    H6F12069  -0.869   5.006  10.225  0.7350 -1.2888  2.5700
  115OSM    H6G12070  -0.934   5.170  10.186 -3.7567 -1.1426 -0.4788
  115OSM    C7F12071  -1.029   5.092  10.351 -0.2206 -0.4807 -0.2627
  115OSM    H7F12072  -1.042   5.183  10.414 -1.4257 -0.9211  0.1469
  115OSM    H7G12073  -1.025   5.002  10.416 -1.7719 -1.2534 -1.1623
  115OSM    C8F12074  -1.163   5.087  10.273 -0.7867  0.1197 -0.1416
  115OSM    H8F12075  -1.149   5.002  10.204  0.6699  0.8576 -0.8120
  115OSM    H8G12076  -1.162   5.185  10.220  0.5457  0.3066  0.1901
  115OSM    C9F12077  -1.276   5.068  10.373 -0.2516  0.2177 -0.1934
  115OSM    H9F12078  -1.256   4.992  10.450 -3.0418 -0.6720 -0.2381
  115OSM   C10F12079  -1.384   5.144  10.384  0.7924  0.2192 -0.0619
  115OSM   H10F12080  -1.453   5.126  10.468 -1.2907 -2.0671 -2.0746
  115OSM   C11F12081  -1.422   5.265  10.308  0.5948  0.1328  0.6956
  115OSM   H11F12082  -1.340   5.313  10.252 -0.7302  0.0843 -1.4001
  115OSM   H11G12083  -1.466   5.344  10.372  2.7130  0.3219  1.9815
  115OSM   C12F12084  -1.538   5.226  10.211 -1.2608 -0.1872  0.9818
  115OSM   H12F12085  -1.580   5.314  10.156 -0.5748 -0.0425  0.6877
  115OSM   H12G12086  -1.613   5.167  10.268 -0.0181 -1.3312  1.4786
  115OSM   C13F12087  -1.486   5.143  10.092  0.2184  0.1204  0.7395
  115OSM   H13F12088  -1.441   5.046  10.122  0.8281  0.0218 -0.4456
  115OSM   H13G12089  -1.403   5.203  10.049  1.3477  0.1990  2.8483
  115OSM   C14F12090  -1.601   5.113   9.987 -0.5299 -0.5739 -0.0521
  115OSM   H14F12091  -1.662   5.201   9.957 -1.4699 -1.2846 -0.2646
  115OSM   H14G12092  -1.678   5.049  10.034  0.1523 -1.7066 -0.4309
  115OSM   C15F12093  -1.539   5.041   9.871  0.0861 -0.2358  0.1382
  115OSM   H15F12094  -1.617   4.972   9.833  0.6917 -0.3785 -0.9031
  115OSM   H15G12095  -1.452   4.978   9.898 -0.6491 -0.9718  0.8295
  115OSM   C16F12096  -1.500   5.134   9.754  0.7939 -0.0198 -0.0932
  115OSM   H16F12097  -1.412   5.190   9.792 -0.1123 -0.0091  2.0926
  115OSM   H16G12098  -1.585   5.203   9.734  0.6797  0.4509  1.8847
  115OSM   C17F12099  -1.470   5.055   9.625  0.3524 -0.1596 -0.8856
  115OSM   H17F12100  -1.559   4.992   9.602  0.0581 -1.0764  2.3106
  115OSM   H17G12101  -1.390   4.984   9.656 -0.6399 -0.9242  0.0036
  115OSM   C18F12102  -1.434   5.144   9.506 -0.1203  0.9003 -0.5096
  115OSM   H18F12103  -1.340   5.193   9.540  0.3146 -1.0084  1.3300
  115OSM   H18G12104  -1.525   5.205   9.493 -0.6469  0.6050  1.3893
  115OSM   H18H12105  -1.412   5.084   9.416 -2.1235  1.5302 -1.4781
  116OSM      N12106   4.156   1.582  11.210 -0.6383  0.3521  0.5957
  116OSM    C1512107   4.246   1.568  11.329  0.1514  0.2472  0.3918
  116OSM   H15A12108   4.190   1.562  11.421 -2.1530 -0.9449 -0.9939
  116OSM   H15B12109   4.314   1.652  11.334  0.5540  0.0912 -1.6401
  116OSM   H15C12110   4.298   1.473  11.324 -0.9295 -0.3250 -0.1263
  116OSM    C1412111   4.058   1.475  11.218 -0.6726 -0.2230  0.1964
  116OSM   H14A12112   3.997   1.468  11.129  1.3917 -1.4371 -1.2234
  116OSM   H14B12113   3.996   1.478  11.306  0.4200 -1.5308  1.0529
  116OSM   H14C12114   4.117   1.385  11.230 -1.1280 -0.4466  0.8251
  116OSM    C1312115   4.091   1.714  11.213  0.3114 -0.8276  0.3328
  116OSM   H13A12116   4.012   1.731  11.141 -0.6529  2.0017  1.9111
  116OSM   H13B12117   4.175   1.779  11.190  0.7130 -1.3107  0.3983
  116OSM   H13C12118   4.047   1.733  11.309  1.2786 -0.6037  0.7462
  116OSM    C1212119   4.235   1.581  11.077 -0.8141 -0.1353  0.3092
  116OSM   H12A12120   4.283   1.675  11.054  1.2639 -1.4684 -1.1241
  116OSM   H12B12121   4.171   1.560  10.992  0.0110 -1.8653  0.0753
  116OSM    C1112122   4.356   1.484  11.052 -0.2155 -0.2528  0.0282
  116OSM   H11A12123   4.432   1.499  11.132  0.5612  0.1747 -0.7671
  116OSM   H11B12124   4.400   1.505  10.952 -0.8803  1.1297  0.0013
  116OSM      P12125   4.266   1.262  10.951  0.0606  0.5652 -0.2869
  116OSM    O1312126   4.263   1.125  11.003 -0.1099  0.2501  0.2583
  116OSM    O1412127   4.143   1.315  10.890  0.1167  0.6192 -0.3244
  116OSM    O1112128   4.387   1.266  10.856  0.3889  0.1320  0.1293
  116OSM    O1212129   4.316   1.354  11.070  0.1588 -0.3629  0.4712
  116OSM    C1S12130   4.371   1.194  10.730 -0.2751  0.0859 -0.5880
  116OSM    H1S12131   4.285   1.124  10.735 -0.4987  0.4406  1.5410
  116OSM    H1T12132   4.465   1.138  10.712  0.1636  0.3921  0.6591
  116OSM     NF12133   4.342   1.206  10.474  0.0144 -0.3626  0.4629
  116OSM    HNF12134   4.428   1.195  10.425  0.7000  1.9270  1.0184
  116OSM    C2S12135   4.351   1.285  10.608 -0.1241 -0.4488  0.2736
  116OSM    H2S12136   4.255   1.336  10.628 -0.3815 -0.4438 -0.8824
  116OSM    C3S12137   4.457   1.397  10.599  1.0454  1.5421 -0.0717
  116OSM    H3S12138   4.546   1.354  10.547 -0.3083 -1.3866 -0.1757
  116OSM     O312139   4.508   1.450  10.719  0.2528  0.5253 -0.2276
  116OSM    HO312140   4.474   1.384  10.780 -0.7670  1.4520  0.2533
  116OSM    C4S12141   4.408   1.505  10.512 -0.1454  0.7533 -0.0893
  116OSM    H4S12142   4.298   1.519  10.511 -0.7692 -3.1548 -0.4770
  116OSM    C5S12143   4.484   1.571  10.424 -0.2187  0.5044 -0.1295
  116OSM    H5S12144   4.592   1.549  10.428 -0.1522  0.2754 -1.9762
  116OSM    C6S12145   4.436   1.678  10.331  0.7310 -0.8365  0.0996
  116OSM    H6S12146   4.344   1.736  10.353  0.5679 -0.7823 -0.7052
  116OSM    H6T12147   4.413   1.638  10.230 -0.5628  0.8530 -0.3079
  116OSM    C7S12148   4.546   1.786  10.300  0.0456  0.4833  0.5490
  116OSM    H7S12149   4.577   1.827  10.398  0.8128 -1.0608  0.9675
  116OSM    H7T12150   4.488   1.865  10.247 -1.0976  0.2124  1.3600
  116OSM    C8S12151   4.661   1.728  10.220  0.3006  0.7580  0.5363
  116OSM    H8S12152   4.627   1.689  10.122  1.4831  0.0074  0.4045
  116OSM    H8T12153   4.696   1.641  10.279  0.5472  0.0853 -0.5777
  116OSM    C9S12154   4.773   1.826  10.198 -0.1436 -0.0436  0.1749
  116OSM    H9S12155   4.786   1.885  10.291 -1.9564 -0.1986  0.5784
  116OSM    H9T12156   4.740   1.899  10.121 -2.6261 -0.0576  1.1232
  116OSM   C10S12157   4.906   1.774  10.144 -0.1407 -0.1829 -0.4600
  116OSM   H10S12158   4.926   1.698  10.223  2.5760  0.4478 -0.4413
  116OSM   H10T12159   4.992   1.844  10.151  0.9403 -1.5058  0.0894
  116OSM   C11S12160   4.902   1.717  10.007 -0.2779 -0.4890  0.4332
  116OSM   H11S12161   4.869   1.786   9.927  0.4726 -1.8946 -1.1423
  116OSM   H11T12162   4.826   1.635  10.009  0.4265 -1.1844 -0.2286
  116OSM   C12S12163   5.034   1.654   9.952  0.7976  0.1427 -0.1997
  116OSM   H12S12164   5.061   1.584  10.034 -2.2039  0.4075  1.1886
  116OSM   H12T12165   5.110   1.734   9.959  0.3333  0.5056  1.1403
  116OSM   C13S12166   5.010   1.585   9.816 -0.1027  0.0089  0.1147
  116OSM   H13S12167   4.919   1.524   9.828 -0.2638  0.5599  2.0937
  116OSM   H13T12168   5.086   1.508   9.791 -0.3357  0.4238 -2.0442
  116OSM   C14S12169   5.006   1.682   9.693  0.0247 -0.0198 -0.5699
  116OSM   H14S12170   5.104   1.735   9.698  1.0693 -1.7599 -1.4515
  116OSM   H14T12171   4.917   1.748   9.693 -0.1436 -0.2380  0.4885
  116OSM   C15S12172   5.009   1.607   9.555  0.4542 -0.0926  0.6639
  116OSM   H15S12173   4.921   1.540   9.551 -0.2843  0.9018 -0.6854
  116OSM   H15T12174   5.102   1.547   9.543  0.2092 -0.1190 -1.4702
  116OSM   C16S12175   4.981   1.711   9.439 -0.3614 -0.1108 -0.4099
  116OSM   H16S12176   5.064   1.784   9.447 -1.0510  0.5975  0.3325
  116OSM   H16T12177   4.886   1.767   9.443 -1.0808 -1.1958 -1.3553
  116OSM   C17S12178   4.983   1.627   9.311 -0.2307 -0.1938  0.1937
  116OSM   H17S12179   4.915   1.541   9.328  2.7201 -2.3586  2.0725
  116OSM   H17T12180   5.079   1.574   9.294 -2.4709 -4.2036 -1.2213
  116OSM   C18S12181   4.927   1.705   9.189 -0.3703 -0.5476 -0.0391
  116OSM   H18S12182   4.924   1.662   9.087  2.4943  3.0149 -1.8927
  116OSM   H18T12183   4.985   1.800   9.180  1.2698 -1.3273  1.6748
  116OSM   H18U12184   4.821   1.724   9.215 -0.0025  1.0100  0.4525
  116OSM    C1F12185   4.236   1.137  10.429 -0.1425  0.6700 -0.8074
  116OSM     OF12186   4.145   1.112  10.506  0.0085 -0.8057 -0.1321
  116OSM    C2F12187   4.242   1.074  10.293 -0.9569 -0.0408  0.0767
  116OSM    H2F12188   4.321   0.997  10.304 -0.0579  0.9636  0.8214
  116OSM    H2G12189   4.266   1.152  10.218 -1.1699 -2.1342 -2.3287
  116OSM    C3F12190   4.108   1.003  10.254 -0.5304 -0.8191  0.5219
  116OSM    H3F12191   4.026   1.073  10.281 -1.4550 -1.8487  0.4396
  116OSM    H3G12192   4.089   0.905  10.302  1.1445 -0.9650  0.9658
  116OSM    C4F12193   4.102   0.992  10.102 -0.1189 -0.3980 -0.2983
  116OSM    H4F12194   4.206   0.962  10.078 -0.0309 -1.1333  0.9014
  116OSM    H4G12195   4.084   1.092  10.059 -1.2667 -1.3732 -2.2359
  116OSM    C5F12196   3.993   0.906  10.035  0.4885 -0.0287 -0.7985
  116OSM    H5F12197   3.893   0.933  10.075 -0.0700 -0.9588 -1.5268
  116OSM    H5G12198   4.022   0.804  10.068 -0.1981 -0.0728 -0.2959
  116OSM    C6F12199   3.989   0.917   9.884 -0.3094  0.2232 -0.0733
  116OSM    H6F12200   4.071   0.863   9.832 -1.1051  0.6903 -1.9084
  116OSM    H6G12201   4.009   1.026   9.869  1.3303 -0.0142  0.2523
  116OSM    C7F12202   3.854   0.880   9.827  0.1509  0.0162  0.2901
  116OSM    H7F12203   3.864   0.886   9.717  2.7295  0.4378  0.4624
  116OSM    H7G12204   3.776   0.950   9.862 -0.9216 -0.5238 -0.9623
  116OSM    C8F12205   3.826   0.735   9.874  0.5115  0.1094 -0.1596
  116OSM    H8F12206   3.727   0.706   9.832 -0.3794 -0.0581  1.8904
  116OSM    H8G12207   3.808   0.735   9.984  2.5171  1.5917  0.2232
  116OSM    C9F12208   3.921   0.630   9.840 -0.0844  1.0938 -0.6081
  116OSM    H9F12209   4.018   0.644   9.889 -0.1953  3.1148 -0.8463
  116OSM   C10F12210   3.890   0.520   9.762  0.0713 -0.2284  0.3028
  116OSM   H10F12211   3.968   0.447   9.737 -0.7863 -0.7523 -0.9246
  116OSM   C11F12212   3.762   0.486   9.704 -0.4281  0.1843  0.3174
  116OSM   H11F12213   3.675   0.509   9.770 -1.0993  0.5112 -0.6548
  116OSM   H11G12214   3.756   0.377   9.685 -1.3679 -0.0848  1.8977
  116OSM   C12F12215   3.747   0.553   9.566  0.2160 -0.4185 -0.3719
  116OSM   H12F12216   3.754   0.664   9.574  1.1336 -0.5402  0.8827
  116OSM   H12G12217   3.645   0.530   9.528 -1.1684  2.0394  1.5119
  116OSM   C13F12218   3.856   0.501   9.474 -0.0498  0.1759 -0.7369
  116OSM   H13F12219   3.840   0.391   9.469 -2.9003  0.5855 -3.5217
  116OSM   H13G12220   3.962   0.523   9.501 -0.4640  0.9417  0.3347
  116OSM   C14F12221   3.831   0.546   9.333  0.5788 -0.0093  0.4097
  116OSM   H14F12222   3.738   0.505   9.288  0.6681  0.0799  0.1426
  116OSM   H14G12223   3.909   0.501   9.268  0.7600 -0.9214  1.2343
  116OSM   C15F12224   3.823   0.698   9.319 -0.3273 -0.4553  0.9038
  116OSM   H15F12225   3.917   0.730   9.369 -0.3768  2.7074 -0.7781
  116OSM   H15G12226   3.741   0.745   9.378 -1.4463 -0.4149 -0.6335
  116OSM   C16F12227   3.831   0.743   9.169 -0.0654  0.6025 -0.2503
  116OSM   H16F12228   3.925   0.697   9.129  1.2673  2.9417  0.0369
  116OSM   H16G12229   3.851   0.852   9.164  0.6785  0.4131 -2.9945
  116OSM   C17F12230   3.708   0.707   9.087 -0.8167  0.2978  0.0866
  116OSM   H17F12231   3.622   0.770   9.118 -1.6338 -1.1309  0.8094
  116OSM   H17G12232   3.673   0.603   9.102  1.4724 -0.8038 -1.7003
  116OSM   C18F12233   3.712   0.726   8.934 -1.3847  0.3984 -0.6876
  116OSM   H18F12234   3.810   0.691   8.895 -1.0249 -1.6974  1.8156
  116OSM   H18G12235   3.704   0.835   8.913 -0.7112  0.2729 -1.6604
  116OSM   H18H12236   3.625   0.673   8.889 -1.0774 -0.2822 -0.4862
  117OSM      N12237   2.684   5.229  10.966 -0.0154  0.0003 -0.0992
  117OSM    C1512238   2.684   5.378  10.985  0.2408  0.2667  0.1196
  117OSM   H15A12239   2.590   5.419  11.020  1.8317  2.7443  1.8695
  117OSM   H15B12240   2.715   5.423  10.892 -1.8165 -1.0625 -1.2980
  117OSM   H15C12241   2.745   5.413  11.067  0.1446  0.4294  0.1211
  117OSM    C1412242   2.667   5.163  11.104 -0.5465 -0.6625  0.0807
  117OSM   H14A12243   2.566   5.178  11.139 -0.6796  1.5692 -1.1396
  117OSM   H14B12244   2.728   5.220  11.172 -0.7444 -0.1993 -0.1258
  117OSM   H14C12245   2.684   5.056  11.100 -0.1439 -1.0183  4.9814
  117OSM    C1312246   2.554   5.208  10.887 -0.4500 -0.1506  0.1623
  117OSM   H13A12247   2.524   5.105  10.875 -0.1040 -0.3931  1.2980
  117OSM   H13B12248   2.569   5.263  10.795  1.0817 -1.8301 -0.6540
  117OSM   H13C12249   2.472   5.255  10.938 -1.5906 -0.4383 -1.3331
  117OSM    C1212250   2.804   5.189  10.888 -0.5902 -0.2145  0.1658
  117OSM   H12A12251   2.893   5.200  10.948  0.2653  0.1835 -1.1319
  117OSM   H12B12252   2.826   5.260  10.810  1.9070 -1.4471 -0.3500
  117OSM    C1112253   2.805   5.038  10.841  0.3946  0.2817 -0.1302
  117OSM   H11A12254   2.901   5.016  10.790 -0.3725  0.1775 -1.5504
  117OSM   H11B12255   2.729   5.023  10.762  1.4037 -1.4179 -0.8361
  117OSM      P12256   2.704   4.821  10.972 -0.5968 -0.2015  0.0270
  117OSM    O1312257   2.792   4.723  11.034  0.1456  0.0261  0.1441
  117OSM    O1412258   2.580   4.847  11.048  0.1011 -1.0962 -0.1187
  117OSM    O1112259   2.683   4.776  10.816  0.4522  0.0369 -0.0061
  117OSM    O1212260   2.793   4.954  10.952  0.4110  0.1221  0.2750
  117OSM    C1S12261   2.658   4.637  10.786  0.4091 -0.4660 -0.2727
  117OSM    H1S12262   2.556   4.604  10.816  0.0915 -0.2298 -1.0735
  117OSM    H1T12263   2.729   4.572  10.842  1.5924 -0.3566 -1.5827
  117OSM     NF12264   2.631   4.479  10.603  0.1761  0.2867 -0.0773
  117OSM    HNF12265   2.694   4.408  10.571 -1.9632 -2.5262  1.4013
  117OSM    C2S12266   2.679   4.606  10.634  0.1797  0.4382 -0.1158
  117OSM    H2S12267   2.624   4.683  10.575 -0.2478 -1.3688 -2.2334
  117OSM    C3S12268   2.829   4.619  10.601 -0.2197  0.3066 -0.1515
  117OSM    H3S12269   2.883   4.533  10.646 -2.3434 -1.9032 -1.6044
  117OSM     O312270   2.891   4.740  10.647  0.1331  0.4905 -0.3565
  117OSM    HO312271   2.820   4.775  10.702  0.5101 -0.3435  0.7039
  117OSM    C4S12272   2.848   4.607  10.447  0.0379  0.7288 -0.1960
  117OSM    H4S12273   2.771   4.653  10.384 -1.1417  0.3552  0.9240
  117OSM    C5S12274   2.946   4.533  10.393  0.3932 -0.0090  0.2208
  117OSM    H5S12275   3.023   4.490  10.458  1.2817  1.1952 -0.0034
  117OSM    C6S12276   2.957   4.511  10.243  0.2645  0.2232  0.6070
  117OSM    H6S12277   2.962   4.402  10.225  0.9931  0.2109  0.8430
  117OSM    H6T12278   3.041   4.573  10.203 -0.4177  1.8262  1.5640
  117OSM    C7S12279   2.827   4.554  10.159 -0.0428  0.5191 -0.0131
  117OSM    H7S12280   2.810   4.662  10.178 -4.1704  0.0256  0.0071
  117OSM    H7T12281   2.747   4.497  10.210  0.6959  0.0907  0.6926
  117OSM    C8S12282   2.840   4.526  10.009 -0.3821  0.3820 -0.1852
  117OSM    H8S12283   2.865   4.418  10.003  0.2672  0.5560 -0.7059
  117OSM    H8T12284   2.931   4.582   9.980  0.5058 -0.7351  0.3592
  117OSM    C9S12285   2.722   4.571   9.934  0.5973  0.7607 -0.3618
  117OSM    H9S12286   2.704   4.678   9.956  2.4092  1.8658 -3.5361
  117OSM    H9T12287   2.631   4.511   9.958  0.7635  0.4556 -0.4864
  117OSM   C10S12288   2.750   4.546   9.781 -0.0796  0.1320  0.3375
  117OSM   H10S12289   2.739   4.438   9.760  0.3461  0.0423  0.5774
  117OSM   H10T12290   2.851   4.585   9.759  0.4506 -1.0979  0.5128
  117OSM   C11S12291   2.646   4.617   9.689  0.0963  0.0214 -0.3842
  117OSM   H11S12292   2.616   4.720   9.718  1.6894  1.2663 -2.8373
  117OSM   H11T12293   2.553   4.559   9.708 -0.8275  0.4965 -2.9640
  117OSM   C12S12294   2.680   4.616   9.538  0.2710  0.7385 -0.5666
  117OSM   H12S12295   2.702   4.512   9.506 -1.3667 -0.6828  2.5084
  117OSM   H12T12296   2.777   4.667   9.519  1.3463  0.3246  2.9665
  117OSM   C13S12297   2.579   4.688   9.440 -0.1404 -0.1388 -0.3183
  117OSM   H13S12298   2.600   4.795   9.460  0.0169 -0.3985  1.0039
  117OSM   H13T12299   2.473   4.661   9.462  0.0413 -0.7854 -0.2359
  117OSM   C14S12300   2.606   4.649   9.290  0.1813 -0.2745 -0.1814
  117OSM   H14S12301   2.564   4.546   9.277 -0.9977  0.0028  1.2087
  117OSM   H14T12302   2.715   4.649   9.273  0.3750  2.4515  0.7061
  117OSM   C15S12303   2.531   4.746   9.197  0.5110  0.0897  0.7623
  117OSM   H15S12304   2.556   4.853   9.212  0.6385  0.5886 -2.4180
  117OSM   H15T12305   2.421   4.735   9.208  0.3559 -1.5657 -1.6235
  117OSM   C16S12306   2.572   4.705   9.053 -0.1488 -0.1228 -0.1938
  117OSM   H16S12307   2.525   4.605   9.042 -0.7239 -0.0138  1.1304
  117OSM   H16T12308   2.683   4.717   9.049 -0.2824  1.1103 -0.8548
  117OSM   C17S12309   2.507   4.805   8.958 -0.0875  0.3527  0.4752
  117OSM   H17S12310   2.543   4.908   8.980 -0.2317  0.6966 -0.8407
  117OSM   H17T12311   2.399   4.786   8.969  0.5231 -3.9348  0.9525
  117OSM   C18S12312   2.540   4.777   8.805  0.1147  0.6602 -0.2173
  117OSM   H18S12313   2.648   4.782   8.779 -0.0102 -0.7103 -1.0780
  117OSM   H18T12314   2.482   4.859   8.756 -2.5304 -0.9742 -0.0163
  117OSM   H18U12315   2.500   4.679   8.772  1.9831  0.9134 -3.6577
  117OSM    C1F12316   2.500   4.452  10.589 -1.0561 -0.0593 -0.2441
  117OSM     OF12317   2.418   4.546  10.595 -0.6787 -0.3113 -0.6157
  117OSM    C2F12318   2.462   4.312  10.552 -0.5921  0.5126  0.6206
  117OSM    H2F12319   2.357   4.296  10.582 -0.3511 -3.5239 -0.1075
  117OSM    H2G12320   2.530   4.241  10.604 -0.8117 -1.9395 -2.2089
  117OSM    C3F12321   2.479   4.297  10.393  0.2500 -1.0584  0.0214
  117OSM    H3F12322   2.589   4.300  10.387  0.4378 -3.9898  0.7644
  117OSM    H3G12323   2.438   4.380  10.331 -0.8337 -0.9443  0.8359
  117OSM    C4F12324   2.439   4.167  10.332 -0.1685 -0.0265 -0.3258
  117OSM    H4F12325   2.329   4.157  10.343 -0.2751  1.5038  0.1951
  117OSM    H4G12326   2.483   4.079  10.383 -1.7075 -0.4601  0.3241
  117OSM    C5F12327   2.467   4.162  10.182  0.2950 -0.1336  0.1014
  117OSM    H5F12328   2.448   4.263  10.142  2.6016  0.4881  0.3927
  117OSM    H5G12329   2.402   4.084  10.137  0.8069 -1.5250  1.6571
  117OSM    C6F12330   2.612   4.112  10.142  0.0311 -0.2265  0.4230
  117OSM    H6F12331   2.625   4.013  10.190  1.5661 -0.8447 -1.1331
  117OSM    H6G12332   2.699   4.175  10.171 -0.2827  1.0758 -1.2550
  117OSM    C7F12333   2.624   4.094   9.991  0.1304  0.3652  0.0855
  117OSM    H7F12334   2.609   4.193   9.943  3.6496  1.2024  0.4211
  117OSM    H7G12335   2.541   4.036   9.944 -1.4254  3.1354 -0.8208
  117OSM    C8F12336   2.760   4.034   9.944 -0.0223 -0.1773  0.6272
  117OSM    H8F12337   2.751   3.979   9.848  0.4417  0.0272  0.4615
  117OSM    H8G12338   2.797   3.949  10.005  1.0182 -0.8645 -0.8978
  117OSM    C9F12339   2.859   4.142   9.950  0.2499  0.4468  0.1101
  117OSM    H9F12340   2.876   4.194  10.046  2.5827  0.2997 -0.1588
  117OSM   C10F12341   2.935   4.178   9.844 -0.4248 -0.6471 -0.1322
  117OSM   H10F12342   3.018   4.246   9.867 -1.9236  0.2320  3.2478
  117OSM   C11F12343   2.936   4.128   9.695 -0.4238  0.1312  0.2941
  117OSM   H11F12344   2.902   4.023   9.704  0.2625 -0.0762  0.4992
  117OSM   H11G12345   3.039   4.126   9.654 -0.1940 -0.6146  0.8919
  117OSM   C12F12346   2.828   4.207   9.625 -0.4370  0.3238  0.1401
  117OSM   H12F12347   2.858   4.314   9.630  0.5758  0.0052  1.2864
  117OSM   H12G12348   2.724   4.208   9.663 -1.0299  0.7475 -1.3879
  117OSM   C13F12349   2.814   4.165   9.472 -0.7969  0.1928  0.2680
  117OSM   H13F12350   2.736   4.087   9.485 -1.1482  0.6305  0.8398
  117OSM   H13G12351   2.909   4.116   9.440 -0.9278  1.8653 -3.0057
  117OSM   C14F12352   2.780   4.275   9.377  0.0134  0.4361 -0.2474
  117OSM   H14F12353   2.850   4.362   9.376 -0.1286  0.7595 -4.8306
  117OSM   H14G12354   2.680   4.320   9.395 -0.8595 -1.7471  0.6914
  117OSM   C15F12355   2.819   4.231   9.235  0.1372  0.1974 -0.2077
  117OSM   H15F12356   2.759   4.142   9.206  0.8575 -1.2830  2.5052
  117OSM   H15G12357   2.922   4.189   9.229  0.0285  0.0010 -0.7875
  117OSM   C16F12358   2.800   4.336   9.124  0.5033  0.2157  0.0607
  117OSM   H16F12359   2.861   4.428   9.137  0.9186 -0.0492 -0.0237
  117OSM   H16G12360   2.694   4.369   9.119  0.5482  0.1940 -1.3326
  117OSM   C17F12361   2.849   4.283   8.992  0.3081  0.2999 -0.1261
  117OSM   H17F12362   2.812   4.181   8.969 -1.6153  1.3703 -2.1020
  117OSM   H17G12363   2.959   4.272   8.999  0.3576  0.6821 -0.3084
  117OSM   C18F12364   2.814   4.372   8.875  0.7430 -0.8753 -0.6671
  117OSM   H18F12365   2.862   4.472   8.890  1.8691 -1.6589  1.4462
  117OSM   H18G12366   2.705   4.393   8.865  1.0926  0.0400 -3.0598
  117OSM   H18H12367   2.852   4.328   8.781  0.7827 -0.7405 -0.7157
  118OSM      N12368   1.731   5.091  11.304  0.0612  0.4770  0.0933
  118OSM    C1512369   1.854   5.149  11.372  0.8748 -0.0084  0.3236
  118OSM   H15A12370   1.857   5.106  11.471 -1.9709 -1.4691 -0.1269
  118OSM   H15B12371   1.837   5.254  11.393  1.1087  0.0347  0.3025
  118OSM   H15C12372   1.939   5.131  11.309 -0.7930 -1.8139 -1.5497
  118OSM    C1412373   1.734   4.937  11.315 -0.6953 -0.1984  0.7720
  118OSM   H14A12374   1.641   4.895  11.278 -0.3952 -0.3653  0.1939
  118OSM   H14B12375   1.766   4.903  11.412  0.3022 -1.3203  0.0820
  118OSM   H14C12376   1.808   4.904  11.244  0.0268  0.7632  1.0691
  118OSM    C1312377   1.610   5.122  11.377 -0.1233  0.2181  0.3560
  118OSM   H13A12378   1.594   5.229  11.371  0.6861  0.2738 -1.1946
  118OSM   H13B12379   1.612   5.074  11.474  0.7384 -0.1497  0.1670
  118OSM   H13C12380   1.521   5.086  11.327  0.3006 -2.0654  1.1465
  118OSM    C1212381   1.738   5.127  11.152 -0.4160  0.7560 -1.2308
  118OSM   H12A12382   1.681   5.048  11.105 -0.8499 -1.3786  2.4833
  118OSM   H12B12383   1.843   5.126  11.130 -0.0118 -0.9441  0.4921
  118OSM    C1112384   1.689   5.264  11.104  0.2979  0.2756 -0.6723
  118OSM   H11A12385   1.707   5.270  10.995 -1.2794  0.7975 -0.9339
  118OSM   H11B12386   1.750   5.338  11.160 -0.5217 -0.6680  1.5737
  118OSM      P12387   1.435   5.224  11.048 -0.7275 -0.0054 -0.0132
  118OSM    O1312388   1.362   5.144  11.146  0.1715  0.6338  0.0738
  118OSM    O1412389   1.361   5.325  10.963 -0.9284  0.0679 -0.3606
  118OSM    O1112390   1.502   5.122  10.949 -0.3734 -0.4587 -0.2544
  118OSM    O1212391   1.551   5.293  11.130 -0.2247  0.1726 -0.2661
  118OSM    C1S12392   1.416   5.071  10.836 -0.1451 -0.8451  0.2059
  118OSM    H1S12393   1.352   5.147  10.786  1.9030 -0.3970 -1.9369
  118OSM    H1T12394   1.346   4.995  10.877  0.6081 -1.1396  0.9592
  118OSM     NF12395   1.441   4.971  10.622  1.5352 -0.2528 -0.3026
  118OSM    HNF12396   1.413   4.878  10.600  0.1027  0.3289 -1.1312
  118OSM    C2S12397   1.506   4.990  10.746 -0.5824  0.0576  0.4164
  118OSM    H2S12398   1.600   5.039  10.714 -2.5566  2.5335 -2.0486
  118OSM    C3S12399   1.552   4.858  10.815  0.4518 -0.0230 -1.0938
  118OSM    H3S12400   1.456   4.803  10.830  0.5443 -0.6953 -2.7395
  118OSM     O312401   1.610   4.879  10.946 -0.1865  0.7083 -0.4313
  118OSM    HO312402   1.590   4.971  10.967 -1.9818  0.3825 -0.5140
  118OSM    C4S12403   1.653   4.768  10.733  0.1795  0.4286  0.8643
  118OSM    H4S12404   1.742   4.819  10.694 -0.4468 -0.1263 -1.4783
  118OSM    C5S12405   1.631   4.634  10.705 -0.7858  0.5608 -0.2471
  118OSM    H5S12406   1.551   4.576  10.754  0.2762 -0.0836  0.7672
  118OSM    C6S12407   1.720   4.550  10.615 -0.2222  0.6072 -0.4079
  118OSM    H6S12408   1.678   4.449  10.595  0.1779  0.7381 -2.0473
  118OSM    H6T12409   1.818   4.539  10.667  0.3164 -0.4748 -1.5765
  118OSM    C7S12410   1.731   4.615  10.477 -0.5677 -0.2467 -0.4804
  118OSM    H7S12411   1.809   4.561  10.419 -1.2170 -0.8686 -0.7997
  118OSM    H7T12412   1.760   4.722  10.481 -2.0436  0.1618  0.5456
  118OSM    C8S12413   1.604   4.614  10.389 -0.2688  0.0861  0.5897
  118OSM    H8S12414   1.538   4.698  10.418 -2.2036 -1.4176  0.7906
  118OSM    H8T12415   1.548   4.518  10.385 -1.3325  0.7034  0.5152
  118OSM    C9S12416   1.645   4.651  10.244 -0.1878 -0.2898 -0.2036
  118OSM    H9S12417   1.747   4.692  10.258 -0.5193  1.1200 -1.6211
  118OSM    H9T12418   1.583   4.733  10.201  1.4958  0.8548 -0.5728
  118OSM   C10S12419   1.655   4.528  10.152  0.5105  0.2760  0.4800
  118OSM   H10S12420   1.548   4.499  10.152  0.8721 -1.1925  1.9516
  118OSM   H10T12421   1.707   4.442  10.200  1.4307  0.2364 -0.5653
  118OSM   C11S12422   1.714   4.544  10.012 -0.2652 -0.0757 -0.0732
  118OSM   H11S12423   1.825   4.550  10.021 -0.1471 -2.5520  1.0654
  118OSM   H11T12424   1.669   4.637   9.972  0.6521 -0.1388 -1.3089
  118OSM   C12S12425   1.670   4.434   9.914 -0.1202 -0.4894 -0.0864
  118OSM   H12S12426   1.559   4.432   9.912 -0.1509  0.7183 -1.0874
  118OSM   H12T12427   1.707   4.337   9.953 -1.8204 -1.3476 -0.5106
  118OSM   C13S12428   1.727   4.459   9.771  0.3201 -0.9315  0.1285
  118OSM   H13S12429   1.834   4.485   9.776  0.0223  1.2443 -2.3560
  118OSM   H13T12430   1.676   4.543   9.718  2.7145 -1.0308 -2.5549
  118OSM   C14S12431   1.734   4.331   9.688 -0.5117  0.1817  0.8279
  118OSM   H14S12432   1.632   4.293   9.669  0.3913 -2.1393  0.2442
  118OSM   H14T12433   1.782   4.251   9.748  0.6149  0.9135  0.9520
  118OSM   C15S12434   1.820   4.341   9.561  0.2990 -0.3958  0.1057
  118OSM   H15S12435   1.920   4.380   9.589  0.3789 -0.0776 -0.6089
  118OSM   H15T12436   1.782   4.417   9.489 -0.4291  1.9682  2.7908
  118OSM   C16S12437   1.851   4.201   9.501  0.0267  0.3431  0.8942
  118OSM   H16S12438   1.751   4.153   9.486 -0.1504  0.8668  0.3083
  118OSM   H16T12439   1.900   4.132   9.573  2.0917  1.0423  0.2185
  118OSM   C17S12440   1.926   4.198   9.370 -0.0363 -0.4736  0.0779
  118OSM   H17S12441   2.028   4.233   9.395  0.4394 -1.5048 -0.3714
  118OSM   H17T12442   1.881   4.268   9.296 -1.6492 -2.8720 -1.3579
  118OSM   C18S12443   1.937   4.060   9.315 -0.2126  0.0488  0.7502
  118OSM   H18S12444   1.839   4.011   9.296  1.0865 -1.6893 -2.0522
  118OSM   H18T12445   1.995   3.999   9.387 -0.8002 -0.4238  0.8362
  118OSM   H18U12446   1.999   4.048   9.224  0.6113 -0.7116  1.3968
  118OSM    C1F12447   1.412   5.074  10.545 -0.2620  0.0336  0.1188
  118OSM     OF12448   1.469   5.178  10.551 -0.2897 -0.2819 -0.1995
  118OSM    C2F12449   1.299   5.052  10.444 -0.1680  0.0259  0.7121
  118OSM    H2F12450   1.221   4.993  10.497 -1.0537 -1.0498 -1.6581
  118OSM    H2G12451   1.333   4.993  10.356 -3.0532 -1.1803  0.3155
  118OSM    C3F12452   1.239   5.191  10.393 -0.5198  0.2033 -0.1688
  118OSM    H3F12453   1.311   5.247  10.329 -1.0451  0.0422 -0.9061
  118OSM    H3G12454   1.208   5.255  10.479 -0.0430  0.6969 -0.3586
  118OSM    C4F12455   1.114   5.156  10.306 -0.4179  0.2424  0.0679
  118OSM    H4F12456   1.052   5.086  10.367 -0.5455 -0.2690 -0.6422
  118OSM    H4G12457   1.145   5.094  10.220  1.4883  1.7323 -0.3890
  118OSM    C5F12458   1.019   5.271  10.272 -0.3893  0.0864  0.2280
  118OSM    H5F12459   1.065   5.372  10.267 -0.5549  0.1029 -2.8030
  118OSM    H5G12460   0.945   5.280  10.354 -0.4763  1.8868 -0.0240
  118OSM    C6F12461   0.945   5.249  10.140 -0.3428 -0.0020  0.1213
  118OSM    H6F12462   0.865   5.326  10.141  1.4226  1.8854  0.4878
  118OSM    H6G12463   0.903   5.146  10.135 -1.2871  0.4266 -1.8993
  118OSM    C7F12464   1.028   5.270  10.010  0.1632 -0.1053 -0.0049
  118OSM    H7F12465   1.122   5.212  10.010 -0.0577 -0.4715 -0.9756
  118OSM    H7G12466   1.059   5.377  10.006  0.8558 -0.2772  0.5605
  118OSM    C8F12467   0.953   5.227   9.882 -0.0024  0.0040  0.0999
  118OSM    H8F12468   0.922   5.122   9.900  1.0939 -0.3322  0.0927
  118OSM    H8G12469   1.040   5.228   9.814  2.5325  1.3721  3.1362
  118OSM    C9F12470   0.844   5.322   9.850 -0.0984  0.1357  0.0455
  118OSM    H9F12471   0.753   5.326   9.911 -0.3086  0.2151 -0.2757
  118OSM   C10F12472   0.842   5.409   9.751  0.9984  0.1576 -0.2180
  118OSM   H10F12473   0.760   5.482   9.751 -1.5102 -2.4340  1.4022
  118OSM   C11F12474   0.943   5.424   9.643 -0.9269 -0.2244  0.4081
  118OSM   H11F12475   1.048   5.422   9.680 -0.4341 -0.5555 -0.9289
  118OSM   H11G12476   0.936   5.527   9.602  0.5096 -0.8908 -1.7139
  118OSM   C12F12477   0.932   5.320   9.525  0.5854 -0.7421  0.4535
  118OSM   H12F12478   0.822   5.313   9.506  0.6220 -0.6940  0.2222
  118OSM   H12G12479   0.957   5.219   9.564  1.3335 -0.9959 -0.6414
  118OSM   C13F12480   1.013   5.359   9.404  0.6167  0.9912 -0.4666
  118OSM   H13F12481   1.077   5.438   9.448 -2.1073  2.4469  1.1778
  118OSM   H13G12482   0.951   5.415   9.330 -0.3065  1.9110  0.9359
  118OSM   C14F12483   1.086   5.237   9.354  0.4464  0.4303  0.0266
  118OSM   H14F12484   1.035   5.142   9.379  2.6410 -1.0681 -0.8788
  118OSM   H14G12485   1.183   5.235   9.408  0.3284 -2.9646  0.3007
  118OSM   C15F12486   1.114   5.240   9.203  0.0184 -0.0487  0.1950
  118OSM   H15F12487   1.118   5.346   9.168 -0.8776 -0.2646 -0.6044
  118OSM   H15G12488   1.017   5.218   9.153  0.6763  0.8422 -1.5592
  118OSM   C16F12489   1.222   5.146   9.166  0.1213 -0.7452  0.6391
  118OSM   H16F12490   1.221   5.053   9.227  0.4290 -0.5509  0.9407
  118OSM   H16G12491   1.316   5.197   9.196 -0.6669  1.4832 -0.4563
  118OSM   C17F12492   1.236   5.096   9.017  0.5115  0.0698  0.4486
  118OSM   H17F12493   1.162   5.013   9.013  0.6899 -0.0783 -3.0598
  118OSM   H17G12494   1.330   5.038   9.003 -0.4632 -1.2954 -0.6944
  118OSM   C18F12495   1.215   5.212   8.916  0.4687  0.0011 -0.3096
  118OSM   H18F12496   1.265   5.306   8.947 -1.1959  0.4857  1.0092
  118OSM   H18G12497   1.105   5.219   8.906  0.3384 -0.6068  0.5730
  118OSM   H18H12498   1.251   5.191   8.812 -0.3557 -0.0949 -0.5794
  119OSM      N12499   3.307   4.340  11.129  0.5429  0.1093 -0.8092
  119OSM    C1512500   3.351   4.422  11.249 -0.2870  0.1366 -0.2054
  119OSM   H15A12501   3.308   4.520  11.254  1.2004  0.8786 -1.2580
  119OSM   H15B12502   3.459   4.422  11.251 -0.2749  0.7588 -0.5952
  119OSM   H15C12503   3.304   4.363  11.327 -1.0833 -0.7041 -1.2841
  119OSM    C1412504   3.366   4.205  11.152  0.4331  0.3142 -0.3437
  119OSM   H14A12505   3.471   4.223  11.170  0.5708 -1.0173  0.3380
  119OSM   H14B12506   3.365   4.156  11.056  0.9621  1.5212 -0.9771
  119OSM   H14C12507   3.317   4.153  11.234 -1.1245  2.2073 -0.0110
  119OSM    C1312508   3.153   4.328  11.142 -0.3896  0.4573 -0.3653
  119OSM   H13A12509   3.115   4.273  11.057 -0.7010  1.9056 -1.2109
  119OSM   H13B12510   3.111   4.427  11.130  4.6768  2.7285 -2.0916
  119OSM   H13C12511   3.118   4.271  11.226 -1.5785 -0.2609 -1.3140
  119OSM    C1212512   3.338   4.412  11.000  0.6426  0.1609 -0.7508
  119OSM   H12A12513   3.441   4.442  11.005  0.6503  0.0446 -0.1003
  119OSM   H12B12514   3.283   4.505  11.000  2.4670  1.2785 -0.7021
  119OSM    C1112515   3.323   4.324  10.878  0.7278  0.1550  0.7709
  119OSM   H11A12516   3.394   4.240  10.893 -0.3242 -0.8914  0.0276
  119OSM   H11B12517   3.354   4.381  10.787  0.4534 -0.0813  0.5298
  119OSM      P12518   3.081   4.354  10.805  0.0768 -0.2282 -0.3275
  119OSM    O1312519   2.957   4.305  10.869 -0.0063 -0.6270  0.1732
  119OSM    O1412520   3.107   4.501  10.821 -0.3373  0.6902  0.2742
  119OSM    O1112521   3.077   4.313  10.653 -0.4574  0.2833 -0.4499
  119OSM    O1212522   3.196   4.262  10.861 -0.1042  0.0479  0.0622
  119OSM    C1S12523   3.066   4.175  10.621 -0.0148 -0.2727  0.0750
  119OSM    H1S12524   2.965   4.138  10.650 -0.3963 -0.8822 -1.9223
  119OSM    H1T12525   3.137   4.111  10.679  0.2121 -0.3721 -0.3087
  119OSM     NF12526   3.067   4.000  10.448  0.3943  0.1718 -0.0396
  119OSM    HNF12527   3.140   3.932  10.449 -1.7379 -2.2998 -1.0877
  119OSM    C2S12528   3.096   4.142  10.473  0.2589  0.1099 -0.4658
  119OSM    H2S12529   3.030   4.198  10.403 -0.2227  1.2397  0.8522
  119OSM    C3S12530   3.242   4.191  10.446  0.3285  0.2566 -0.7407
  119OSM    H3S12531   3.311   4.143  10.518 -0.6791 -3.5497 -2.0644
  119OSM     O312532   3.265   4.331  10.470  0.2603  0.5547  0.1652
  119OSM    HO312533   3.191   4.350  10.528  0.0215 -2.8224  1.1984
  119OSM    C4S12534   3.287   4.166  10.311  0.3319  0.1246  0.4752
  119OSM    H4S12535   3.227   4.224  10.240  0.9316 -1.5618 -1.5286
  119OSM    C5S12536   3.390   4.104  10.266  0.0887 -0.2482 -0.1514
  119OSM    H5S12537   3.454   4.052  10.339 -0.7897 -0.5390  0.4287
  119OSM    C6S12538   3.432   4.107  10.123  0.4586  0.0929  0.3371
  119OSM    H6S12539   3.543   4.106  10.117  0.5195 -2.8826  0.2636
  119OSM    H6T12540   3.385   4.192  10.070 -0.2619 -0.5833 -0.1391
  119OSM    C7S12541   3.394   3.971  10.052 -0.2008 -0.4404  0.0683
  119OSM    H7S12542   3.292   3.945  10.087 -0.6498 -1.4336 -1.8169
  119OSM    H7T12543   3.464   3.890  10.083  0.4946 -0.2746 -1.0128
  119OSM    C8S12544   3.397   3.973   9.900  1.3192  0.2280 -0.1547
  119OSM    H8S12545   3.304   4.014   9.856  0.3556 -0.8152  0.8349
  119OSM    H8T12546   3.408   3.869   9.862  0.6483  0.9090 -2.3857
  119OSM    C9S12547   3.520   4.049   9.844 -0.1041 -0.2400  1.1254
  119OSM    H9S12548   3.606   3.987   9.875  0.4363  0.5613  1.2449
  119OSM    H9T12549   3.523   4.154   9.881  0.2013  0.0481  0.3062
  119OSM   C10S12550   3.531   4.063   9.686 -0.6073  0.2857 -0.7124
  119OSM   H10S12551   3.432   4.093   9.646 -0.6345  0.3157 -0.6226
  119OSM   H10T12552   3.561   3.962   9.652 -1.6199 -0.2978  0.0580
  119OSM   C11S12553   3.644   4.158   9.650  0.5342  0.4238  0.0337
  119OSM   H11S12554   3.740   4.118   9.689 -0.0708 -0.9044  0.2277
  119OSM   H11T12555   3.620   4.263   9.680 -1.9745 -0.9924  3.6840
  119OSM   C12S12556   3.661   4.152   9.497 -0.0431 -0.0938 -0.1230
  119OSM   H12S12557   3.568   4.191   9.452 -0.9256 -2.3302 -0.3535
  119OSM   H12T12558   3.660   4.042   9.482  0.6617 -0.0910 -0.2234
  119OSM   C13S12559   3.781   4.226   9.440  0.1211 -0.1057  0.2466
  119OSM   H13S12560   3.874   4.168   9.458  0.8530  1.3039  1.2527
  119OSM   H13T12561   3.787   4.326   9.490 -1.3156  0.5779 -0.8676
  119OSM   C14S12562   3.763   4.244   9.288  0.4545 -0.4161 -0.3450
  119OSM   H14S12563   3.664   4.290   9.267  0.4350  1.0860  2.4779
  119OSM   H14T12564   3.770   4.151   9.227  0.9202 -0.9830  0.5375
  119OSM   C15S12565   3.862   4.349   9.228  0.0882  0.1601 -0.7038
  119OSM   H15S12566   3.966   4.314   9.240 -0.6949 -1.8086  1.0748
  119OSM   H15T12567   3.854   4.442   9.288 -0.3429 -0.4277  0.1780
  119OSM   C16S12568   3.825   4.389   9.085 -0.0027  0.2914  0.3463
  119OSM   H16S12569   3.717   4.413   9.074 -0.6728 -2.4127  0.2355
  119OSM   H16T12570   3.840   4.302   9.017 -0.9618 -0.9392  1.6586
  119OSM   C17S12571   3.916   4.497   9.029  0.2804  0.1823 -0.1414
  119OSM   H17S12572   4.020   4.462   9.043  0.0981  0.1639  1.2870
  119OSM   H17T12573   3.900   4.592   9.085  3.5173  1.3303 -0.9135
  119OSM   C18S12574   3.884   4.535   8.882  0.3600  0.0605 -0.1225
  119OSM   H18S12575   3.956   4.607   8.837 -0.0489 -0.7640 -2.1817
  119OSM   H18T12576   3.780   4.575   8.874 -0.0198 -0.8111  0.3074
  119OSM   H18U12577   3.895   4.444   8.820  0.9996  0.5737 -0.7677
  119OSM    C1F12578   2.944   3.950  10.458 -0.8474 -0.2946  0.1152
  119OSM     OF12579   2.849   4.027  10.477  0.2750  0.0857 -0.4746
  119OSM    C2F12580   2.916   3.803  10.432 -0.2603 -0.0203 -0.2625
  119OSM    H2F12581   2.815   3.804  10.385 -1.4987  0.2886  2.2349
  119OSM    H2G12582   2.909   3.756  10.532 -1.5292  0.5353 -0.0646
  119OSM    C3F12583   3.004   3.735  10.325  0.3871  0.1526  0.2699
  119OSM    H3F12584   2.950   3.638  10.326  0.5179  0.0795  0.4119
  119OSM    H3G12585   3.109   3.718  10.358 -0.1389 -0.4174  1.7386
  119OSM    C4F12586   2.994   3.799  10.183  0.0938 -0.4587 -0.4571
  119OSM    H4F12587   3.043   3.899  10.185 -0.6554 -0.0772 -0.8306
  119OSM    H4G12588   2.889   3.822  10.156  0.1444  0.5554  0.1290
  119OSM    C5F12589   3.062   3.710  10.079  0.1798  0.0029  0.5583
  119OSM    H5F12590   3.003   3.619  10.058 -0.2458  0.7964 -1.9570
  119OSM    H5G12591   3.159   3.680  10.125 -0.5677 -0.9212  1.5992
  119OSM    C6F12592   3.082   3.779   9.944 -0.5389 -0.3397 -0.4301
  119OSM    H6F12593   3.110   3.887   9.940  0.2932 -0.5348 -0.0207
  119OSM    H6G12594   2.983   3.783   9.894 -1.1649  1.2076  0.8377
  119OSM    C7F12595   3.174   3.707   9.854 -0.0823  0.3761 -0.1530
  119OSM    H7F12596   3.143   3.601   9.843 -0.6600  0.6196 -0.9057
  119OSM    H7G12597   3.271   3.703   9.908 -0.4147 -0.7340  0.3777
  119OSM    C8F12598   3.191   3.768   9.715 -0.1658  0.5476  0.1990
  119OSM    H8F12599   3.284   3.717   9.683  0.8466  2.1800  0.4015
  119OSM    H8G12600   3.213   3.877   9.721 -2.0699  1.0239 -0.8319
  119OSM    C9F12601   3.085   3.742   9.618 -0.7667 -0.1084  0.2868
  119OSM    H9F12602   2.982   3.727   9.655 -0.8142  0.3572  0.3492
  119OSM   C10F12603   3.093   3.741   9.485 -0.2133  0.1448  0.3567
  119OSM   H10F12604   3.006   3.721   9.421  1.3616 -0.1598 -1.7950
  119OSM   C11F12605   3.220   3.784   9.405  0.2255 -0.4560 -0.0326
  119OSM   H11F12606   3.231   3.711   9.321  2.0796  0.7707 -0.9348
  119OSM   H11G12607   3.318   3.777   9.457  1.0055 -0.9194 -1.5052
  119OSM   C12F12608   3.197   3.927   9.345 -0.0225  0.3139 -0.5253
  119OSM   H12F12609   3.180   4.002   9.425  0.8153 -0.2315  0.1768
  119OSM   H12G12610   3.103   3.925   9.285  0.9451 -1.2313 -2.0898
  119OSM   C13F12611   3.329   3.972   9.277 -0.4917  0.2710  0.0367
  119OSM   H13F12612   3.379   3.888   9.224  0.9405  0.8210  0.4427
  119OSM   H13G12613   3.410   3.999   9.349  1.1001 -2.2877 -0.6408
  119OSM   C14F12614   3.314   4.095   9.185  0.0400 -0.4101 -0.0491
  119OSM   H14F12615   3.269   4.182   9.237 -0.7875 -1.9204  1.9061
  119OSM   H14G12616   3.240   4.061   9.109  2.2992 -2.1002 -1.6139
  119OSM   C15F12617   3.436   4.149   9.118 -0.7814 -0.4919  0.5861
  119OSM   H15F12618   3.497   4.189   9.202  1.1184 -0.9577 -0.5236
  119OSM   H15G12619   3.423   4.240   9.056  1.5358 -0.6896 -0.2882
  119OSM   C16F12620   3.535   4.057   9.050  0.5313  0.4195 -0.0346
  119OSM   H16F12621   3.575   3.990   9.129  1.0609  1.4037  0.5490
  119OSM   H16G12622   3.613   4.124   9.009 -0.5243  1.0850 -1.0176
  119OSM   C17F12623   3.465   3.977   8.938 -0.1706  0.7068 -0.7524
  119OSM   H17F12624   3.434   4.052   8.862 -3.6472 -0.9238 -1.0965
  119OSM   H17G12625   3.375   3.935   8.987 -1.8692  1.2732 -3.1726
  119OSM   C18F12626   3.555   3.879   8.858 -0.0265  0.4422  0.0560
  119OSM   H18F12627   3.501   3.854   8.765  1.2740 -0.1553 -0.5559
  119OSM   H18G12628   3.568   3.792   8.926  1.6942  0.7549  0.1572
  119OSM   H18H12629   3.656   3.911   8.825 -0.8381  2.2490 -0.8046
  120OSM      N12630   1.666   0.504  10.884 -0.2279 -0.8089 -0.3297
  120OSM    C1512631   1.685   0.490  10.740 -0.0774  0.1995  0.7424
  120OSM   H15A12632   1.591   0.459  10.698 -1.3422  3.6589  0.6791
  120OSM   H15B12633   1.750   0.405  10.724 -2.4907 -2.4278  3.5469
  120OSM   H15C12634   1.718   0.589  10.710 -0.9660  0.4280  0.5111
  120OSM    C1412635   1.648   0.364  10.946 -0.1233 -0.3866 -0.2785
  120OSM   H14A12636   1.650   0.376  11.053 -1.0209  1.9586 -0.4706
  120OSM   H14B12637   1.730   0.299  10.921 -0.4695 -0.4762 -1.2204
  120OSM   H14C12638   1.548   0.325  10.933 -0.5741 -0.1851  2.1674
  120OSM    C1312639   1.796   0.541  10.945 -0.2706  0.4880  0.1778
  120OSM   H13A12640   1.829   0.636  10.905  2.6639 -0.3645  0.3238
  120OSM   H13B12641   1.875   0.468  10.931 -0.6802  0.5676 -3.2858
  120OSM   H13C12642   1.786   0.559  11.051 -1.3971 -0.6999  0.2847
  120OSM    C1212643   1.557   0.594  10.928  0.4031 -0.0700  0.1494
  120OSM   H12A12644   1.530   0.589  11.033 -0.8374 -1.3220 -0.1878
  120OSM   H12B12645   1.475   0.560  10.866  0.7710  0.1767 -0.4692
  120OSM    C1112646   1.579   0.743  10.896  0.0280 -0.7705 -0.4909
  120OSM   H11A12647   1.675   0.784  10.933 -0.1819  0.2526 -1.0338
  120OSM   H11B12648   1.493   0.797  10.942  0.5143  1.0629 -1.6405
  120OSM      P12649   1.653   0.872  10.685  0.2895 -0.0828  0.3517
  120OSM    O1312650   1.638   0.999  10.754 -0.3642 -0.7504  0.0347
  120OSM    O1412651   1.789   0.813  10.680 -0.6240 -0.6957 -0.2913
  120OSM    O1112652   1.618   0.881  10.533 -0.7725  0.1356  0.2252
  120OSM    O1212653   1.563   0.765  10.752  0.5286  0.0763 -0.4998
  120OSM    C1S12654   1.535   0.782  10.471 -0.0017 -0.5082  0.5886
  120OSM    H1S12655   1.431   0.772  10.508 -0.0995 -0.2682  0.3724
  120OSM    H1T12656   1.583   0.684  10.494 -0.5120 -1.3122 -1.5487
  120OSM     NF12657   1.425   0.716  10.253 -0.3063  0.4198 -0.8328
  120OSM    HNF12658   1.453   0.644  10.190 -2.0462 -2.3436  1.3118
  120OSM    C2S12659   1.534   0.790  10.318  0.8453 -0.7037  0.1938
  120OSM    H2S12660   1.514   0.896  10.290  0.3229 -0.8245  0.1081
  120OSM    C3S12661   1.672   0.743  10.268 -0.4820  0.0545 -0.0851
  120OSM    H3S12662   1.681   0.633  10.268 -0.1531  0.0786 -0.3678
  120OSM     O312663   1.780   0.795  10.349 -0.0960 -0.3178  0.0008
  120OSM    HO312664   1.741   0.831  10.428 -1.7117 -1.9461  0.0087
  120OSM    C4S12665   1.684   0.783  10.119 -0.6272  0.0299  0.5926
  120OSM    H4S12666   1.648   0.707  10.048 -0.9196  0.4139  0.3234
  120OSM    C5S12667   1.737   0.895  10.069 -0.5000  0.1811 -0.6120
  120OSM    H5S12668   1.766   0.973  10.141  0.4904 -0.8294  0.1159
  120OSM    C6S12669   1.754   0.955   9.931 -0.4811  0.6694 -0.7424
  120OSM    H6S12670   1.863   0.976   9.920 -0.7892  1.6694 -2.2116
  120OSM    H6T12671   1.699   1.051   9.916 -2.4978  0.3809  3.4629
  120OSM    C7S12672   1.739   0.853   9.814 -1.1796 -0.0526 -0.4868
  120OSM    H7S12673   1.631   0.827   9.819 -0.8050 -1.5328  1.3047
  120OSM    H7T12674   1.793   0.757   9.829  1.1977  1.4420  1.5633
  120OSM    C8S12675   1.780   0.928   9.693  0.4274  0.4740  0.0327
  120OSM    H8S12676   1.875   0.984   9.708  0.1717  0.5500  1.4912
  120OSM    H8T12677   1.696   0.998   9.675  0.2050  0.1932 -0.0185
  120OSM    C9S12678   1.788   0.846   9.563  0.2195 -0.1440 -0.0600
  120OSM    H9S12679   1.699   0.780   9.557  0.8486 -0.8811 -3.0847
  120OSM    H9T12680   1.872   0.773   9.569  1.4374  1.2859  0.7762
  120OSM   C10S12681   1.818   0.922   9.435  0.2475 -0.0885 -0.7339
  120OSM   H10S12682   1.925   0.949   9.423  0.5423 -1.6056 -1.7764
  120OSM   H10T12683   1.761   1.016   9.447 -1.6107 -1.0963 -1.3585
  120OSM   C11S12684   1.767   0.850   9.317 -0.1646 -0.4183  0.7325
  120OSM   H11S12685   1.667   0.810   9.341 -0.1121  0.2128  2.1408
  120OSM   H11T12686   1.835   0.763   9.303 -2.6980 -2.3456 -0.2600
  120OSM   C12S12687   1.753   0.934   9.185 -0.4604 -0.3836  0.2940
  120OSM   H12S12688   1.853   0.979   9.166 -0.2382 -1.0460 -0.1581
  120OSM   H12T12689   1.681   1.018   9.193 -1.1484 -0.3485 -4.0615
  120OSM   C13S12690   1.703   0.856   9.063  0.0741 -0.3479  0.0278
  120OSM   H13S12691   1.704   0.924   8.976 -0.8040 -1.3148 -0.7695
  120OSM   H13T12692   1.596   0.825   9.073 -0.2337  0.9402  1.0103
  120OSM   C14S12693   1.772   0.729   9.024 -0.3939  0.3930  0.7698
  120OSM   H14S12694   1.739   0.684   8.928 -2.9572  2.8754  0.3508
  120OSM   H14T12695   1.748   0.650   9.099 -1.1243  0.1840  0.3187
  120OSM   C15S12696   1.920   0.740   8.994 -0.1710  1.1020  0.2779
  120OSM   H15S12697   1.968   0.643   9.016 -1.5230  0.5481  0.9060
  120OSM   H15T12698   1.963   0.813   9.067  1.3980  0.5664 -0.0857
  120OSM   C16S12699   1.956   0.787   8.849  0.1382 -0.3044 -0.6924
  120OSM   H16S12700   1.924   0.892   8.833 -0.9559 -0.8071 -1.9590
  120OSM   H16T12701   1.892   0.727   8.781 -0.4071  1.8280 -2.1585
  120OSM   C17S12702   2.101   0.780   8.810 -0.0136 -0.1590 -0.3518
  120OSM   H17S12703   2.110   0.777   8.699 -0.4001  1.8750 -0.4773
  120OSM   H17T12704   2.137   0.676   8.824  0.9131  0.2280  0.2540
  120OSM   C18S12705   2.199   0.878   8.866  0.4831 -0.1209 -0.4860
  120OSM   H18S12706   2.169   0.983   8.850 -2.3015 -1.2317 -3.5452
  120OSM   H18T12707   2.299   0.874   8.817  0.0759  1.3575 -1.4873
  120OSM   H18U12708   2.208   0.857   8.975  3.0928  0.0173 -0.5964
  120OSM    C1F12709   1.295   0.745  10.261  0.6622 -0.6789 -0.3644
  120OSM     OF12710   1.263   0.829  10.346  0.4492  0.3515  0.5333
  120OSM    C2F12711   1.200   0.656  10.182 -0.0456  0.2351  0.7474
  120OSM    H2F12712   1.127   0.610  10.253 -1.8713  2.1581  0.1924
  120OSM    H2G12713   1.262   0.585  10.123  2.3962  0.3562  2.9976
  120OSM    C3F12714   1.122   0.746  10.082 -0.5195 -0.4570 -0.0519
  120OSM    H3F12715   1.188   0.826  10.043 -0.9096 -0.0913  0.0299
  120OSM    H3G12716   1.052   0.801  10.148 -0.4969  0.3019 -0.6562
  120OSM    C4F12717   1.040   0.666   9.982  0.1131 -0.1274  0.0356
  120OSM    H4F12718   0.936   0.649  10.020 -0.9361  1.2468 -2.0491
  120OSM    H4G12719   1.104   0.581   9.950  2.4630  1.8870 -0.8869
  120OSM    C5F12720   1.008   0.758   9.857  0.1312  0.6622  0.2683
  120OSM    H5F12721   1.109   0.792   9.825  0.5182 -1.1110 -0.5764
  120OSM    H5G12722   0.948   0.842   9.898 -0.5118 -0.8075  2.5688
  120OSM    C6F12723   0.920   0.693   9.753  0.2096 -0.1127 -0.0233
  120OSM    H6F12724   0.859   0.764   9.695 -1.4832 -2.5589 -1.4155
  120OSM    H6G12725   0.861   0.621   9.813  3.0229 -2.0540  0.6691
  120OSM    C7F12726   1.011   0.606   9.664 -0.7356 -0.6824  0.0730
  120OSM    H7F12727   1.061   0.527   9.725  2.1163  1.1421  0.2620
  120OSM    H7G12728   1.086   0.669   9.612 -2.7236  0.1962 -1.9028
  120OSM    C8F12729   0.928   0.522   9.559  0.3680 -0.6464 -0.3405
  120OSM    H8F12730   0.860   0.447   9.606 -1.5705  1.7670  0.9402
  120OSM    H8G12731   1.007   0.467   9.504  0.9725  0.7599 -0.9191
  120OSM    C9F12732   0.848   0.609   9.464  0.8956 -0.4618 -0.2791
  120OSM    H9F12733   0.760   0.662   9.504 -0.0768 -0.5675 -2.1458
  120OSM   C10F12734   0.882   0.633   9.340  0.0366  0.5217 -0.4492
  120OSM   H10F12735   0.804   0.668   9.271 -1.1145 -2.5161 -0.8264
  120OSM   C11F12736   1.003   0.573   9.267  0.3734  0.1062 -0.1067
  120OSM   H11F12737   1.078   0.516   9.326 -1.5465  0.4506  2.8767
  120OSM   H11G12738   1.062   0.654   9.219  1.3535 -1.3806 -1.4940
  120OSM   C12F12739   0.972   0.473   9.150 -0.5837  0.2760  0.5701
  120OSM   H12F12740   0.880   0.510   9.102  0.1074 -0.1555 -1.1499
  120OSM   H12G12741   0.951   0.374   9.195 -1.9124  0.4548  0.3803
  120OSM   C13F12742   1.081   0.452   9.045 -0.0339  0.2026 -0.4235
  120OSM   H13F12743   1.159   0.389   9.093  0.6370  0.1768 -1.5143
  120OSM   H13G12744   1.133   0.548   9.023 -0.1496  0.4305  0.2585
  120OSM   C14F12745   1.035   0.395   8.916  1.1843 -0.4436  0.0766
  120OSM   H14F12746   0.948   0.452   8.880  1.6452  0.9407  1.0463
  120OSM   H14G12747   0.985   0.298   8.935 -1.6523  1.0556  0.9068
  120OSM   C15F12748   1.135   0.359   8.805  0.7917 -0.1399 -0.3226
  120OSM   H15F12749   1.088   0.299   8.724  0.6768 -1.1591  0.4707
  120OSM   H15G12750   1.205   0.286   8.852  0.0992 -0.4419  0.2521
  120OSM   C16F12751   1.220   0.478   8.752 -0.4288  0.6430 -0.2074
  120OSM   H16F12752   1.247   0.540   8.840 -1.8361  1.4763 -0.3213
  120OSM   H16G12753   1.154   0.543   8.691  1.8119  1.3903 -1.9859
  120OSM   C17F12754   1.345   0.434   8.674  0.3207 -0.1043 -0.3251
  120OSM   H17F12755   1.301   0.387   8.584 -2.1725  0.8796  0.2833
  120OSM   H17G12756   1.397   0.360   8.738  0.6282  0.6764  0.3572
  120OSM   C18F12757   1.448   0.543   8.628  0.3266  0.1668 -0.4670
  120OSM   H18F12758   1.419   0.587   8.530  1.2028 -3.4098 -2.5033
  120OSM   H18G12759   1.545   0.488   8.630  1.2030  1.5028  3.3761
  120OSM   H18H12760   1.439   0.623   8.705  0.6360 -1.3643  1.2331
  121OSM      N12761   2.332   3.065  11.206  0.0058  0.3519 -0.3480
  121OSM    C1512762   2.476   3.086  11.233 -0.8090 -0.5958 -0.1892
  121OSM   H15A12763   2.530   3.142  11.158 -0.5342 -0.6300 -0.0225
  121OSM   H15B12764   2.520   2.989  11.248  0.1913 -0.1396 -0.0520
  121OSM   H15C12765   2.485   3.154  11.317  1.8497  0.0323 -0.8683
  121OSM    C1412766   2.276   3.001  11.323 -0.7568  0.1489  0.5301
  121OSM   H14A12767   2.322   2.904  11.339 -1.1372 -0.0110  0.6616
  121OSM   H14B12768   2.173   2.978  11.297 -0.0452 -0.3081 -2.2744
  121OSM   H14C12769   2.289   3.063  11.410  4.1885 -0.5149  0.5405
  121OSM    C1312770   2.263   3.197  11.186 -0.2791  0.4059 -0.1133
  121OSM   H13A12771   2.298   3.256  11.103  0.9682 -0.1470 -0.0121
  121OSM   H13B12772   2.278   3.261  11.272  1.3437 -0.1714  0.0692
  121OSM   H13C12773   2.157   3.185  11.170 -0.1646  0.5176 -0.9901
  121OSM    C1212774   2.318   2.977  11.082 -1.0990 -0.7540 -0.2576
  121OSM   H12A12775   2.352   3.028  10.993 -2.0614  1.4083  0.5304
  121OSM   H12B12776   2.211   2.976  11.066 -1.6661  0.3095  2.6823
  121OSM    C1112777   2.356   2.829  11.087 -0.5636  0.0882  0.6380
  121OSM   H11A12778   2.304   2.783  11.001 -1.2820  0.0874  1.0710
  121OSM   H11B12779   2.320   2.792  11.185 -0.4550 -1.7587  0.0060
  121OSM      P12780   2.582   2.833  10.957  0.4292  0.3651  0.7742
  121OSM    O1312781   2.716   2.877  11.001  0.4970  0.3748 -0.5250
  121OSM    O1412782   2.575   2.720  10.864  0.3462 -0.3626 -0.1432
  121OSM    O1112783   2.512   2.937  10.869  0.1935  0.3605 -0.1587
  121OSM    O1212784   2.493   2.806  11.084  0.0596  0.0803 -0.2106
  121OSM    C1S12785   2.584   3.054  10.825  0.0448  0.4228 -0.1629
  121OSM    H1S12786   2.693   3.035  10.817 -0.3449 -1.5622 -1.4743
  121OSM    H1T12787   2.571   3.142  10.893  0.9749  1.0020 -0.7216
  121OSM     NF12788   2.618   3.211  10.638 -0.3615 -0.2359  0.1254
  121OSM    HNF12789   2.591   3.306  10.644  1.1006  0.1246  2.0126
  121OSM    C2S12790   2.527   3.110  10.691 -0.2170  0.3633  0.7424
  121OSM    H2S12791   2.517   3.030  10.615  0.5897 -0.0066  1.0154
  121OSM    C3S12792   2.376   3.158  10.708 -0.1174  0.6528 -0.4599
  121OSM    H3S12793   2.381   3.239  10.785  2.3424 -1.9699  2.4308
  121OSM     O312794   2.297   3.054  10.772  0.5068 -0.4695 -0.1003
  121OSM    HO312795   2.368   2.996  10.800  1.1241  0.7158  0.8729
  121OSM    C4S12796   2.299   3.206  10.594 -0.1517 -0.2208  0.7080
  121OSM    H4S12797   2.277   3.119  10.532 -3.1511 -1.1591  2.8705
  121OSM    C5S12798   2.241   3.326  10.582  0.2499 -0.6200  0.4930
  121OSM    H5S12799   2.236   3.395  10.668  2.0047 -0.5123  0.5497
  121OSM    C6S12800   2.152   3.366  10.464 -0.1560 -0.7001  0.1035
  121OSM    H6S12801   2.194   3.458  10.420  1.2227 -1.3131  0.0822
  121OSM    H6T12802   2.054   3.406  10.499  0.9146  0.2724  2.1327
  121OSM    C7S12803   2.134   3.266  10.349  0.1476 -0.3415 -0.1257
  121OSM    H7S12804   2.051   3.195  10.369  0.4711 -1.0602 -1.2225
  121OSM    H7T12805   2.231   3.215  10.333  0.4600 -0.3935  1.7317
  121OSM    C8S12806   2.100   3.347  10.219 -0.3450  0.1815 -0.5953
  121OSM    H8S12807   2.187   3.413  10.195 -0.3245  0.8901  1.2548
  121OSM    H8T12808   2.003   3.402  10.225  1.4041  3.3451  2.2776
  121OSM    C9S12809   2.076   3.248  10.103  0.3592  0.5084 -0.8598
  121OSM    H9S12810   2.004   3.171  10.137  1.1628 -0.1803 -0.6996
  121OSM    H9T12811   2.175   3.206  10.077 -0.5657 -1.2892 -1.6426
  121OSM   C10S12812   2.008   3.309   9.971 -0.1641  0.3158 -0.2283
  121OSM   H10S12813   2.068   3.403   9.968 -0.4689  0.5048 -0.7347
  121OSM   H10T12814   1.898   3.327   9.981  0.2768  2.6789  1.0375
  121OSM   C11S12815   2.017   3.230   9.840 -0.5243  0.3799 -0.2979
  121OSM   H11S12816   1.955   3.139   9.844  1.3138 -1.0371 -1.9379
  121OSM   H11T12817   2.123   3.206   9.817  0.0715  2.3616  0.1589
  121OSM   C12S12818   1.969   3.309   9.718 -0.0614 -0.6620 -0.0534
  121OSM   H12S12819   2.048   3.382   9.693  0.2602 -0.4909  1.3515
  121OSM   H12T12820   1.877   3.368   9.738  2.0747  3.6312 -1.7781
  121OSM   C13S12821   1.956   3.225   9.594  0.0989 -0.1007 -0.4049
  121OSM   H13S12822   1.892   3.142   9.630  0.7255  0.3370  1.8820
  121OSM   H13T12823   2.056   3.183   9.571 -0.1852 -2.0525  1.6046
  121OSM   C14S12824   1.909   3.296   9.472  0.3764  0.1395  0.5016
  121OSM   H14S12825   1.985   3.371   9.442 -0.2227  0.4431 -0.2859
  121OSM   H14T12826   1.814   3.351   9.489 -1.7799 -1.9582 -3.3459
  121OSM   C15S12827   1.881   3.191   9.360 -0.2833 -0.0581 -0.1459
  121OSM   H15S12828   1.825   3.111   9.413 -1.4977  1.7158  1.3730
  121OSM   H15T12829   1.978   3.147   9.329  0.3410  1.7471 -0.9053
  121OSM   C16S12830   1.804   3.252   9.250  0.1658 -0.3866  0.3222
  121OSM   H16S12831   1.849   3.344   9.206 -0.0097 -0.6307 -0.3820
  121OSM   H16T12832   1.711   3.295   9.293  1.5955  1.9764  1.2899
  121OSM   C17S12833   1.784   3.156   9.127 -0.6042 -0.6165  0.4657
  121OSM   H17S12834   1.710   3.078   9.155 -1.7218 -0.9938 -3.0873
  121OSM   H17T12835   1.877   3.099   9.104 -0.5789  0.4425 -2.4671
  121OSM   C18S12836   1.739   3.227   8.996 -0.0820  0.1239 -0.7658
  121OSM   H18S12837   1.734   3.153   8.913 -0.6584 -0.2082 -0.4391
  121OSM   H18T12838   1.820   3.301   8.974 -0.9616  1.4438  0.2527
  121OSM   H18U12839   1.651   3.295   9.004  0.9469  1.2984  3.4175
  121OSM    C1F12840   2.729   3.177  10.589 -0.3382 -0.9013  0.1873
  121OSM     OF12841   2.758   3.062  10.568 -0.1465 -0.1838 -0.6852
  121OSM    C2F12842   2.831   3.285  10.559 -0.1175 -0.4763 -0.4066
  121OSM    H2F12843   2.854   3.330  10.658 -1.4265  1.0296 -0.7365
  121OSM    H2G12844   2.788   3.372  10.504  2.0076  0.4446 -0.6783
  121OSM    C3F12845   2.947   3.232  10.480  0.0556 -0.3545 -0.1012
  121OSM    H3F12846   2.909   3.171  10.396  0.3912 -0.4110 -0.2147
  121OSM    H3G12847   3.010   3.168  10.545  1.7466  1.6487  0.3744
  121OSM    C4F12848   3.027   3.354  10.427 -0.3428  0.0397 -0.0828
  121OSM    H4F12849   3.063   3.411  10.515 -1.2156  1.4195 -0.5869
  121OSM    H4G12850   2.956   3.416  10.368  1.0892  2.8267  0.9890
  121OSM    C5F12851   3.145   3.311  10.335  0.1731  0.1845  0.1945
  121OSM    H5F12852   3.091   3.250  10.259 -0.5342 -0.5202  1.2342
  121OSM    H5G12853   3.214   3.241  10.388 -0.7505 -1.4462 -0.6844
  121OSM    C6F12854   3.226   3.428  10.277 -0.3579 -0.0916 -0.1261
  121OSM    H6F12855   3.251   3.506  10.352 -2.2685 -0.0157  0.4998
  121OSM    H6G12856   3.154   3.468  10.202  0.4649 -1.0195 -1.4587
  121OSM    C7F12857   3.346   3.396  10.195  0.5824  0.5361  0.0131
  121OSM    H7F12858   3.327   3.314  10.123 -0.9951  0.2684  0.6866
  121OSM    H7G12859   3.422   3.358  10.266  1.7703 -1.3568 -2.1443
  121OSM    C8F12860   3.393   3.504  10.099 -0.8186  0.2002 -0.6158
  121OSM    H8F12861   3.384   3.604  10.148  0.0059  0.7579 -1.5612
  121OSM    H8G12862   3.321   3.509  10.014 -1.4510  1.1731 -0.0484
  121OSM    C9F12863   3.534   3.483  10.058  1.3891  0.1061 -0.5897
  121OSM    H9F12864   3.599   3.475  10.146  4.1604  0.8410 -2.4508
  121OSM   C10F12865   3.584   3.472   9.932 -0.2963 -0.0231 -0.0093
  121OSM   H10F12866   3.691   3.448   9.946 -0.4505  0.7398  3.1024
  121OSM   C11F12867   3.519   3.479   9.793 -0.2233  0.0892 -0.2383
  121OSM   H11F12868   3.419   3.529   9.795  0.2899  1.5555 -3.6977
  121OSM   H11G12869   3.503   3.373   9.761  1.6941 -0.0852 -0.7089
  121OSM   C12F12870   3.604   3.566   9.706  0.1095  0.2861  0.9998
  121OSM   H12F12871   3.708   3.527   9.699 -1.0502 -3.2824  1.4097
  121OSM   H12G12872   3.599   3.669   9.748 -1.8860  0.5843  0.1431
  121OSM   C13F12873   3.543   3.571   9.568 -0.3534  0.7370  0.6186
  121OSM   H13F12874   3.576   3.657   9.506 -0.7447  0.6132  0.2336
  121OSM   H13G12875   3.432   3.560   9.571 -0.5848  2.0423 -1.4080
  121OSM   C14F12876   3.607   3.456   9.487 -0.3880  0.2394  1.3805
  121OSM   H14F12877   3.590   3.352   9.522  2.9027 -1.7206 -2.0399
  121OSM   H14G12878   3.717   3.471   9.496 -0.2097  1.7629 -1.9478
  121OSM   C15F12879   3.591   3.463   9.332 -0.1557  0.3204 -0.2761
  121OSM   H15F12880   3.641   3.553   9.288 -0.0289  0.3558 -0.0634
  121OSM   H15G12881   3.486   3.472   9.298  0.0100 -0.7146 -1.0989
  121OSM   C16F12882   3.652   3.337   9.264 -0.1590 -0.3308  0.2202
  121OSM   H16F12883   3.633   3.247   9.325  1.0576  0.8076  2.4013
  121OSM   H16G12884   3.763   3.341   9.254 -0.2003  0.1051 -0.0847
  121OSM   C17F12885   3.602   3.328   9.122 -0.0187  0.3064 -0.3517
  121OSM   H17F12886   3.648   3.413   9.066  0.0957 -0.5732 -1.6332
  121OSM   H17G12887   3.492   3.339   9.114  0.1578  2.7789 -0.1812
  121OSM   C18F12888   3.637   3.196   9.058  0.3334  0.8976  0.1895
  121OSM   H18F12889   3.616   3.222   8.952  0.4954 -0.3066 -0.1557
  121OSM   H18G12890   3.565   3.117   9.090 -0.7686  1.4104 -0.9285
  121OSM   H18H12891   3.742   3.160   9.064  0.5238  1.1598 -1.1328
  122OSM      N12892   0.809   1.208  10.806 -0.0718  0.5527 -0.0791
  122OSM    C1512893   0.855   1.324  10.887  0.1071  0.0479 -0.3991
  122OSM   H15A12894   0.805   1.411  10.846  0.7908  0.3991 -0.4960
  122OSM   H15B12895   0.956   1.349  10.859  1.1857 -2.2503  1.2106
  122OSM   H15C12896   0.843   1.317  10.994  0.5047  1.4140 -0.2389
  122OSM    C1412897   0.906   1.091  10.818 -0.4354 -0.2823  0.0758
  122OSM   H14A12898   0.913   1.053  10.918  2.5130  0.2812  0.1911
  122OSM   H14B12899   1.007   1.112  10.786 -0.3551 -0.8550 -0.0590
  122OSM   H14C12900   0.876   1.017  10.746  0.6028 -1.8212  1.1585
  122OSM    C1312901   0.673   1.159  10.853 -0.1457 -0.8150  0.4302
  122OSM   H13A12902   0.674   1.161  10.961  0.2925  2.4216  0.4481
  122OSM   H13B12903   0.653   1.060  10.814  0.4883 -0.9475  0.4439
  122OSM   H13C12904   0.596   1.229  10.824 -1.4296 -2.5582 -0.5819
  122OSM    C1212905   0.797   1.247  10.665 -0.3033  0.5703 -0.1255
  122OSM   H12A12906   0.715   1.318  10.667 -0.2444  0.6375  0.8741
  122OSM   H12B12907   0.760   1.162  10.611 -2.0093  0.0116  1.7718
  122OSM    C1112908   0.915   1.308  10.582  0.1882  0.1282 -0.4142
  122OSM   H11A12909   0.876   1.324  10.479 -1.7445  0.3347  0.3077
  122OSM   H11B12910   0.997   1.234  10.574  0.3444  0.3613 -1.1030
  122OSM      P12911   0.911   1.576  10.599  0.4289  0.1995 -0.0396
  122OSM    O1312912   0.800   1.608  10.691  0.5936  0.1246  0.0512
  122OSM    O1412913   1.032   1.671  10.605  0.6948  0.4232 -0.2265
  122OSM    O1112914   0.848   1.572  10.455 -0.2797 -0.0797  0.3836
  122OSM    O1212915   0.963   1.432  10.646 -0.1096 -0.0832  0.5155
  122OSM    C1S12916   0.760   1.672  10.411  0.5750  0.0772 -0.3626
  122OSM    H1S12917   0.782   1.776  10.443  0.4983  0.2950 -0.9976
  122OSM    H1T12918   0.658   1.654  10.450  0.1798  1.2261 -0.8029
  122OSM     NF12919   0.704   1.802  10.204  0.0680 -0.0469  0.3484
  122OSM    HNF12920   0.614   1.800  10.160  0.8284  1.0739 -1.3416
  122OSM    C2S12921   0.755   1.680  10.257  0.5658  0.2292  0.2179
  122OSM    H2S12922   0.862   1.681  10.227  0.9167  0.1257  1.4336
  122OSM    C3S12923   0.668   1.567  10.197  0.3930  0.6249  0.4496
  122OSM    H3S12924   0.560   1.588  10.209  0.3068  0.0947  0.6279
  122OSM     O312925   0.692   1.442  10.260 -0.7008 -0.0741 -0.1432
  122OSM    HO312926   0.746   1.456  10.338 -1.0163  0.9344 -0.0955
  122OSM    C4S12927   0.688   1.551  10.046 -0.4108  0.2611  0.1085
  122OSM    H4S12928   0.620   1.620   9.995  0.4404  0.2542 -1.0951
  122OSM    C5S12929   0.762   1.460   9.975 -0.3484  0.6137  0.3184
  122OSM    H5S12930   0.807   1.380  10.036 -1.5625  0.5976  1.2407
  122OSM    C6S12931   0.766   1.444   9.825  0.1662 -0.0510  0.2869
  122OSM    H6S12932   0.749   1.338   9.799  0.7540 -0.1439  0.2637
  122OSM    H6T12933   0.870   1.469   9.793  0.2813  0.6608  1.1895
  122OSM    C7S12934   0.670   1.533   9.744  0.2929 -0.5135 -0.9657
  122OSM    H7S12935   0.694   1.641   9.740  0.4862 -0.4414  1.1807
  122OSM    H7T12936   0.573   1.533   9.797  2.3690  1.3948  3.3024
  122OSM    C8S12937   0.642   1.494   9.598 -0.0100  0.8750 -0.0485
  122OSM    H8S12938   0.609   1.389   9.588 -1.4792  1.3576 -0.4448
  122OSM    H8T12939   0.738   1.491   9.542 -0.2881 -0.3898 -0.4815
  122OSM    C9S12940   0.543   1.579   9.518  0.5765 -0.3398 -0.1531
  122OSM    H9S12941   0.589   1.680   9.515 -0.6251  0.2065 -1.0093
  122OSM    H9T12942   0.451   1.595   9.578  1.5858 -0.8737  1.6495
  122OSM   C10S12943   0.518   1.524   9.379 -0.2155 -0.1871 -0.0901
  122OSM   H10S12944   0.488   1.417   9.375  1.5020 -0.6741 -0.4172
  122OSM   H10T12945   0.611   1.535   9.320 -0.2857  0.0921 -0.1501
  122OSM   C11S12946   0.402   1.598   9.302  0.9188 -0.1716  0.7425
  122OSM   H11S12947   0.421   1.706   9.315  1.1864 -0.2334  0.8682
  122OSM   H11T12948   0.303   1.589   9.350  0.8256 -0.6892  0.4614
  122OSM   C12S12949   0.390   1.563   9.157 -0.0693 -0.3109 -0.2417
  122OSM   H12S12950   0.354   1.460   9.138  2.1465 -1.0428 -0.8056
  122OSM   H12T12951   0.495   1.567   9.119  1.2232  2.6795  3.1121
  122OSM   C13S12952   0.301   1.658   9.075 -0.8970  0.0651 -0.2557
  122OSM   H13S12953   0.339   1.762   9.084  0.8519 -0.4096 -1.6527
  122OSM   H13T12954   0.203   1.649   9.127 -0.0653 -5.8552  0.9541
  122OSM   C14S12955   0.302   1.629   8.920  0.1513  0.3841  0.9200
  122OSM   H14S12956   0.405   1.628   8.879 -0.7824 -0.4302 -1.5970
  122OSM   H14T12957   0.242   1.713   8.878 -0.4172 -0.3123  0.3215
  122OSM   C15S12958   0.239   1.498   8.874  0.1648 -0.0072 -0.5125
  122OSM   H15S12959   0.137   1.506   8.917  0.4289  2.2244 -0.1563
  122OSM   H15T12960   0.288   1.408   8.915 -2.8978 -2.1208 -1.1283
  122OSM   C16S12961   0.220   1.487   8.724  0.3166  0.7394  0.1412
  122OSM   H16S12962   0.175   1.389   8.697  0.9000 -0.1440  2.1826
  122OSM   H16T12963   0.320   1.498   8.677 -0.4244 -1.4188 -2.1816
  122OSM   C17S12964   0.126   1.590   8.659 -0.0237  0.1927  0.7110
  122OSM   H17S12965   0.151   1.692   8.693 -0.6605 -0.2530  2.6457
  122OSM   H17T12966   0.027   1.573   8.707 -0.3351  0.7652  0.2791
  122OSM   C18S12967   0.118   1.577   8.511 -0.4305  0.0039  0.0069
  122OSM   H18S12968   0.217   1.599   8.466  0.9072 -0.1037  2.6525
  122OSM   H18T12969   0.041   1.647   8.475  3.2809  3.9158 -1.1055
  122OSM   H18U12970   0.097   1.476   8.470 -0.7515  0.3569 -0.7096
  122OSM    C1F12971   0.766   1.920  10.226 -0.0642 -0.2690  0.2100
  122OSM     OF12972   0.872   1.933  10.286 -0.5323  0.5579  0.3507
  122OSM    C2F12973   0.691   2.031  10.162  0.0421 -0.5651  0.2571
  122OSM    H2F12974   0.715   2.118  10.227 -2.0304  0.2391  0.0266
  122OSM    H2G12975   0.583   2.014  10.181 -0.0672 -1.4316 -1.0324
  122OSM    C3F12976   0.731   2.059  10.017 -0.1130 -0.5595 -0.1089
  122OSM    H3F12977   0.838   2.039   9.995  0.4532  1.4727  0.5629
  122OSM    H3G12978   0.719   2.167   9.994  2.2132  0.3906  2.5183
  122OSM    C4F12979   0.648   1.978   9.915  0.2634  0.5494 -0.8638
  122OSM    H4F12980   0.544   2.017   9.924  0.7969  2.2856 -1.6914
  122OSM    H4G12981   0.654   1.868   9.930  0.4463  0.3173 -2.4543
  122OSM    C5F12982   0.709   2.000   9.775 -0.0628 -0.4247 -0.2524
  122OSM    H5F12983   0.807   1.948   9.781  0.1985  0.1126  0.3726
  122OSM    H5G12984   0.738   2.108   9.778  5.9415 -1.6500  3.5178
  122OSM    C6F12985   0.630   1.943   9.668  1.0402  0.4728 -0.2343
  122OSM    H6F12986   0.599   1.840   9.696 -0.7931  1.4267  1.4712
  122OSM    H6G12987   0.700   1.939   9.581  0.0104 -0.5744 -1.0566
  122OSM    C7F12988   0.512   2.031   9.629 -0.8664 -0.4460  0.1460
  122OSM    H7F12989   0.545   2.137   9.628 -0.8719 -0.4463 -0.0388
  122OSM    H7G12990   0.432   2.022   9.706  0.3603  0.3436  1.5798
  122OSM    C8F12991   0.442   2.005   9.488  0.0494  0.5741 -0.0636
  122OSM    H8F12992   0.392   1.907   9.500  2.1836 -0.4879  0.6647
  122OSM    H8G12993   0.524   1.982   9.416 -1.2650 -0.4656 -1.2614
  122OSM    C9F12994   0.343   2.105   9.443  0.2657 -0.1332  0.5548
  122OSM    H9F12995   0.324   2.186   9.515 -0.0853  1.2968 -1.0851
  122OSM   C10F12996   0.281   2.112   9.326 -0.0721 -0.8555 -0.7636
  122OSM   H10F12997   0.219   2.202   9.309  0.8025 -0.0463  0.1329
  122OSM   C11F12998   0.318   2.026   9.205  0.4343 -0.0995  0.0317
  122OSM   H11F12999   0.235   1.955   9.187 -0.0344  0.1860  0.9983
  122OSM   H11G13000   0.411   1.967   9.221 -0.2281 -0.9282  0.9698
  122OSM   C12F13001   0.307   2.108   9.076  0.3127 -0.1073  0.4326
  122OSM   H12F13002   0.376   2.195   9.079 -0.9839  1.0294 -1.1194
  122OSM   H12G13003   0.203   2.139   9.054 -0.1182 -1.7016  0.0958
  122OSM   C13F13004   0.351   2.041   8.950 -0.5815  0.3511 -0.1112
  122OSM   H13F13005   0.271   1.969   8.923  0.7086 -1.1027 -0.2345
  122OSM   H13G13006   0.448   1.987   8.960 -1.3963 -0.9722  1.1431
  122OSM   C14F13007   0.371   2.135   8.832 -0.2134  0.1418 -0.0893
  122OSM   H14F13008   0.458   2.204   8.836 -0.1065 -0.0262  0.6373
  122OSM   H14G13009   0.285   2.205   8.824 -1.9093 -1.5583  2.1255
  122OSM   C15F13010   0.369   2.061   8.688  0.5275  0.9900  0.7693
  122OSM   H15F13011   0.302   1.973   8.684  0.5089  1.0045 -3.2503
  122OSM   H15G13012   0.474   2.025   8.676  0.1674  0.5036 -1.2135
  122OSM   C16F13013   0.318   2.156   8.582 -0.4670 -0.3665  0.2440
  122OSM   H16F13014   0.369   2.255   8.585 -1.5352  0.1734  2.1497
  122OSM   H16G13015   0.211   2.176   8.602 -0.8742 -1.7679 -0.3898
  122OSM   C17F13016   0.319   2.087   8.444  0.0965 -0.0174 -0.6121
  122OSM   H17F13017   0.267   1.989   8.441  0.7200 -0.3428 -1.1770
  122OSM   H17G13018   0.426   2.061   8.425  0.0052 -0.1335 -0.9654
  122OSM   C18F13019   0.255   2.160   8.324 -0.0732 -0.1427  0.0282
  122OSM   H18F13020   0.273   2.098   8.233  1.5928 -0.3254  0.4532
  122OSM   H18G13021   0.309   2.257   8.319  0.7907 -0.2472  3.9725
  122OSM   H18H13022   0.147   2.173   8.344  0.1016  1.8386 -0.1554
  123OSM      N13023   4.876   5.479   5.833 -0.4318 -0.5908  0.5474
  123OSM    C1513024   5.013   5.532   5.811 -0.3193  0.2321  0.4071
  123OSM   H15A13025   5.084   5.457   5.841 -1.9604 -1.1013  1.0850
  123OSM   H15B13026   5.038   5.624   5.862  2.4317  0.3879 -1.0788
  123OSM   H15C13027   5.026   5.554   5.706 -1.1238  2.0316  0.6298
  123OSM    C1413028   4.775   5.581   5.801  0.2253 -0.4100 -0.0245
  123OSM   H14A13029   4.763   5.602   5.695  0.8401  0.2955  0.0375
  123OSM   H14B13030   4.800   5.676   5.846  0.0921  0.4795 -1.7238
  123OSM   H14C13031   4.683   5.549   5.847  1.2003 -0.1385  2.2052
  123OSM    C1313032   4.854   5.360   5.746 -0.2105 -0.1729  0.8165
  123OSM   H13A13033   4.757   5.323   5.776 -1.1861  2.5420  1.3361
  123OSM   H13B13034   4.934   5.290   5.765 -0.2554  0.2564  2.7897
  123OSM   H13C13035   4.848   5.396   5.644 -2.6280  1.4339  1.4254
  123OSM    C1213036   4.867   5.432   5.979  0.9595  0.5928  0.4348
  123OSM   H12A13037   4.925   5.345   6.008 -0.2912  0.5056  3.0147
  123OSM   H12B13038   4.766   5.396   5.988  1.1812 -0.3341 -0.6607
  123OSM    C1113039   4.886   5.540   6.090  0.5248  0.4296  0.1530
  123OSM   H11A13040   4.981   5.596   6.077  0.8353  0.0469  0.7057
  123OSM   H11B13041   4.890   5.489   6.189 -1.2824  0.8081  0.4543
  123OSM      P13042   4.636   5.609   6.138 -0.1033 -0.0211  0.2733
  123OSM    O1313043   4.558   5.732   6.133 -0.1050  0.6334 -0.7605
  123OSM    O1413044   4.582   5.499   6.051  0.1056  0.3455 -0.3291
  123OSM    O1113045   4.650   5.552   6.280  0.1600 -0.4073 -0.3156
  123OSM    O1213046   4.785   5.639   6.087  0.5835  0.4682 -0.1690
  123OSM    C1S13047   4.723   5.628   6.374  0.0430 -0.5236  0.0633
  123OSM    H1S13048   4.686   5.733   6.381 -0.9337 -0.7431 -1.4692
  123OSM    H1T13049   4.831   5.639   6.350 -0.6049  0.0798 -3.0498
  123OSM     NF13050   4.755   5.658   6.623 -0.9745 -0.0681  0.4145
  123OSM    HNF13051   4.851   5.662   6.648 -1.3960  1.5767  2.0643
  123OSM    C2S13052   4.714   5.566   6.518  0.4858  0.0264  0.0020
  123OSM    H2S13053   4.606   5.544   6.530  0.0349  2.1685  0.1650
  123OSM    C3S13054   4.787   5.434   6.520  0.8692 -0.1193 -0.1131
  123OSM    H3S13055   4.896   5.458   6.516  0.6920  0.7884  0.3819
  123OSM     O313056   4.767   5.347   6.413  0.2371 -0.0249 -0.3949
  123OSM    HO313057   4.695   5.390   6.367  0.0128 -1.8472 -1.8469
  123OSM    C4S13058   4.756   5.358   6.652  0.1765  0.0419  0.0159
  123OSM    H4S13059   4.647   5.343   6.665  0.0744  0.5779 -0.1628
  123OSM    C5S13060   4.839   5.317   6.744 -0.1681  0.2741 -0.0559
  123OSM    H5S13061   4.939   5.362   6.733 -0.7128  0.8077 -4.6097
  123OSM    C6S13062   4.795   5.268   6.878 -0.3670 -0.1707  0.7205
  123OSM    H6S13063   4.827   5.162   6.890 -1.8137 -0.5346  1.7448
  123OSM    H6T13064   4.684   5.267   6.874 -0.3615 -0.4305 -3.0880
  123OSM    C7S13065   4.871   5.345   6.987 -0.0013 -0.1859 -0.2753
  123OSM    H7S13066   4.978   5.349   6.959  0.0640 -2.1942 -0.4291
  123OSM    H7T13067   4.875   5.300   7.089 -1.7526  1.4790  0.5883
  123OSM    C8S13068   4.807   5.484   6.994 -0.5427 -0.1997 -0.4934
  123OSM    H8S13069   4.709   5.465   7.042 -0.6310 -1.2530 -1.0759
  123OSM    H8T13070   4.795   5.538   6.898 -0.3754  1.7267  0.5073
  123OSM    C9S13071   4.897   5.578   7.085  0.0428 -0.5579  0.4812
  123OSM    H9S13072   4.872   5.686   7.080 -0.5023 -0.5701  2.1417
  123OSM    H9T13073   5.004   5.571   7.054  0.0767  1.1118  0.1116
  123OSM   C10S13074   4.887   5.542   7.232 -0.3037 -0.6910  0.3333
  123OSM   H10S13075   4.913   5.439   7.264  1.7421  0.2042  1.7986
  123OSM   H10T13076   4.787   5.555   7.279  0.2250  1.7223  0.9209
  123OSM   C11S13077   4.989   5.626   7.311  0.2063  0.8753  0.5871
  123OSM   H11S13078   4.952   5.730   7.304  1.9530  1.4793 -0.1133
  123OSM   H11T13079   5.084   5.602   7.259 -1.8692 -3.1279 -1.8017
  123OSM   C12S13080   4.997   5.591   7.462  0.4019  0.0817 -0.5888
  123OSM   H12S13081   5.035   5.487   7.472 -0.4081 -0.1507  0.1838
  123OSM   H12T13082   4.901   5.603   7.517  0.6637  1.5114 -0.4166
  123OSM   C13S13083   5.086   5.696   7.527 -0.2006  0.2780  0.6965
  123OSM   H13S13084   5.054   5.799   7.502 -1.9284 -0.0439  1.4171
  123OSM   H13T13085   5.186   5.697   7.479  1.5678 -0.7360  4.0113
  123OSM   C14S13086   5.108   5.676   7.679 -0.4178  0.2378 -0.1932
  123OSM   H14S13087   5.158   5.580   7.702 -2.6421 -0.3776  2.5481
  123OSM   H14T13088   5.012   5.680   7.735  0.2246 -0.6575  1.0070
  123OSM   C15S13089   5.201   5.774   7.734 -0.0486 -0.6712 -0.2101
  123OSM   H15S13090   5.144   5.869   7.727 -2.8437 -2.2628 -0.5799
  123OSM   H15T13091   5.295   5.766   7.676 -0.1295 -1.3129 -0.2565
  123OSM   C16S13092   5.228   5.760   7.882 -0.5244 -0.1016  0.0640
  123OSM   H16S13093   5.325   5.808   7.904 -0.2871 -1.2437  1.6381
  123OSM   H16T13094   5.242   5.651   7.899 -0.2026 -0.1583 -0.5068
  123OSM   C17S13095   5.131   5.821   7.985 -0.5907  0.5587  0.6376
  123OSM   H17S13096   5.108   5.930   7.977 -0.8843  0.3472 -3.0857
  123OSM   H17T13097   5.176   5.807   8.085 -1.5316 -0.4114  0.9383
  123OSM   C18S13098   4.986   5.759   7.990  0.3259 -0.5115 -0.1878
  123OSM   H18S13099   4.924   5.779   7.901  0.7489 -0.9844 -0.5949
  123OSM   H18T13100   4.937   5.788   8.086  2.2489  1.7875  0.1879
  123OSM   H18U13101   4.982   5.648   7.996 -1.1430 -0.4248  2.0587
  123OSM    C1F13102   4.677   5.754   6.668 -0.1316  0.6425 -0.0944
  123OSM     OF13103   4.574   5.772   6.615  0.2875 -0.2336  0.3188
  123OSM    C2F13104   4.724   5.841   6.775 -0.7424 -0.6523 -0.8158
  123OSM    H2F13105   4.809   5.907   6.746 -0.3354 -0.9867 -0.3853
  123OSM    H2G13106   4.775   5.774   6.847 -0.2635  0.8073  0.2676
  123OSM    C3F13107   4.619   5.919   6.865 -0.0253  0.1927 -1.1465
  123OSM    H3F13108   4.564   5.831   6.903 -1.9429  1.9329  0.3695
  123OSM    H3G13109   4.560   5.986   6.798  0.5571  1.9145 -0.0106
  123OSM    C4F13110   4.675   6.008   6.982  0.0369  0.9932  0.1887
  123OSM    H4F13111   4.622   6.106   6.972 -0.9594  0.3589 -1.1803
  123OSM    H4G13112   4.781   6.030   6.958  0.1347 -0.0613 -0.4032
  123OSM    C5F13113   4.655   5.943   7.119  0.7140  0.3777 -0.8149
  123OSM    H5F13114   4.676   5.839   7.088 -0.7016  0.5173 -2.4321
  123OSM    H5G13115   4.549   5.947   7.153  1.1992  0.2273  0.8021
  123OSM    C6F13116   4.741   5.986   7.239 -0.1156  0.3364 -0.4402
  123OSM    H6F13117   4.766   6.094   7.250  1.6951 -0.2416  2.0225
  123OSM    H6G13118   4.838   5.938   7.211 -1.4299 -3.3725  0.7477
  123OSM    C7F13119   4.699   5.921   7.378 -0.1993 -0.1678  0.4346
  123OSM    H7F13120   4.708   5.810   7.367 -0.4337 -0.1875  0.4282
  123OSM    H7G13121   4.595   5.947   7.407  0.0953  3.0495 -1.0308
  123OSM    C8F13122   4.800   5.955   7.496  0.7154  0.3515 -0.2566
  123OSM    H8F13123   4.791   6.063   7.520 -2.4048  0.1681 -0.1601
  123OSM    H8G13124   4.902   5.933   7.456  0.6554  0.0759 -0.2657
  123OSM    C9F13125   4.781   5.882   7.630 -0.2731  0.8678  0.4164
  123OSM    H9F13126   4.827   5.783   7.646 -1.9553  0.1131  0.7631
  123OSM   C10F13127   4.716   5.930   7.736  0.0617  0.4347  1.0809
  123OSM   H10F13128   4.729   5.870   7.827  1.5589 -1.1645 -0.1214
  123OSM   C11F13129   4.649   6.067   7.743 -0.2507 -0.0479 -0.6965
  123OSM   H11F13130   4.604   6.104   7.648 -1.9435 -0.9140 -0.2713
  123OSM   H11G13131   4.729   6.136   7.777  0.2364 -1.9726  2.4207
  123OSM   C12F13132   4.541   6.053   7.849 -0.1916  0.8986 -0.5849
  123OSM   H12F13133   4.484   5.958   7.850  1.1965  0.0139  0.8744
  123OSM   H12G13134   4.470   6.135   7.825  0.1992  1.1402 -0.9361
  123OSM   C13F13135   4.586   6.083   7.996  0.3030 -0.3253 -0.0184
  123OSM   H13F13136   4.673   6.018   8.024 -0.0306 -0.1361  1.5784
  123OSM   H13G13137   4.502   6.039   8.054 -0.4569 -0.0984 -0.9292
  123OSM   C14F13138   4.617   6.227   8.020  0.3546  0.4910 -0.1082
  123OSM   H14F13139   4.528   6.289   8.044  2.2581  2.9506  1.0000
  123OSM   H14G13140   4.657   6.273   7.927  1.1414 -1.4752 -0.8104
  123OSM   C15F13141   4.720   6.250   8.133  0.0984  0.0265  0.3858
  123OSM   H15F13142   4.689   6.184   8.216 -0.6650 -2.0034 -1.4187
  123OSM   H15G13143   4.721   6.358   8.160 -0.6782  0.4295 -1.0872
  123OSM   C16F13144   4.867   6.206   8.099  0.8100  0.3131  0.1616
  123OSM   H16F13145   4.904   6.252   8.005 -0.2035 -0.5725 -0.6959
  123OSM   H16G13146   4.855   6.095   8.096 -1.7949  0.5279  0.2974
  123OSM   C17F13147   4.969   6.241   8.207  0.1521  0.4312 -0.7625
  123OSM   H17F13148   4.982   6.351   8.219 -2.3637  0.6530  0.6336
  123OSM   H17G13149   5.063   6.193   8.173  0.0597  0.1060 -0.5650
  123OSM   C18F13150   4.940   6.181   8.343 -0.4901  0.6448 -0.6850
  123OSM   H18F13151   4.884   6.087   8.328  0.6570 -0.2358  0.3204
  123OSM   H18G13152   4.877   6.253   8.400 -1.8848 -3.0700  2.9921
  123OSM   H18H13153   5.028   6.170   8.411  0.9844  1.8924 -2.2898
  124OSM      N13154   6.420   3.122   6.116  1.2893  0.2413  0.4449
  124OSM    C1513155   6.277   3.137   6.080  0.1445 -0.0123  0.5169
  124OSM   H15A13156   6.221   3.194   6.153 -0.3791 -1.3575  1.1958
  124OSM   H15B13157   6.230   3.042   6.060  1.1986 -0.2121 -1.2474
  124OSM   H15C13158   6.268   3.196   5.990 -0.9194 -1.6580 -0.5115
  124OSM    C1413159   6.471   3.255   6.138 -0.8909  0.4745  0.1511
  124OSM   H14A13160   6.578   3.246   6.148 -1.0167 -2.5551 -0.4007
  124OSM   H14B13161   6.414   3.303   6.217 -1.8212 -1.3309  0.6235
  124OSM   H14C13162   6.445   3.310   6.049 -1.7375 -0.5454 -0.2428
  124OSM    C1313163   6.436   3.036   6.241  0.2294  0.0414 -0.4106
  124OSM   H13A13164   6.536   3.049   6.280 -0.3481  1.3900  0.7210
  124OSM   H13B13165   6.418   2.931   6.227  2.1651 -0.3242 -0.3982
  124OSM   H13C13166   6.372   3.077   6.318 -1.6794 -1.1952 -1.2620
  124OSM    C1213167   6.495   3.049   6.000 -0.4435 -0.5119 -0.7548
  124OSM   H12A13168   6.465   3.087   5.903 -0.7567 -0.3452 -0.5971
  124OSM   H12B13169   6.468   2.945   6.005 -0.6577 -0.4815 -1.1690
  124OSM    C1113170   6.650   3.039   6.016  0.0129 -0.1297  0.0364
  124OSM   H11A13171   6.683   3.145   6.017 -1.6396  0.4418 -1.6300
  124OSM   H11B13172   6.668   2.983   5.922 -1.4853 -0.0017 -0.3566
  124OSM      P13173   6.836   2.985   6.187  0.0833  0.1296  0.5836
  124OSM    O1313174   6.859   2.899   6.305 -0.0704  0.0908 -0.4930
  124OSM    O1413175   6.923   2.968   6.069 -0.1758  0.1771 -0.4265
  124OSM    O1113176   6.848   3.131   6.224  0.3817  0.2433 -0.2581
  124OSM    O1213177   6.689   2.963   6.138  0.6423  0.0819  0.7242
  124OSM    C1S13178   6.786   3.192   6.334  0.0495 -0.0387  0.8908
  124OSM    H1S13179   6.689   3.141   6.354 -2.0892  2.9571 -0.9150
  124OSM    H1T13180   6.759   3.299   6.315 -0.6896 -0.3243  0.2325
  124OSM     NF13181   6.776   3.249   6.572  0.0794 -0.2946  0.1836
  124OSM    HNF13182   6.771   3.345   6.599  1.5132 -0.1725  0.0826
  124OSM    C2S13183   6.866   3.198   6.467  0.5624 -0.1744  0.6881
  124OSM    H2S13184   6.906   3.100   6.500 -0.8565  0.0395  3.3556
  124OSM    C3S13185   6.985   3.293   6.436  0.2790  0.2027 -0.0742
  124OSM    H3S13186   6.940   3.387   6.397 -0.4960  0.0519  0.4513
  124OSM     O313187   7.070   3.236   6.338 -0.2997 -0.4669  0.4133
  124OSM    HO313188   7.016   3.183   6.279  1.8843  1.2763 -3.5051
  124OSM    C4S13189   7.069   3.304   6.564  0.7408 -0.3105  0.5505
  124OSM    H4S13190   7.051   3.405   6.604  0.5851 -0.2295  0.2782
  124OSM    C5S13191   7.160   3.221   6.615  0.0755  0.1820  0.0565
  124OSM    H5S13192   7.169   3.121   6.570 -0.4900 -0.0760  0.4979
  124OSM    C6S13193   7.242   3.241   6.743 -0.4586 -0.7315 -0.0238
  124OSM    H6S13194   7.274   3.347   6.739 -3.2843  0.1780 -0.4272
  124OSM    H6T13195   7.331   3.173   6.742 -1.5714 -2.3089  1.8952
  124OSM    C7S13196   7.156   3.218   6.868 -0.3027  0.1010  0.4744
  124OSM    H7S13197   7.094   3.127   6.853 -0.1121  0.0497  0.0005
  124OSM    H7T13198   7.099   3.313   6.866  2.2767  1.7498 -0.9293
  124OSM    C8S13199   7.247   3.196   6.988  0.4390 -0.2815 -0.8042
  124OSM    H8S13200   7.313   3.285   6.993 -1.6373  1.3950 -1.4901
  124OSM    H8T13201   7.314   3.109   6.970  0.9966 -0.0604  0.1197
  124OSM    C9S13202   7.168   3.172   7.121 -0.2912 -0.2092  0.0105
  124OSM    H9S13203   7.122   3.072   7.114  0.0310 -0.3937  0.5007
  124OSM    H9T13204   7.087   3.248   7.123  0.2163  0.3289  1.9855
  124OSM   C10S13205   7.247   3.182   7.253 -0.7924 -0.5913  0.1293
  124OSM   H10S13206   7.301   3.278   7.267  3.7087 -2.5401 -1.7745
  124OSM   H10T13207   7.326   3.107   7.229 -0.0779  0.1616  0.0941
  124OSM   C11S13208   7.168   3.154   7.376 -0.3445 -0.0317  0.2810
  124OSM   H11S13209   7.110   3.062   7.353 -0.3139 -0.4511  1.7826
  124OSM   H11T13210   7.095   3.234   7.400 -1.6224 -0.6649 -1.2909
  124OSM   C12S13211   7.272   3.137   7.490  0.3183 -0.0428  0.2707
  124OSM   H12S13212   7.301   3.242   7.513 -1.4613  0.1759  1.7641
  124OSM   H12T13213   7.364   3.085   7.456 -1.1705 -1.6590 -1.5336
  124OSM   C13S13214   7.205   3.065   7.607 -0.8884 -0.1078 -0.0351
  124OSM   H13S13215   7.205   2.958   7.578 -0.9792 -0.4807  1.2794
  124OSM   H13T13216   7.096   3.085   7.614 -0.7840 -0.0103  1.7185
  124OSM   C14S13217   7.262   3.080   7.748  0.1961 -0.1351 -0.9633
  124OSM   H14S13218   7.305   3.181   7.764 -2.2406  1.0298 -1.3945
  124OSM   H14T13219   7.352   3.015   7.760 -0.2694 -0.5119  0.9154
  124OSM   C15S13220   7.161   3.056   7.861  0.4569 -0.3661  0.7353
  124OSM   H15S13221   7.134   2.948   7.862  0.2608 -0.3236  1.9185
  124OSM   H15T13222   7.072   3.110   7.825  1.6949 -0.0651 -2.1158
  124OSM   C16S13223   7.208   3.102   8.001 -0.2158  0.0754 -0.0066
  124OSM   H16S13224   7.228   3.208   7.976 -0.5572  0.1034 -0.1674
  124OSM   H16T13225   7.295   3.047   8.042 -0.4267 -0.6197 -0.4605
  124OSM   C17S13226   7.089   3.096   8.103 -0.1113  0.3271  0.9348
  124OSM   H17S13227   7.074   2.987   8.117 -0.1178  0.2572  0.4051
  124OSM   H17T13228   6.996   3.140   8.061 -0.0087  0.0462  0.4097
  124OSM   C18S13229   7.125   3.159   8.230 -0.0345  0.5231 -0.6697
  124OSM   H18S13230   7.147   3.268   8.225  2.5366  0.1566  0.9300
  124OSM   H18T13231   7.220   3.119   8.272 -0.4762  1.8497  1.7601
  124OSM   H18U13232   7.041   3.158   8.302 -0.4220  0.3068 -1.1185
  124OSM    C1F13233   6.695   3.167   6.635 -0.6255 -0.3132 -0.6717
  124OSM     OF13234   6.707   3.049   6.614  0.4572 -0.3205  0.1048
  124OSM    C2F13235   6.602   3.230   6.734  1.0207 -0.3390 -0.7098
  124OSM    H2F13236   6.501   3.215   6.691  0.5339 -2.6107  0.9811
  124OSM    H2G13237   6.619   3.339   6.750  1.0574 -0.4438  0.0202
  124OSM    C3F13238   6.611   3.171   6.874 -0.0968  0.5070  0.0959
  124OSM    H3F13239   6.588   3.064   6.851 -0.4361  0.9646 -1.8937
  124OSM    H3G13240   6.533   3.220   6.936 -0.2201  0.9535 -0.4058
  124OSM    C4F13241   6.748   3.188   6.942 -0.3300 -0.4857  0.0807
  124OSM    H4F13242   6.782   3.287   6.906  2.4772  0.1115  3.7723
  124OSM    H4G13243   6.827   3.118   6.907  1.6668  2.0680 -0.7976
  124OSM    C5F13244   6.749   3.196   7.100 -0.0026 -0.9863 -0.3384
  124OSM    H5F13245   6.712   3.297   7.129  2.2400  0.0470 -0.8718
  124OSM    H5G13246   6.853   3.187   7.139 -0.2888  0.3467  0.8050
  124OSM    C6F13247   6.657   3.093   7.168  0.0849 -0.7245 -0.0071
  124OSM    H6F13248   6.613   3.031   7.088 -1.9781 -0.0745  0.5809
  124OSM    H6G13249   6.565   3.143   7.204 -0.8745 -1.4793 -1.3267
  124OSM    C7F13250   6.728   3.006   7.271  0.1060 -0.2626 -0.2643
  124OSM    H7F13251   6.821   2.952   7.244  0.4669  1.2307 -2.1928
  124OSM    H7G13252   6.654   2.933   7.311  1.2668 -0.3649  1.8840
  124OSM    C8F13253   6.752   3.082   7.410  0.5230 -0.2245  0.3279
  124OSM    H8F13254   6.830   3.150   7.370  0.1003  0.2329  0.2636
  124OSM    H8G13255   6.786   3.003   7.480 -1.7302 -0.6034  1.0901
  124OSM    C9F13256   6.635   3.151   7.472  0.2488 -0.5295 -0.1235
  124OSM    H9F13257   6.582   3.224   7.409  2.7546  0.8714 -0.7621
  124OSM   C10F13258   6.585   3.127   7.590  0.2851 -0.6830 -0.2061
  124OSM   H10F13259   6.496   3.186   7.617  0.8385 -0.3044  0.8365
  124OSM   C11F13260   6.633   3.051   7.709 -0.1098  0.3163 -0.0594
  124OSM   H11F13261   6.743   3.035   7.701 -0.1033  0.6501 -0.7788
  124OSM   H11G13262   6.581   2.953   7.707 -1.4481  1.0021 -1.3651
  124OSM   C12F13263   6.605   3.124   7.839  0.4520  0.0109  0.1772
  124OSM   H12F13264   6.501   3.164   7.834  0.1341 -0.9356 -1.0097
  124OSM   H12G13265   6.663   3.219   7.846  1.6817 -0.1043 -4.8242
  124OSM   C13F13266   6.622   3.046   7.967 -0.4859 -0.2338  0.4570
  124OSM   H13F13267   6.717   2.988   7.963  0.3539  1.1612 -2.9083
  124OSM   H13G13268   6.533   2.978   7.967  0.4378 -1.5436 -1.2861
  124OSM   C14F13269   6.606   3.142   8.083  0.7500 -0.1749  0.2791
  124OSM   H14F13270   6.502   3.182   8.079 -0.0094 -2.1340 -0.4700
  124OSM   H14G13271   6.678   3.224   8.063  0.2216  0.1208 -0.4723
  124OSM   C15F13272   6.625   3.087   8.223  0.0024  0.2129 -0.2472
  124OSM   H15F13273   6.562   2.996   8.224 -0.5124  0.5630  0.3302
  124OSM   H15G13274   6.581   3.151   8.303 -0.3418 -2.3812  1.7620
  124OSM   C16F13275   6.771   3.037   8.253  0.0981 -0.3086 -0.1583
  124OSM   H16F13276   6.819   3.137   8.242 -2.8453  1.1375 -0.9417
  124OSM   H16G13277   6.810   2.967   8.176  2.0304 -1.8403  2.0849
  124OSM   C17F13278   6.790   2.971   8.390 -0.3629 -0.6949 -0.8977
  124OSM   H17F13279   6.702   2.904   8.396 -1.4511  0.7802  0.2817
  124OSM   H17G13280   6.778   3.050   8.467 -0.4930  0.8035 -2.3925
  124OSM   C18F13281   6.929   2.911   8.401 -0.7868  0.2933 -0.4422
  124OSM   H18F13282   6.943   2.845   8.489  2.8274  2.4317  0.8453
  124OSM   H18G13283   7.006   2.989   8.422  2.1007 -2.0986 -1.4721
  124OSM   H18H13284   6.973   2.852   8.318 -0.5755 -2.0504  1.2478
  125OSM      N13285   5.561   3.074   6.011  0.0960  0.2924 -0.1626
  125OSM    C1513286   5.434   3.080   5.928  0.2058  0.0654 -0.7256
  125OSM   H15A13287   5.365   3.153   5.965  1.1340  0.1590  0.9448
  125OSM   H15B13288   5.398   2.979   5.911  1.3309 -0.3692 -0.6697
  125OSM   H15C13289   5.462   3.124   5.833 -0.0582  2.9403  0.4569
  125OSM    C1413290   5.648   2.963   5.958 -0.2246  0.4372  0.0242
  125OSM   H14A13291   5.750   2.960   5.994  0.2259 -0.5380 -1.2618
  125OSM   H14B13292   5.651   2.985   5.853  2.9691 -0.9810 -0.3118
  125OSM   H14C13293   5.598   2.868   5.971 -0.0316  0.4296  0.7740
  125OSM    C1313294   5.630   3.210   6.009  0.1730  1.0589  0.0763
  125OSM   H13A13295   5.581   3.285   6.068 -2.5258  1.0041 -1.8864
  125OSM   H13B13296   5.637   3.255   5.911 -2.1145  0.7181 -0.2905
  125OSM   H13C13297   5.730   3.207   6.050 -0.5373 -1.0468  1.8469
  125OSM    C1213298   5.522   3.040   6.151  0.1002 -0.4123 -0.8363
  125OSM   H12A13299   5.462   2.950   6.155 -0.4481 -0.0006  0.9043
  125OSM   H12B13300   5.458   3.117   6.190 -0.0912 -0.2133 -1.5226
  125OSM    C1113301   5.627   3.026   6.259  0.8804 -0.1684 -0.0298
  125OSM   H11A13302   5.709   2.956   6.234  0.2829 -0.3836 -1.5041
  125OSM   H11B13303   5.586   2.985   6.354  2.1871  0.1337  0.6850
  125OSM      P13304   5.812   3.158   6.378 -0.0901  0.4591  0.3035
  125OSM    O1313305   5.914   3.073   6.310  0.3146  0.5473 -1.2521
  125OSM    O1413306   5.847   3.298   6.405 -0.3165 -0.4094 -0.1995
  125OSM    O1113307   5.780   3.092   6.512 -0.0704 -0.2405  0.4625
  125OSM    O1213308   5.682   3.152   6.288  0.1671 -0.0172 -0.1527
  125OSM    C1S13309   5.875   3.047   6.602 -0.7742 -0.6255  0.0079
  125OSM    H1S13310   5.968   3.107   6.594 -0.9112 -0.3860  0.1903
  125OSM    H1T13311   5.902   2.941   6.582 -1.4884 -0.5558 -1.4718
  125OSM     NF13312   5.956   3.007   6.833 -0.0481  0.0694  1.0384
  125OSM    HNF13313   5.936   2.919   6.876 -1.1396 -0.7264 -0.9840
  125OSM    C2S13314   5.842   3.059   6.755 -0.9413 -0.4934  0.4825
  125OSM    H2S13315   5.830   3.168   6.773 -0.4312 -0.4157  0.3588
  125OSM    C3S13316   5.712   2.990   6.781  0.2433 -0.2378 -0.2336
  125OSM    H3S13317   5.717   2.883   6.752  0.6058 -0.0592 -0.8471
  125OSM     O313318   5.592   3.038   6.709  0.6665  0.3464  0.0727
  125OSM    HO313319   5.625   3.050   6.620  1.8922 -0.8927  0.3234
  125OSM    C4S13320   5.684   2.982   6.934  1.0144  0.3320 -0.1507
  125OSM    H4S13321   5.680   3.080   6.985 -1.0470  0.5645 -0.6329
  125OSM    C5S13322   5.632   2.867   6.995  0.1846  0.3577 -0.5470
  125OSM    H5S13323   5.632   2.775   6.935  3.0865 -0.1020 -0.0124
  125OSM    C6S13324   5.602   2.843   7.137  0.3512 -0.4026  0.0365
  125OSM    H6S13325   5.541   2.751   7.148  1.9738 -1.3548  1.6564
  125OSM    H6T13326   5.545   2.929   7.179  1.4206 -0.4316  1.6191
  125OSM    C7S13327   5.728   2.855   7.215  0.0476 -0.2604  0.2198
  125OSM    H7S13328   5.779   2.951   7.192 -0.9064  0.3788  0.7113
  125OSM    H7T13329   5.799   2.771   7.201 -0.6192 -1.3144  2.6102
  125OSM    C8S13330   5.701   2.865   7.360  0.7038 -0.2811  0.5876
  125OSM    H8S13331   5.649   2.770   7.385  0.5621 -0.5899 -0.7857
  125OSM    H8T13332   5.626   2.945   7.378 -0.4541 -1.4333  1.0835
  125OSM    C9S13333   5.831   2.883   7.438 -0.0313 -0.8423  0.7715
  125OSM    H9S13334   5.859   2.988   7.414  1.8243 -1.2152  1.1387
  125OSM    H9T13335   5.909   2.822   7.389 -1.0493 -0.5728 -1.2851
  125OSM   C10S13336   5.822   2.877   7.585 -0.3180 -0.3848 -0.5547
  125OSM   H10S13337   5.866   2.970   7.625  0.1636 -0.4660 -0.8765
  125OSM   H10T13338   5.880   2.786   7.614  0.1247 -0.3413 -1.2694
  125OSM   C11S13339   5.688   2.885   7.655  0.3906  0.1599 -0.3129
  125OSM   H11S13340   5.634   2.794   7.622 -0.4368  0.5989 -0.2063
  125OSM   H11T13341   5.618   2.968   7.627 -1.5127 -1.6130 -1.1156
  125OSM   C12S13342   5.707   2.895   7.806  0.0499  0.3104  0.2512
  125OSM   H12S13343   5.751   2.996   7.816  0.6312  0.0134  0.7221
  125OSM   H12T13344   5.783   2.821   7.837 -0.5420  0.7879  3.1400
  125OSM   C13S13345   5.579   2.909   7.888 -0.2981 -0.4707  0.1776
  125OSM   H13S13346   5.508   2.832   7.850 -1.7043  1.8009 -2.1710
  125OSM   H13T13347   5.508   2.993   7.874 -2.4550 -2.2480 -0.0829
  125OSM   C14S13348   5.603   2.881   8.034 -0.1579  0.3469 -0.1674
  125OSM   H14S13349   5.655   2.967   8.081  1.4930 -1.1752  0.9068
  125OSM   H14T13350   5.664   2.789   8.048  0.8039  0.7934 -1.3311
  125OSM   C15S13351   5.478   2.841   8.111  0.0888 -0.3166 -0.1472
  125OSM   H15S13352   5.440   2.750   8.060 -0.3061  0.3045 -1.0061
  125OSM   H15T13353   5.400   2.920   8.106  0.5043  0.0727 -0.6151
  125OSM   C16S13354   5.512   2.801   8.260  0.0974  1.1580 -0.5437
  125OSM   H16S13355   5.605   2.739   8.257  0.3176  1.4734 -0.2530
  125OSM   H16T13356   5.430   2.737   8.298  0.2541  0.7846 -0.8227
  125OSM   C17S13357   5.520   2.920   8.353  0.1170  0.1411 -0.1104
  125OSM   H17S13358   5.419   2.965   8.366  0.5652  0.8105  1.3341
  125OSM   H17T13359   5.581   2.998   8.302  1.8058  0.7059  2.5813
  125OSM   C18S13360   5.586   2.888   8.490  1.0329 -0.1382  0.4319
  125OSM   H18S13361   5.684   2.836   8.494  0.7978 -0.5413  1.4391
  125OSM   H18T13362   5.515   2.837   8.560  0.6245 -0.6588 -0.3469
  125OSM   H18U13363   5.601   2.989   8.533  2.2432  0.5951 -1.6277
  125OSM    C1F13364   6.077   3.073   6.832  0.0083  0.8969  0.0404
  125OSM     OF13365   6.100   3.180   6.780 -0.3025 -0.4468  0.4795
  125OSM    C2F13366   6.190   2.994   6.891  0.1423  0.1758 -0.7143
  125OSM    H2F13367   6.241   2.926   6.819  1.4534 -2.2662  2.3003
  125OSM    H2G13368   6.142   2.919   6.957  1.7048  1.0018  1.4639
  125OSM    C3F13369   6.294   3.078   6.971 -0.0024 -0.1275 -0.9539
  125OSM    H3F13370   6.316   3.160   6.899  2.5042  0.3608  0.2606
  125OSM    H3G13371   6.388   3.022   6.988  1.3833  2.7383  1.8573
  125OSM    C4F13372   6.231   3.142   7.098 -0.6662  0.2996 -0.0822
  125OSM    H4F13373   6.139   3.199   7.073 -0.1271  0.9682 -0.5716
  125OSM    H4G13374   6.299   3.225   7.127  1.1184 -0.9314 -0.5798
  125OSM    C5F13375   6.211   3.044   7.215  0.0919 -1.0185  0.2233
  125OSM    H5F13376   6.310   3.011   7.253  1.1167  1.4341 -0.1205
  125OSM    H5G13377   6.156   2.949   7.199  0.3203 -1.3353  1.2728
  125OSM    C6F13378   6.153   3.123   7.345  0.3534  0.0497  0.5206
  125OSM    H6F13379   6.042   3.130   7.344  0.3084 -0.6185 -0.5680
  125OSM    H6G13380   6.193   3.227   7.337  0.0435  0.1489  0.2280
  125OSM    C7F13381   6.186   3.056   7.482 -0.1339 -0.4585 -0.2391
  125OSM    H7F13382   6.291   3.024   7.463 -0.0229 -0.5806  0.5331
  125OSM    H7G13383   6.115   2.971   7.492 -1.7363  0.6509 -1.7885
  125OSM    C8F13384   6.183   3.142   7.609  0.4017  0.5411 -0.0472
  125OSM    H8F13385   6.080   3.177   7.629  0.7046  1.4611 -0.0309
  125OSM    H8G13386   6.239   3.238   7.599  1.0377  0.2321  0.4641
  125OSM    C9F13387   6.248   3.066   7.724 -0.0160  0.4397 -0.0386
  125OSM    H9F13388   6.356   3.048   7.708 -0.1861 -0.0332 -0.7157
  125OSM   C10F13389   6.184   3.010   7.835 -0.8519  0.5204 -0.0044
  125OSM   H10F13390   6.232   2.950   7.914 -1.7254 -2.1288 -1.3754
  125OSM   C11F13391   6.034   3.037   7.863 -0.2304  0.5740  0.1129
  125OSM   H11F13392   5.977   2.973   7.792 -0.6677  1.2079 -0.1180
  125OSM   H11G13393   6.006   3.143   7.847  0.4044  0.5939 -0.9527
  125OSM   C12F13394   5.999   3.001   8.008 -0.6399  0.2414 -0.3320
  125OSM   H12F13395   6.043   2.899   8.004 -1.2764 -0.1228  1.4399
  125OSM   H12G13396   5.890   3.000   8.031 -0.0425  1.0209  3.0385
  125OSM   C13F13397   6.062   3.102   8.108 -0.0772  0.0290 -0.3478
  125OSM   H13F13398   6.014   3.201   8.090  3.4981  1.9479 -0.3663
  125OSM   H13G13399   6.169   3.125   8.085 -0.0491  0.3766  0.1160
  125OSM   C14F13400   6.064   3.044   8.246  0.8656 -0.6173 -0.6013
  125OSM   H14F13401   6.112   2.944   8.233  1.7835 -0.3032  0.2011
  125OSM   H14G13402   5.961   3.031   8.285  1.1773 -1.3722  0.0133
  125OSM   C15F13403   6.148   3.123   8.350 -0.1811 -0.1755 -0.2031
  125OSM   H15F13404   6.125   3.229   8.330 -2.3578  0.2157  3.4610
  125OSM   H15G13405   6.253   3.109   8.316 -0.5089  0.6605 -1.6115
  125OSM   C16F13406   6.126   3.096   8.493  0.2034 -0.5210 -0.7487
  125OSM   H16F13407   6.146   2.987   8.498  1.0158 -0.3283  3.2134
  125OSM   H16G13408   6.024   3.124   8.528  0.6306 -0.2244  0.2959
  125OSM   C17F13409   6.228   3.172   8.584  0.4097 -0.2790 -0.3075
  125OSM   H17F13410   6.330   3.134   8.562  0.5008  0.4480 -1.2107
  125OSM   H17G13411   6.191   3.147   8.686  0.9578  2.1776  0.5627
  125OSM   C18F13412   6.229   3.326   8.561 -0.2961  0.3467 -0.1425
  125OSM   H18F13413   6.125   3.366   8.560 -1.4257 -2.3646  0.7504
  125OSM   H18G13414   6.287   3.338   8.467 -0.7667 -0.9248 -0.6148
  125OSM   H18H13415   6.287   3.380   8.639 -1.1704 -1.1895  1.6556
  126OSM      N13416   6.270   4.270   6.326 -0.1813  0.5286 -0.1891
  126OSM    C1513417   6.306   4.126   6.336 -0.1355  0.3413  0.3336
  126OSM   H15A13418   6.393   4.112   6.399 -0.7273  0.8026  1.2791
  126OSM   H15B13419   6.341   4.082   6.244  0.1785  1.4768 -0.0957
  126OSM   H15C13420   6.216   4.076   6.372 -0.0290  0.0611  0.2138
  126OSM    C1413421   6.402   4.329   6.300  0.0032 -0.1459  0.4513
  126OSM   H14A13422   6.401   4.435   6.324  2.0600 -0.0250  0.1723
  126OSM   H14B13423   6.435   4.320   6.198 -0.0211  2.2762  0.1544
  126OSM   H14C13424   6.476   4.286   6.365  0.5269  0.2597  0.1259
  126OSM    C1313425   6.165   4.303   6.224 -0.3270  0.7643  0.0015
  126OSM   H13A13426   6.189   4.264   6.126 -0.9112 -1.2429  0.6268
  126OSM   H13B13427   6.163   4.411   6.218  1.3929  0.9904  2.2143
  126OSM   H13C13428   6.068   4.278   6.264 -0.1811 -0.7500 -0.5246
  126OSM    C1213429   6.222   4.320   6.464  0.5095 -0.3441 -0.4974
  126OSM   H12A13430   6.203   4.426   6.458  2.1818 -0.0395 -1.2325
  126OSM   H12B13431   6.311   4.304   6.523  0.9173  1.6519 -0.5156
  126OSM    C1113432   6.099   4.251   6.531  0.3206  0.2031  0.0672
  126OSM   H11A13433   6.091   4.282   6.638 -0.0365  0.3490  0.0002
  126OSM   H11B13434   6.105   4.141   6.538 -1.9483  0.0709  0.6352
  126OSM      P13435   5.912   4.425   6.480 -0.0206  0.4962 -0.3072
  126OSM    O1313436   6.023   4.525   6.470  0.3926  0.0509 -0.1763
  126OSM    O1413437   5.796   4.448   6.390 -0.3623  0.1971 -0.1938
  126OSM    O1113438   5.858   4.418   6.628  0.7162  0.9009 -0.4909
  126OSM    O1213439   5.974   4.280   6.462 -0.5208 -0.4800  0.4671
  126OSM    C1S13440   5.751   4.322   6.658 -0.0508 -0.2139 -0.1053
  126OSM    H1S13441   5.804   4.224   6.654 -2.0746 -1.3891  0.7170
  126OSM    H1T13442   5.666   4.323   6.586  0.1699  2.0160 -0.4099
  126OSM     NF13443   5.614   4.230   6.830  0.1594  0.2844  0.1226
  126OSM    HNF13444   5.523   4.267   6.848  0.5604  1.1524  0.4462
  126OSM    C2S13445   5.710   4.332   6.803 -0.4955  0.2446  0.5747
  126OSM    H2S13446   5.801   4.298   6.858  0.4849  1.0007 -0.5473
  126OSM    C3S13447   5.666   4.469   6.854  0.2260 -0.1567 -0.4747
  126OSM    H3S13448   5.580   4.499   6.791 -0.9834 -1.3278  0.5508
  126OSM     O313449   5.758   4.579   6.836  0.3357 -0.4002 -0.0597
  126OSM    HO313450   5.825   4.539   6.779  1.4269  0.1828  0.7774
  126OSM    C4S13451   5.616   4.466   6.996 -0.3252  0.5327 -0.3804
  126OSM    H4S13452   5.675   4.409   7.069  0.8101  2.1639  0.0414
  126OSM    C5S13453   5.510   4.532   7.047 -0.1182  0.2294 -0.0658
  126OSM    H5S13454   5.445   4.584   6.975  1.3048 -1.4272 -2.6705
  126OSM    C6S13455   5.473   4.527   7.195 -1.0143  0.3491  0.2617
  126OSM    H6S13456   5.471   4.634   7.227 -1.1453  0.8411 -1.3165
  126OSM    H6T13457   5.552   4.480   7.258 -1.5793 -0.7773  0.1492
  126OSM    C7S13458   5.338   4.462   7.232  0.0015 -0.1096 -0.4241
  126OSM    H7S13459   5.346   4.364   7.181  1.6284 -0.2177 -0.0168
  126OSM    H7T13460   5.259   4.527   7.187  2.2470  2.1972 -1.2323
  126OSM    C8S13461   5.328   4.445   7.379  0.0004 -0.2787  0.2142
  126OSM    H8S13462   5.433   4.440   7.415  0.3584 -1.0221 -0.8906
  126OSM    H8T13463   5.281   4.349   7.410  0.5119 -0.5194  0.2474
  126OSM    C9S13464   5.244   4.560   7.443  0.0508 -0.1200  0.2322
  126OSM    H9S13465   5.161   4.593   7.378 -1.1989  1.1489  2.3391
  126OSM    H9T13466   5.300   4.656   7.443 -0.5268  0.2202 -0.0082
  126OSM   C10S13467   5.177   4.522   7.573  0.3583  0.1162 -0.2585
  126OSM   H10S13468   5.114   4.431   7.563  0.1797  0.0818  0.9847
  126OSM   H10T13469   5.116   4.611   7.598  0.2245  0.0069 -0.1988
  126OSM   C11S13470   5.266   4.487   7.692 -0.4761 -0.9464 -0.2517
  126OSM   H11S13471   5.356   4.549   7.711  0.1373 -1.2294 -2.0199
  126OSM   H11T13472   5.297   4.381   7.678  0.0145 -0.7907 -0.3410
  126OSM   C12S13473   5.197   4.486   7.833 -0.2419  0.4364 -0.0860
  126OSM   H12S13474   5.100   4.434   7.818 -0.2039  0.5583 -0.7727
  126OSM   H12T13475   5.170   4.583   7.878  0.8906  0.1760  1.2214
  126OSM   C13S13476   5.284   4.399   7.936  0.1641 -0.4310  0.7956
  126OSM   H13S13477   5.370   4.466   7.957  1.0846 -1.4134  0.2892
  126OSM   H13T13478   5.313   4.299   7.896  0.0190 -0.7479  1.4728
  126OSM   C14S13479   5.209   4.378   8.069 -0.2579 -0.5097 -0.6062
  126OSM   H14S13480   5.106   4.341   8.050 -0.5239 -0.0793 -0.0516
  126OSM   H14T13481   5.203   4.473   8.126 -2.1443  0.0081 -1.5666
  126OSM   C15S13482   5.271   4.260   8.160  0.5239  0.6016 -0.3758
  126OSM   H15S13483   5.366   4.296   8.203  0.9623 -2.8118  1.9418
  126OSM   H15T13484   5.288   4.176   8.089  2.4819 -0.2958  1.0804
  126OSM   C16S13485   5.177   4.215   8.281  0.6268 -0.6586  0.8170
  126OSM   H16S13486   5.075   4.199   8.241  0.6677  1.4805 -0.2414
  126OSM   H16T13487   5.163   4.303   8.347  1.1389  0.1736 -0.1508
  126OSM   C17S13488   5.245   4.102   8.356  0.1851 -0.0244  0.6933
  126OSM   H17S13489   5.333   4.149   8.405 -0.5960 -0.1028  2.2483
  126OSM   H17T13490   5.284   4.028   8.283 -0.2602  2.0158 -1.7379
  126OSM   C18S13491   5.155   4.039   8.454  0.0266 -0.0932 -0.9563
  126OSM   H18S13492   5.201   3.944   8.490  0.3774 -0.3642 -2.0938
  126OSM   H18T13493   5.062   4.011   8.401  0.7509 -0.7221 -1.9156
  126OSM   H18U13494   5.126   4.104   8.540 -1.8049 -1.1861 -0.6844
  126OSM    C1F13495   5.620   4.098   6.830 -0.7701  0.3126  0.5383
  126OSM     OF13496   5.726   4.045   6.807  0.4121 -0.4012  0.2004
  126OSM    C2F13497   5.501   4.020   6.846  0.2713  0.4740 -0.1747
  126OSM    H2F13498   5.433   4.042   6.761  0.3178  0.2941 -0.2573
  126OSM    H2G13499   5.433   4.058   6.926  2.3194  3.8129  0.1774
  126OSM    C3F13500   5.516   3.867   6.861 -0.3512  0.1152  0.5810
  126OSM    H3F13501   5.585   3.836   6.943  1.2241 -1.4969 -1.2623
  126OSM    H3G13502   5.554   3.822   6.767 -1.8840 -0.8499  0.3894
  126OSM    C4F13503   5.384   3.796   6.901 -0.4411 -0.1430 -0.1640
  126OSM    H4F13504   5.333   3.827   6.994 -0.1652  0.0062 -0.0615
  126OSM    H4G13505   5.415   3.691   6.922  0.5095 -0.6277 -3.4228
  126OSM    C5F13506   5.281   3.786   6.786  0.2009  0.3387  0.4831
  126OSM    H5F13507   5.326   3.725   6.705  1.5113  0.2031  1.2919
  126OSM    H5G13508   5.266   3.890   6.751 -1.0721 -0.0111 -0.0578
  126OSM    C6F13509   5.147   3.729   6.840  0.0540  0.4638 -0.1565
  126OSM    H6F13510   5.073   3.724   6.758  2.4550  2.7278 -2.6669
  126OSM    H6G13511   5.098   3.798   6.912 -1.7662 -1.1196  0.2204
  126OSM    C7F13512   5.170   3.596   6.916 -0.1814  0.0023  0.4310
  126OSM    H7F13513   5.231   3.624   7.005 -0.4963  1.0144  0.3323
  126OSM    H7G13514   5.216   3.517   6.853 -0.6433  0.3403 -0.3424
  126OSM    C8F13515   5.049   3.514   6.975  0.4088 -0.3337 -0.1557
  126OSM    H8F13516   4.967   3.508   6.901 -0.1760  2.9171  0.0944
  126OSM    H8G13517   5.020   3.587   7.053  1.2776 -2.1232  1.9202
  126OSM    C9F13518   5.089   3.385   7.043 -1.2083 -0.5782  0.1103
  126OSM    H9F13519   5.184   3.352   6.999 -0.5451  0.5610  0.6488
  126OSM   C10F13520   5.012   3.310   7.118 -0.8978 -0.7249  0.3044
  126OSM   H10F13521   5.062   3.222   7.162  2.8910 -2.2288 -5.7385
  126OSM   C11F13522   4.868   3.343   7.155  0.4700 -0.9835  0.5084
  126OSM   H11F13523   4.802   3.261   7.122 -0.3625  0.6107 -2.1040
  126OSM   H11G13524   4.845   3.435   7.098  4.6032  0.4266  0.7568
  126OSM   C12F13525   4.846   3.359   7.303 -0.3221 -0.2079  0.6803
  126OSM   H12F13526   4.748   3.407   7.328 -0.4598 -1.0965  1.9490
  126OSM   H12G13527   4.921   3.428   7.347 -1.5144  3.0168 -1.9452
  126OSM   C13F13528   4.841   3.221   7.369  0.2313  0.0973 -0.0337
  126OSM   H13F13529   4.947   3.190   7.377  0.4812  1.3378  1.9884
  126OSM   H13G13530   4.780   3.150   7.309 -0.2961  2.2735 -2.2239
  126OSM   C14F13531   4.782   3.215   7.509  0.8983 -0.4766  0.0076
  126OSM   H14F13532   4.682   3.263   7.507  0.3370 -1.4452  2.3860
  126OSM   H14G13533   4.839   3.281   7.577 -0.8663  0.2559  0.8372
  126OSM   C15F13534   4.771   3.075   7.568  0.3101  0.1800 -0.1052
  126OSM   H15F13535   4.854   3.019   7.521  1.8617  1.4414  0.9920
  126OSM   H15G13536   4.674   3.028   7.543  1.0920 -0.7479 -1.4808
  126OSM   C16F13537   4.783   3.075   7.717 -0.3531  1.0241 -0.3418
  126OSM   H16F13538   4.721   3.158   7.758 -1.1978 -0.1643  0.8631
  126OSM   H16G13539   4.886   3.076   7.758  0.1227 -2.3059 -1.1819
  126OSM   C17F13540   4.739   2.937   7.782  0.4477  0.2844 -0.2643
  126OSM   H17F13541   4.807   2.859   7.742 -0.8202 -0.0092 -1.9613
  126OSM   H17G13542   4.640   2.908   7.742  0.8350 -0.8491 -0.4314
  126OSM   C18F13543   4.746   2.936   7.936 -0.0362  0.3310  0.3861
  126OSM   H18F13544   4.686   3.024   7.966 -0.7676  0.7051 -1.9896
  126OSM   H18G13545   4.852   2.938   7.971  0.4606 -0.6598 -0.9479
  126OSM   H18H13546   4.690   2.849   7.977 -0.5613  0.9344  0.9665
  127OSM      N13547   6.346   2.433   6.437 -0.6901 -0.8802 -0.5995
  127OSM    C1513548   6.270   2.554   6.385 -0.1393  0.0668  0.0159
  127OSM   H15A13549   6.331   2.606   6.313  0.7988 -0.0174  0.7257
  127OSM   H15B13550   6.223   2.620   6.458  0.2910  0.7219 -0.2900
  127OSM   H15C13551   6.190   2.521   6.320  0.0949  0.3847 -0.4393
  127OSM    C1413552   6.392   2.339   6.329  0.1570  0.1379  0.0790
  127OSM   H14A13553   6.479   2.380   6.279  0.2925 -0.6312 -0.3260
  127OSM   H14B13554   6.314   2.325   6.256  0.4135  1.6380 -0.5248
  127OSM   H14C13555   6.430   2.247   6.372  1.1838 -0.1140 -1.2970
  127OSM    C1313556   6.465   2.483   6.499 -1.1647 -0.4924  0.1605
  127OSM   H13A13557   6.448   2.569   6.563  0.6909  0.8100 -1.0184
  127OSM   H13B13558   6.537   2.511   6.424 -0.6102  0.3350  0.9730
  127OSM   H13C13559   6.509   2.401   6.554  1.0276  0.4264 -0.1187
  127OSM    C1213560   6.258   2.359   6.539 -0.3957 -0.0853  0.2596
  127OSM   H12A13561   6.162   2.349   6.490 -0.1724  0.3576 -0.2801
  127OSM   H12B13562   6.232   2.431   6.614  1.0144  1.6327 -0.8235
  127OSM    C1113563   6.303   2.224   6.607 -0.8292 -0.3939  0.1168
  127OSM   H11A13564   6.261   2.218   6.710  1.5345  2.9183  1.4614
  127OSM   H11B13565   6.412   2.243   6.617 -1.1681  1.2701  1.1375
  127OSM      P13566   6.148   2.061   6.472 -0.1636 -0.2802  0.0590
  127OSM    O1313567   6.055   2.175   6.471 -0.1663 -0.1063 -0.6237
  127OSM    O1413568   6.165   1.973   6.355 -0.0400  0.1959 -0.2095
  127OSM    O1113569   6.116   1.972   6.603  0.2986  0.5618 -0.0916
  127OSM    O1213570   6.287   2.110   6.518 -0.7327 -0.8661  0.1630
  127OSM    C1S13571   5.987   1.910   6.604 -0.3163  0.1636  0.2994
  127OSM    H1S13572   5.992   1.830   6.527  0.1896 -1.3945  1.9103
  127OSM    H1T13573   5.907   1.984   6.582  0.1644  0.6632  0.1996
  127OSM     NF13574   5.812   1.787   6.718 -0.7519 -0.3143 -0.3641
  127OSM    HNF13575   5.738   1.851   6.736 -2.5464 -1.8199 -1.9313
  127OSM    C2S13576   5.952   1.841   6.739 -0.2469 -0.6282  0.1776
  127OSM    H2S13577   6.020   1.755   6.757  1.7978  0.4950 -1.6624
  127OSM    C3S13578   5.960   1.949   6.853  0.4947  0.7437  0.3219
  127OSM    H3S13579   5.877   2.017   6.826  0.5799  0.6215 -0.2686
  127OSM     O313580   6.079   2.030   6.860  0.2760  0.6247  0.1316
  127OSM    HO313581   6.121   2.031   6.774 -0.4104  0.4056 -0.2164
  127OSM    C4S13582   5.927   1.889   6.992  0.3945  0.5747  1.0973
  127OSM    H4S13583   5.821   1.893   7.022  0.5268  0.1424  1.6295
  127OSM    C5S13584   6.011   1.848   7.089  0.4283  0.1927 -0.3882
  127OSM    H5S13585   6.118   1.870   7.072  0.8042 -0.5791  0.8375
  127OSM    C6S13586   5.977   1.790   7.223  0.2650 -0.5643  0.8476
  127OSM    H6S13587   6.050   1.711   7.251 -1.3053 -2.9177 -1.2812
  127OSM    H6T13588   5.874   1.749   7.221 -0.9272  2.1743  1.3496
  127OSM    C7S13589   5.978   1.893   7.336 -0.3537  0.1917  0.4664
  127OSM    H7S13590   5.915   1.983   7.321 -0.7695 -0.1023  0.4410
  127OSM    H7T13591   6.085   1.912   7.360  0.5903 -0.4069 -2.7731
  127OSM    C8S13592   5.927   1.823   7.465 -0.3722 -0.3156 -0.1733
  127OSM    H8S13593   5.970   1.721   7.460 -1.3128 -0.6549 -2.3221
  127OSM    H8T13594   5.817   1.823   7.445 -0.4065 -3.7447 -0.6499
  127OSM    C9S13595   5.953   1.898   7.591 -0.5896 -0.6392  0.0102
  127OSM    H9S13596   5.902   1.996   7.579  1.0238 -0.0052 -2.2737
  127OSM    H9T13597   6.058   1.933   7.604 -0.5283 -0.2249 -1.4272
  127OSM   C10S13598   5.890   1.845   7.716  0.0999  0.7958 -0.4391
  127OSM   H10S13599   5.790   1.892   7.716  0.1182  1.0235  2.3932
  127OSM   H10T13600   5.929   1.885   7.812  2.3834 -0.6271 -0.6895
  127OSM   C11S13601   5.886   1.689   7.732 -0.2809 -0.5495 -0.1590
  127OSM   H11S13602   5.985   1.640   7.730 -0.1864 -0.5123  1.7213
  127OSM   H11T13603   5.826   1.654   7.645  0.7073  1.5672 -1.7941
  127OSM   C12S13604   5.835   1.645   7.868 -0.3775  0.4724 -0.6779
  127OSM   H12S13605   5.734   1.688   7.886 -0.7960 -0.6663 -0.2435
  127OSM   H12T13606   5.894   1.703   7.942 -1.2391  0.3119  0.1610
  127OSM   C13S13607   5.828   1.497   7.895  0.0435 -0.5829 -0.4369
  127OSM   H13S13608   5.934   1.464   7.902  0.8530  1.1798 -3.0135
  127OSM   H13T13609   5.777   1.442   7.814 -0.9791  0.8734 -0.8123
  127OSM   C14S13610   5.754   1.459   8.028 -0.5367 -0.1024 -0.0175
  127OSM   H14S13611   5.796   1.357   8.036 -0.2167 -0.1206 -1.4811
  127OSM   H14T13612   5.645   1.444   8.023 -1.0771  2.0628  2.7986
  127OSM   C15S13613   5.787   1.541   8.149 -0.0643 -0.5064  0.3025
  127OSM   H15S13614   5.769   1.646   8.119 -0.8414 -0.8034 -0.3116
  127OSM   H15T13615   5.896   1.532   8.170  0.0760  1.4931  0.6526
  127OSM   C16S13616   5.700   1.501   8.276  0.4446  0.2141 -0.1586
  127OSM   H16S13617   5.717   1.393   8.294  0.7001 -0.0634 -1.8289
  127OSM   H16T13618   5.593   1.515   8.251  0.1961  0.1442  0.8470
  127OSM   C17S13619   5.729   1.591   8.403  0.1516 -0.4651 -0.8607
  127OSM   H17S13620   5.725   1.699   8.376  1.3485  0.5625  2.5227
  127OSM   H17T13621   5.832   1.573   8.440 -0.6055 -2.6994  0.3027
  127OSM   C18S13622   5.627   1.567   8.514  0.0859 -0.0714 -1.0755
  127OSM   H18S13623   5.526   1.605   8.487  0.3433  1.2200 -0.2977
  127OSM   H18T13624   5.664   1.618   8.605 -1.9004 -0.8915  0.2730
  127OSM   H18U13625   5.631   1.459   8.538 -1.2522 -0.1565 -1.1136
  127OSM    C1F13626   5.785   1.684   6.639  0.9117  0.0246 -0.1689
  127OSM     OF13627   5.870   1.600   6.599  0.5629  0.0580  0.4312
  127OSM    C2F13628   5.635   1.661   6.602 -0.1406  0.1999  0.5852
  127OSM    H2F13629   5.603   1.707   6.506  1.0513 -0.2917 -0.0610
  127OSM    H2G13630   5.569   1.712   6.676  1.1384  2.1218  0.4556
  127OSM    C3F13631   5.606   1.511   6.591  0.3446  0.1867 -0.9100
  127OSM    H3F13632   5.663   1.442   6.524  0.6246  1.2921 -1.8465
  127OSM    H3G13633   5.496   1.499   6.576  0.1365 -0.6063  0.9247
  127OSM    C4F13634   5.614   1.452   6.740 -0.1839  0.5921 -0.9567
  127OSM    H4F13635   5.584   1.539   6.803  1.3254  0.7793 -0.4555
  127OSM    H4G13636   5.718   1.429   6.771  0.1391  1.6760 -1.1566
  127OSM    C5F13637   5.539   1.321   6.766 -0.6488 -0.7642  0.7507
  127OSM    H5F13638   5.589   1.242   6.707 -1.2391 -0.9146  0.4472
  127OSM    H5G13639   5.435   1.322   6.727 -0.6665  1.6145  0.6733
  127OSM    C6F13640   5.535   1.277   6.905 -0.2535 -0.1759  0.1405
  127OSM    H6F13641   5.624   1.309   6.962 -0.5327  0.2408  0.3534
  127OSM    H6G13642   5.535   1.166   6.913  0.1073 -0.1529  0.5222
  127OSM    C7F13643   5.408   1.319   6.986  0.8259  0.2034 -0.6421
  127OSM    H7F13644   5.319   1.298   6.922  1.7974 -1.0000 -1.6669
  127OSM    H7G13645   5.417   1.429   7.000  0.2535  0.2933 -0.9082
  127OSM    C8F13646   5.391   1.252   7.127  0.2169  1.5498 -0.2208
  127OSM    H8F13647   5.319   1.313   7.187  1.8739  1.4088  2.0657
  127OSM    H8G13648   5.488   1.263   7.180  0.7510  2.0338 -1.2651
  127OSM    C9F13649   5.339   1.112   7.097 -1.2522 -0.1808 -0.5394
  127OSM    H9F13650   5.390   1.075   7.006 -0.0409  0.4852 -0.1449
  127OSM   C10F13651   5.246   1.035   7.163 -0.7348  0.1741 -0.5221
  127OSM   H10F13652   5.223   0.933   7.127 -1.7161  0.2912 -0.2665
  127OSM   C11F13653   5.174   1.075   7.288  0.5696  0.2180 -0.0655
  127OSM   H11F13654   5.066   1.048   7.286  0.3672  0.6062  2.4630
  127OSM   H11G13655   5.166   1.186   7.297 -2.1024  0.0008  1.4506
  127OSM   C12F13656   5.245   1.016   7.408  0.2470  0.1908 -0.7624
  127OSM   H12F13657   5.351   1.050   7.411 -0.7221  3.7760 -2.0255
  127OSM   H12G13658   5.248   0.905   7.404 -3.0369  0.0273 -1.8643
  127OSM   C13F13659   5.172   1.066   7.537  0.0896 -0.2327 -0.4293
  127OSM   H13F13660   5.070   1.025   7.518 -1.1467  2.1575  0.7367
  127OSM   H13G13661   5.175   1.177   7.536  2.8614 -0.2271 -0.5596
  127OSM   C14F13662   5.224   1.009   7.662 -0.2282  0.0621  0.3444
  127OSM   H14F13663   5.332   1.032   7.675  0.4587 -2.4989 -0.1830
  127OSM   H14G13664   5.216   0.899   7.648 -0.4070 -0.2578  2.6610
  127OSM   C15F13665   5.167   1.060   7.790 -0.5232 -0.5472  1.4347
  127OSM   H15F13666   5.057   1.051   7.796 -1.2476 -0.3828 -5.0011
  127OSM   H15G13667   5.186   1.169   7.800  0.2552 -0.5480  0.1961
  127OSM   C16F13668   5.242   1.007   7.911  0.1200 -0.2966  0.0630
  127OSM   H16F13669   5.352   1.000   7.899 -0.0560 -1.8242 -1.0066
  127OSM   H16G13670   5.201   0.904   7.923 -0.0593 -0.4904 -1.8982
  127OSM   C17F13671   5.225   1.090   8.036  0.7742 -0.4460 -0.1491
  127OSM   H17F13672   5.271   1.035   8.120 -0.1569  0.0320  0.6912
  127OSM   H17G13673   5.116   1.104   8.051  0.6815 -0.8864 -0.3944
  127OSM   C18F13674   5.287   1.220   8.028  0.2676  0.2983 -0.2682
  127OSM   H18F13675   5.393   1.211   7.996  1.1929  1.7381  2.1323
  127OSM   H18G13676   5.300   1.260   8.131  1.4225 -0.7333  0.0052
  127OSM   H18H13677   5.246   1.292   7.953 -1.0266 -1.4994 -1.3809
  128OSM      N13678   1.741   6.112   5.698 -0.0592 -0.4658 -0.1184
  128OSM    C1513679   1.799   6.079   5.560 -0.2160 -0.1478  0.2662
  128OSM   H15A13680   1.723   6.060   5.486  0.8637 -0.0667 -0.8901
  128OSM   H15B13681   1.872   5.999   5.556 -1.1963 -1.0865  0.4739
  128OSM   H15C13682   1.848   6.165   5.517 -1.6797 -0.1786 -1.5638
  128OSM    C1413683   1.645   6.220   5.681 -0.6184 -0.2902  0.2830
  128OSM   H14A13684   1.598   6.243   5.776 -0.3531 -0.1405  0.3796
  128OSM   H14B13685   1.575   6.189   5.605  0.2464 -1.0777 -0.2083
  128OSM   H14C13686   1.693   6.315   5.659  1.7927 -1.4354  0.3488
  128OSM    C1313687   1.664   5.991   5.738 -0.4910 -0.5238 -0.8866
  128OSM   H13A13688   1.581   5.977   5.670  0.3329 -1.2470 -1.7677
  128OSM   H13B13689   1.626   6.008   5.837 -0.2630  0.8313 -1.0093
  128OSM   H13C13690   1.724   5.901   5.740  0.4178  0.0557  1.3337
  128OSM    C1213691   1.859   6.143   5.789  0.3218 -0.0575  0.1347
  128OSM   H12A13692   1.910   6.235   5.762  0.2199 -0.5276 -1.7558
  128OSM   H12B13693   1.929   6.061   5.784  1.9285  1.0356  2.4914
  128OSM    C1113694   1.823   6.160   5.941 -0.1248  0.3461 -0.1371
  128OSM   H11A13695   1.920   6.168   5.994 -0.0911 -1.5748  0.1870
  128OSM   H11B13696   1.765   6.070   5.972 -1.7055  0.4839 -2.4726
  128OSM      P13697   1.715   6.314   6.120 -0.2190 -0.0333 -0.1457
  128OSM    O1313698   1.620   6.424   6.120 -0.1115  0.3010 -0.2060
  128OSM    O1413699   1.678   6.191   6.193 -0.0936 -0.3366 -0.2640
  128OSM    O1113700   1.860   6.361   6.170  0.1135  0.1526 -0.4638
  128OSM    O1213701   1.748   6.281   5.962  0.5607  0.0701 -0.8444
  128OSM    C1S13702   1.877   6.444   6.288 -0.0344  0.6700 -0.2714
  128OSM    H1S13703   1.806   6.529   6.277  0.7562  1.1849 -1.6597
  128OSM    H1T13704   1.980   6.486   6.292  1.0869 -1.9223  0.2756
  128OSM     NF13705   1.856   6.466   6.532  0.0795  0.2465  0.5726
  128OSM    HNF13706   1.933   6.472   6.595  1.8091 -2.7930 -1.0238
  128OSM    C2S13707   1.860   6.369   6.423 -0.2052 -0.2163 -0.8584
  128OSM    H2S13708   1.766   6.310   6.427 -0.0616 -0.4506 -0.8818
  128OSM    C3S13709   1.977   6.262   6.444  0.1496 -0.0265  0.1177
  128OSM    H3S13710   2.069   6.322   6.457 -0.0407  1.1533 -2.9491
  128OSM     O313711   1.997   6.183   6.324 -0.0102 -0.0351 -0.0077
  128OSM    HO313712   1.936   6.234   6.271 -1.8289 -1.0675  0.9885
  128OSM    C4S13713   1.958   6.161   6.559 -0.3239  0.3403  0.1506
  128OSM    H4S13714   1.895   6.077   6.525 -0.5697  0.8140 -0.5921
  128OSM    C5S13715   2.032   6.147   6.674 -0.5187  0.2542 -0.9352
  128OSM    H5S13716   2.118   6.213   6.692  0.4585 -1.6201  1.8486
  128OSM    C6S13717   2.018   6.040   6.776 -0.5130  0.0280 -0.7224
  128OSM    H6S13718   1.967   6.080   6.867  0.4318 -0.9429  0.2625
  128OSM    H6T13719   2.118   5.999   6.801 -0.0911  1.9125  0.9710
  128OSM    C7S13720   1.931   5.921   6.731 -0.3392  0.7551 -0.5089
  128OSM    H7S13721   1.979   5.875   6.641 -1.6808  0.2049 -0.9745
  128OSM    H7T13722   1.827   5.947   6.704 -0.2707  1.2412 -0.3032
  128OSM    C8S13723   1.930   5.799   6.831  0.1788  0.5101 -0.1502
  128OSM    H8S13724   2.033   5.765   6.856 -0.0739  0.8558  1.4654
  128OSM    H8T13725   1.879   5.721   6.771  0.5491 -0.3438  0.6163
  128OSM    C9S13726   1.853   5.816   6.963 -0.0361 -0.1190  0.6935
  128OSM    H9S13727   1.823   5.712   6.990  2.6532 -1.4830 -1.0365
  128OSM    H9T13728   1.765   5.876   6.932 -0.2748 -1.3864 -1.2769
  128OSM   C10S13729   1.939   5.871   7.079  0.4365 -0.0031 -0.5386
  128OSM   H10S13730   2.008   5.951   7.043  0.6115 -0.8016 -2.0884
  128OSM   H10T13731   2.006   5.787   7.107  0.0546  0.3179  1.4485
  128OSM   C11S13732   1.868   5.891   7.209  0.3053  0.1982  0.0335
  128OSM   H11S13733   1.818   5.796   7.238 -0.0799  0.7678  1.2542
  128OSM   H11T13734   1.790   5.967   7.188 -0.3827 -0.6652 -0.6498
  128OSM   C12S13735   1.961   5.939   7.322 -0.2383 -0.8659 -0.0189
  128OSM   H12S13736   2.001   6.040   7.298 -2.6844 -0.0420 -0.9759
  128OSM   H12T13737   2.051   5.876   7.330  1.5270  1.3771 -1.0744
  128OSM   C13S13738   1.891   5.946   7.458  0.1560 -0.0859 -0.3556
  128OSM   H13S13739   1.959   5.923   7.543 -0.8783 -3.1853 -0.2377
  128OSM   H13T13740   1.811   5.869   7.468  1.5835 -1.3789  2.2268
  128OSM   C14S13741   1.833   6.086   7.497  0.0580 -0.3704 -0.0865
  128OSM   H14S13742   1.754   6.118   7.426 -0.8952 -0.3960  0.9270
  128OSM   H14T13743   1.908   6.167   7.495 -1.9549  1.5702 -0.8414
  128OSM   C15S13744   1.780   6.088   7.633  0.6296  0.6482  0.2194
  128OSM   H15S13745   1.718   5.996   7.649  1.3863 -0.4728 -2.5944
  128OSM   H15T13746   1.709   6.173   7.644 -0.7180 -0.6573  2.4215
  128OSM   C16S13747   1.896   6.091   7.733  0.2105 -0.2047  0.2352
  128OSM   H16S13748   1.929   6.197   7.740 -0.1578 -0.1910  2.3241
  128OSM   H16T13749   1.990   6.037   7.707  1.9066  1.3463  2.7073
  128OSM   C17S13750   1.865   6.041   7.873  0.1999 -0.2748 -0.6501
  128OSM   H17S13751   1.942   6.060   7.951  0.2078  2.3185 -1.1990
  128OSM   H17T13752   1.860   5.931   7.880 -2.5763 -0.1872 -0.1606
  128OSM   C18S13753   1.735   6.092   7.926 -0.0219  0.1157 -0.5094
  128OSM   H18S13754   1.735   6.202   7.940 -3.0878  0.1899 -0.3999
  128OSM   H18T13755   1.722   6.048   8.027  0.7412  2.3479  0.6194
  128OSM   H18U13756   1.643   6.060   7.872 -1.8813  2.2251  1.1628
  128OSM    C1F13757   1.751   6.551   6.548 -0.5263  0.5231  0.1187
  128OSM     OF13758   1.657   6.539   6.472 -0.0367 -0.5568 -0.2169
  128OSM    C2F13759   1.761   6.669   6.640  0.1800  0.5255 -0.4513
  128OSM    H2F13760   1.722   6.758   6.586 -0.9102 -0.1716 -0.8420
  128OSM    H2G13761   1.869   6.683   6.661  0.8800 -2.0914 -1.8411
  128OSM    C3F13762   1.685   6.667   6.775  0.3385 -0.6594 -0.2575
  128OSM    H3F13763   1.715   6.571   6.822  1.5324 -1.8076 -3.0924
  128OSM    H3G13764   1.577   6.668   6.750  0.4364  0.4044 -0.6805
  128OSM    C4F13765   1.719   6.793   6.860 -0.6663  0.1173  0.9338
  128OSM    H4F13766   1.684   6.883   6.805 -0.7744 -1.2946 -1.4400
  128OSM    H4G13767   1.829   6.795   6.870 -0.6789  0.2153  1.0571
  128OSM    C5F13768   1.666   6.786   7.002  0.0081 -0.0896 -0.4210
  128OSM    H5F13769   1.690   6.690   7.053  0.2442  0.0557 -0.2614
  128OSM    H5G13770   1.555   6.783   6.996 -0.0284  2.2164 -2.3507
  128OSM    C6F13771   1.704   6.898   7.099  0.0383 -0.5996 -0.3312
  128OSM    H6F13772   1.815   6.893   7.111  0.0667  0.3450 -0.1286
  128OSM    H6G13773   1.650   6.874   7.193 -2.2679 -0.9470 -1.6799
  128OSM    C7F13774   1.654   7.036   7.059 -0.3089  0.5210 -0.9347
  128OSM    H7F13775   1.563   7.023   6.996 -0.0506 -2.1744 -0.8499
  128OSM    H7G13776   1.726   7.076   6.983  0.0650 -1.6012 -1.7498
  128OSM    C8F13777   1.644   7.145   7.166 -0.1429 -0.4930 -0.1188
  128OSM    H8F13778   1.567   7.100   7.233  0.4973 -1.0372  0.2601
  128OSM    H8G13779   1.597   7.239   7.130 -0.4512 -0.3883  0.5257
  128OSM    C9F13780   1.773   7.164   7.246  0.8869  0.4571  0.0038
  128OSM    H9F13781   1.860   7.132   7.188  1.2867  0.2164  0.7295
  128OSM   C10F13782   1.784   7.216   7.375  0.1260  0.6233 -0.5119
  128OSM   H10F13783   1.884   7.201   7.419  0.0627 -1.4859 -0.9913
  128OSM   C11F13784   1.675   7.269   7.459 -0.1164  0.3351  0.9123
  128OSM   H11F13785   1.596   7.300   7.387  0.7640 -0.6286 -0.5054
  128OSM   H11G13786   1.704   7.361   7.515  0.6540 -0.4229  1.7694
  128OSM   C12F13787   1.618   7.175   7.563 -0.6900  0.1505  0.7712
  128OSM   H12F13788   1.582   7.089   7.504 -0.5576  0.6017  0.0194
  128OSM   H12G13789   1.520   7.210   7.601 -1.3679 -0.7322 -0.1342
  128OSM   C13F13790   1.716   7.148   7.678 -0.0384 -0.2556  0.2881
  128OSM   H13F13791   1.774   7.240   7.700  0.1725  0.9805 -4.3506
  128OSM   H13G13792   1.793   7.073   7.649 -0.8867 -0.9736 -0.1676
  128OSM   C14F13793   1.645   7.105   7.806  0.1340 -0.9142 -0.0720
  128OSM   H14F13794   1.559   7.039   7.781 -1.1298 -1.0112  3.8069
  128OSM   H14G13795   1.599   7.188   7.865 -1.5516 -1.0501 -1.1229
  128OSM   C15F13796   1.742   7.033   7.901 -0.0895 -0.2073 -0.6867
  128OSM   H15F13797   1.777   6.948   7.839 -1.1073  0.7143 -2.5947
  128OSM   H15G13798   1.672   7.003   7.982  0.8471  2.4821  1.2803
  128OSM   C16F13799   1.860   7.120   7.953 -0.1240  0.4389 -0.5649
  128OSM   H16F13800   1.816   7.216   7.986 -0.0020  0.9607 -1.8642
  128OSM   H16G13801   1.920   7.140   7.862  0.1670 -2.1271 -1.0264
  128OSM   C17F13802   1.943   7.038   8.059 -0.0020  0.2206 -0.2990
  128OSM   H17F13803   1.923   7.073   8.163  0.7370  1.6510 -0.6054
  128OSM   H17G13804   2.050   7.065   8.043 -0.0452  0.7177  0.2132
  128OSM   C18F13805   1.942   6.888   8.052 -0.4917  0.1378  0.0527
  128OSM   H18F13806   2.010   6.836   8.122 -2.5775 -0.9909  1.3201
  128OSM   H18G13807   1.964   6.854   7.948 -0.2233  2.4383 -0.7083
  128OSM   H18H13808   1.839   6.852   8.072 -0.6001  0.0223 -0.6666
  129OSM      N13809   0.412   2.354   6.231  0.5699 -0.1153 -0.0443
  129OSM    C1513810   0.524   2.297   6.157 -0.0365  0.1381  0.4971
  129OSM   H15A13811   0.579   2.377   6.109  0.1693  0.3216  1.0274
  129OSM   H15B13812   0.496   2.230   6.077 -0.0822  0.4909  0.2177
  129OSM   H15C13813   0.596   2.238   6.213 -0.3762 -1.3140 -0.5483
  129OSM    C1413814   0.463   2.453   6.329 -1.0133  0.0634  0.6138
  129OSM   H14A13815   0.554   2.413   6.372 -0.2536  1.2420  0.1575
  129OSM   H14B13816   0.392   2.484   6.404 -2.5276 -0.2347 -0.6509
  129OSM   H14C13817   0.499   2.538   6.274 -1.3967 -1.1471 -1.6633
  129OSM    C1313818   0.323   2.431   6.134 -0.1629 -0.0261 -0.0139
  129OSM   H13A13819   0.382   2.503   6.080 -0.3202 -0.5268 -0.8742
  129OSM   H13B13820   0.250   2.483   6.194  0.2450  0.0690  0.4089
  129OSM   H13C13821   0.275   2.361   6.067 -2.4827 -0.9138  2.3891
  129OSM    C1213822   0.340   2.242   6.303  0.7106  0.0747 -0.1558
  129OSM   H12A13823   0.272   2.288   6.374  0.7422  0.9553 -0.6844
  129OSM   H12B13824   0.411   2.188   6.364 -2.5970 -4.2359  0.3576
  129OSM    C1113825   0.277   2.122   6.227  0.2009 -0.0757  0.3855
  129OSM   H11A13826   0.268   2.044   6.306  1.1585  0.6871  1.2815
  129OSM   H11B13827   0.349   2.086   6.150 -0.7244  2.4435 -1.8138
  129OSM      P13828   0.020   2.177   6.246 -0.0247 -0.2472 -0.2509
  129OSM    O1313829   0.021   2.318   6.293 -0.1486 -0.2490 -0.1860
  129OSM    O1413830  -0.095   2.140   6.169 -0.4235  0.1239  0.4203
  129OSM    O1113831   0.022   2.078   6.370 -0.3025  0.4074 -0.5572
  129OSM    O1213832   0.151   2.145   6.164  0.1159 -0.4959 -0.0774
  129OSM    C1S13833  -0.092   2.102   6.456  0.0506 -0.0332  0.7493
  129OSM    H1S13834  -0.180   2.043   6.422  0.1366 -0.0359  0.5291
  129OSM    H1T13835  -0.120   2.209   6.470 -0.0625 -0.0795  0.8755
  129OSM     NF13836  -0.191   2.026   6.670 -0.4568 -0.1419 -0.3398
  129OSM    HNF13837  -0.204   2.102   6.732 -0.9584 -1.8777  1.8383
  129OSM    C2S13838  -0.064   2.036   6.595  0.6262 -0.5959 -0.4087
  129OSM    H2S13839  -0.024   1.933   6.585  0.9288 -0.6198  0.8231
  129OSM    C3S13840   0.034   2.117   6.679 -0.2906 -0.9201 -1.1305
  129OSM    H3S13841  -0.021   2.209   6.707  0.7033 -0.6310 -0.0688
  129OSM     O313842   0.149   2.160   6.609  0.1870  0.6271  0.1364
  129OSM    HO313843   0.141   2.121   6.521  1.3113  1.2132 -0.2516
  129OSM    C4S13844   0.076   2.043   6.806 -0.2403  0.4394 -0.1065
  129OSM    H4S13845   0.010   2.060   6.892  0.4968  0.6941  0.4127
  129OSM    C5S13846   0.192   1.978   6.837 -0.5089  0.6068 -0.5423
  129OSM    H5S13847   0.270   1.970   6.760  0.2201 -0.4600  0.2688
  129OSM    C6S13848   0.227   1.902   6.966 -0.6809 -0.1370  0.3756
  129OSM    H6S13849   0.334   1.919   6.990  0.0601 -0.9392 -2.0079
  129OSM    H6T13850   0.215   1.791   6.964 -1.0317 -0.1384  1.6913
  129OSM    C7S13851   0.138   1.941   7.082  0.4225  0.2702 -0.1432
  129OSM    H7S13852   0.038   1.893   7.072  0.3620  0.1857  0.8045
  129OSM    H7T13853   0.133   2.052   7.087  2.8489  0.4080  0.4799
  129OSM    C8S13854   0.195   1.898   7.222 -0.8691  0.2387  0.1506
  129OSM    H8S13855   0.291   1.947   7.252 -0.8101 -0.4627  1.1669
  129OSM    H8T13856   0.221   1.790   7.229  1.0303  0.5558 -1.1455
  129OSM    C9S13857   0.102   1.943   7.339 -0.0551 -0.2453  0.8543
  129OSM    H9S13858  -0.004   1.918   7.316  0.3405 -2.8847  1.5977
  129OSM    H9T13859   0.108   2.054   7.341 -0.2811 -0.1729 -0.7579
  129OSM   C10S13860   0.149   1.895   7.476 -0.6187  0.3565  0.0032
  129OSM   H10S13861   0.245   1.950   7.489 -0.3247  0.7295 -2.9420
  129OSM   H10T13862   0.175   1.789   7.460  1.3052  0.8319 -0.2320
  129OSM   C11S13863   0.053   1.926   7.589 -0.2684  0.2241 -0.0857
  129OSM   H11S13864  -0.038   1.864   7.573  0.1772 -0.6810  0.7968
  129OSM   H11T13865   0.015   2.029   7.571 -2.3172 -0.4123  0.3050
  129OSM   C12S13866   0.100   1.903   7.733  0.2975  0.0717  0.2576
  129OSM   H12S13867   0.159   1.809   7.733  0.2360 -0.0034  1.8060
  129OSM   H12T13868   0.007   1.895   7.792 -0.0033  2.0204  0.1131
  129OSM   C13S13869   0.200   2.011   7.791  0.5006  0.0727 -0.5128
  129OSM   H13S13870   0.281   2.013   7.715  0.0317  2.4543 -1.0467
  129OSM   H13T13871   0.238   1.992   7.893 -4.2118 -0.7145  1.3570
  129OSM   C14S13872   0.151   2.151   7.789  0.2724  0.0593  0.7859
  129OSM   H14S13873   0.109   2.176   7.689  0.0771 -0.6059  0.6987
  129OSM   H14T13874   0.231   2.228   7.801  1.1613 -0.0891 -2.9382
  129OSM   C15S13875   0.029   2.182   7.888 -0.7566  0.0036  0.4672
  129OSM   H15S13876   0.073   2.203   7.988  1.4214 -1.6036 -0.0673
  129OSM   H15T13877  -0.023   2.085   7.902  2.0748 -1.6398  0.4891
  129OSM   C16S13878  -0.057   2.295   7.829 -0.2671  0.0702 -0.1777
  129OSM   H16S13879  -0.093   2.276   7.726 -2.8887 -2.2823  0.9934
  129OSM   H16T13880   0.012   2.381   7.822  1.5500 -1.3153  0.0925
  129OSM   C17S13881  -0.181   2.322   7.903  0.0082  0.1430 -0.5966
  129OSM   H17S13882  -0.227   2.415   7.862  2.6174  1.0377 -1.7526
  129OSM   H17T13883  -0.153   2.337   8.010  1.1127 -2.7991 -0.3955
  129OSM   C18S13884  -0.299   2.222   7.895  0.2713  0.3503 -0.2016
  129OSM   H18S13885  -0.264   2.125   7.936  1.6223  0.9483  0.1148
  129OSM   H18T13886  -0.348   2.207   7.796 -0.4189  0.0184  0.1776
  129OSM   H18U13887  -0.383   2.265   7.955  1.3274  1.3938  0.5608
  129OSM    C1F13888  -0.279   1.925   6.662  0.3260 -0.2623  0.7518
  129OSM     OF13889  -0.275   1.846   6.571 -0.0456  0.2582 -0.0195
  129OSM    C2F13890  -0.386   1.915   6.772 -0.0633 -0.0891 -0.4141
  129OSM    H2F13891  -0.474   1.959   6.720 -0.1783  2.5526  1.7387
  129OSM    H2G13892  -0.365   1.981   6.859 -0.6911 -1.8891  1.1761
  129OSM    C3F13893  -0.414   1.769   6.822  0.5554 -0.2971 -0.1895
  129OSM    H3F13894  -0.404   1.694   6.741 -0.4239 -2.2977  1.4554
  129OSM    H3G13895  -0.521   1.762   6.849  0.2292 -0.0172 -1.3765
  129OSM    C4F13896  -0.318   1.715   6.922 -0.1248  0.3200 -1.1789
  129OSM    H4F13897  -0.211   1.730   6.895  0.5026 -0.6919  0.5679
  129OSM    H4G13898  -0.329   1.608   6.949  2.5295  0.3109  0.2172
  129OSM    C5F13899  -0.332   1.785   7.063  0.4851  0.5264 -0.4810
  129OSM    H5F13900  -0.433   1.778   7.109  1.4292  0.7655  1.7537
  129OSM    H5G13901  -0.307   1.893   7.070  3.7480  0.2200 -4.2467
  129OSM    C6F13902  -0.259   1.715   7.178  0.1730 -0.1807 -0.6661
  129OSM    H6F13903  -0.153   1.711   7.145  0.5570 -0.0594  0.5283
  129OSM    H6G13904  -0.299   1.611   7.186  0.0248  0.0018  1.3218
  129OSM    C7F13905  -0.281   1.770   7.321  0.7425  0.3244  0.2451
  129OSM    H7F13906  -0.272   1.881   7.325  0.9962  0.3006  0.3389
  129OSM    H7G13907  -0.207   1.731   7.394  1.7286  0.8472 -0.4425
  129OSM    C8F13908  -0.426   1.743   7.370  0.0739 -0.5999  0.7403
  129OSM    H8F13909  -0.498   1.821   7.338 -1.6629 -0.4269  4.5317
  129OSM    H8G13910  -0.430   1.772   7.477  0.8357  0.3545  0.5222
  129OSM    C9F13911  -0.503   1.615   7.336  0.5010  0.7426 -0.1072
  129OSM    H9F13912  -0.504   1.596   7.228  0.0823  0.2550 -0.0252
  129OSM   C10F13913  -0.554   1.518   7.418 -0.5387 -0.2453 -0.3557
  129OSM   H10F13914  -0.605   1.431   7.374 -0.9857 -0.2275  0.1139
  129OSM   C11F13915  -0.540   1.526   7.565  0.3718  0.1635  0.2399
  129OSM   H11F13916  -0.609   1.606   7.599 -2.0637 -1.0019 -1.7082
  129OSM   H11G13917  -0.434   1.554   7.584  0.4269  1.2730 -1.5223
  129OSM   C12F13918  -0.568   1.391   7.627  0.3866  0.8210  0.8988
  129OSM   H12F13919  -0.514   1.310   7.573  3.4720  2.1322  1.7548
  129OSM   H12G13920  -0.674   1.362   7.615  0.5704 -0.3034  1.7380
  129OSM   C13F13921  -0.532   1.385   7.776 -0.4123 -0.1319 -0.6947
  129OSM   H13F13922  -0.537   1.490   7.810 -0.5029 -0.0469 -0.9690
  129OSM   H13G13923  -0.424   1.358   7.783 -0.4255 -0.4925 -1.7312
  129OSM   C14F13924  -0.613   1.277   7.856  0.0537  0.1454 -0.5198
  129OSM   H14F13925  -0.593   1.177   7.810  0.7074 -0.8190  1.7110
  129OSM   H14G13926  -0.721   1.292   7.838  0.1236 -1.6686 -3.0202
  129OSM   C15F13927  -0.573   1.269   8.004 -0.2201  0.4403  0.0891
  129OSM   H15F13928  -0.589   1.372   8.043  0.9020  0.5729  0.2049
  129OSM   H15G13929  -0.467   1.239   8.004 -0.9428 -2.5723  2.2049
  129OSM   C16F13930  -0.656   1.170   8.083  0.0393  0.3612  0.3808
  129OSM   H16F13931  -0.644   1.074   8.029  1.2113 -0.2031  1.5707
  129OSM   H16G13932  -0.765   1.190   8.081 -0.3157 -1.4341 -0.4044
  129OSM   C17F13933  -0.608   1.167   8.229 -0.8469 -1.1703  0.1507
  129OSM   H17F13934  -0.499   1.150   8.220 -0.5473  1.1894 -1.4608
  129OSM   H17G13935  -0.653   1.083   8.287 -2.3237  0.9002  2.1872
  129OSM   C18F13936  -0.630   1.294   8.310  0.5297  0.8023 -0.1980
  129OSM   H18F13937  -0.583   1.381   8.259  0.4588  0.3632 -1.0322
  129OSM   H18G13938  -0.572   1.280   8.404  1.3451 -1.4635 -0.9769
  129OSM   H18H13939  -0.736   1.311   8.338 -0.8384 -3.3372 -2.1185
  130OSM      N13940   1.304   5.006   6.082 -0.3289  0.4153  0.5373
  130OSM    C1513941   1.252   4.894   5.993 -0.7324  0.0625  0.0347
  130OSM   H15A13942   1.201   4.817   6.050 -0.0123 -0.1381  0.4234
  130OSM   H15B13943   1.329   4.841   5.940 -2.6551  0.1566 -3.0591
  130OSM   H15C13944   1.181   4.931   5.921 -2.2124  1.5089  2.1008
  130OSM    C1413945   1.334   5.132   6.002  0.9023 -0.0221  0.5099
  130OSM   H14A13946   1.374   5.218   6.054 -1.3448  0.7003  1.1302
  130OSM   H14B13947   1.238   5.151   5.957 -0.3169  0.0693  2.9567
  130OSM   H14C13948   1.406   5.104   5.927 -0.5978 -3.3212  0.1163
  130OSM    C1313949   1.198   5.033   6.177  0.5010 -0.9680  0.2394
  130OSM   H13A13950   1.195   4.951   6.247  1.1066 -1.2127 -0.0169
  130OSM   H13B13951   1.099   5.050   6.137  0.5047  0.5711  0.7886
  130OSM   H13C13952   1.217   5.127   6.227 -1.5399  0.7959 -2.0169
  130OSM    C1213953   1.427   4.960   6.159 -0.5011  0.5687 -0.2297
  130OSM   H12A13954   1.510   4.936   6.094 -2.7052 -0.5904 -2.7999
  130OSM   H12B13955   1.407   4.860   6.194  0.3409  0.9076  1.3169
  130OSM    C1113956   1.489   5.049   6.270  0.1364  0.2826 -0.3915
  130OSM   H11A13957   1.569   4.998   6.328  0.1853  0.6254 -0.1530
  130OSM   H11B13958   1.406   5.073   6.340 -0.5590 -0.5949 -0.8907
  130OSM      P13959   1.669   5.183   6.135  0.1941  0.3707 -0.3670
  130OSM    O1313960   1.685   5.082   6.037 -0.5607 -0.4131  0.5606
  130OSM    O1413961   1.684   5.327   6.090  0.0901  0.3600  0.0111
  130OSM    O1113962   1.775   5.152   6.248 -0.0193 -0.0226 -0.5649
  130OSM    O1213963   1.527   5.164   6.206 -0.0444 -0.1996 -0.1197
  130OSM    C1S13964   1.764   5.241   6.366 -0.9160  0.2911 -0.9940
  130OSM    H1S13965   1.675   5.307   6.374 -0.5737  0.6150  0.6000
  130OSM    H1T13966   1.855   5.305   6.375  1.4486 -3.1054  2.6617
  130OSM     NF13967   1.769   5.260   6.610  0.0230  0.3789  0.7582
  130OSM    HNF13968   1.860   5.281   6.646  0.1251  0.4187  0.4763
  130OSM    C2S13969   1.772   5.163   6.500  0.6639  0.1406 -0.3982
  130OSM    H2S13970   1.674   5.111   6.500  0.7286 -0.0307 -2.4193
  130OSM    C3S13971   1.876   5.054   6.506 -0.0065  0.4817 -0.4466
  130OSM    H3S13972   1.980   5.093   6.513  0.6113 -1.2744  0.7985
  130OSM     O313973   1.869   4.963   6.393 -0.0071  0.2468 -0.1262
  130OSM    HO313974   1.824   5.020   6.330 -0.9214 -0.1686  0.1259
  130OSM    C4S13975   1.856   4.967   6.632  0.1917 -0.1037 -0.2162
  130OSM    H4S13976   1.777   4.891   6.623  0.9148 -0.8953 -0.0703
  130OSM    C5S13977   1.938   4.953   6.738 -0.4095 -0.1005  0.1985
  130OSM    H5S13978   2.022   5.020   6.758 -0.3661 -0.2368  0.4793
  130OSM    C6S13979   1.918   4.859   6.849  0.0690  0.0206 -0.1208
  130OSM    H6S13980   1.991   4.775   6.846  0.1219  0.0835 -0.7703
  130OSM    H6T13981   1.816   4.816   6.846  0.7774 -2.0885  2.7088
  130OSM    C7S13982   1.933   4.920   6.989  1.0487 -0.8692 -0.1441
  130OSM    H7S13983   2.041   4.934   7.012  0.2004  1.1565  3.2537
  130OSM    H7T13984   1.895   4.847   7.064  1.7896 -3.6408 -2.2540
  130OSM    C8S13985   1.877   5.064   7.014 -0.9078 -1.4349  0.4348
  130OSM    H8S13986   1.768   5.068   6.996 -1.0013 -2.7603  0.5579
  130OSM    H8T13987   1.921   5.138   6.944 -2.8486  0.1988  0.8718
  130OSM    C9S13988   1.896   5.110   7.157 -0.4763 -0.5648  0.2900
  130OSM    H9S13989   2.001   5.111   7.191 -0.0524  0.5160 -0.9591
  130OSM    H9T13990   1.843   5.042   7.226 -2.1798  1.3516  0.9814
  130OSM   C10S13991   1.836   5.246   7.171  0.5354 -0.4023  0.4509
  130OSM   H10S13992   1.729   5.258   7.145  0.6802  0.5847  0.2682
  130OSM   H10T13993   1.885   5.316   7.101  0.4322 -0.3241  0.4566
  130OSM   C11S13994   1.862   5.302   7.311  0.5859 -0.2075  0.0617
  130OSM   H11S13995   1.826   5.407   7.306 -3.7101 -1.5425 -1.8537
  130OSM   H11T13996   1.971   5.301   7.334  0.9720 -0.9052 -1.6263
  130OSM   C12S13997   1.804   5.232   7.430 -0.2255 -0.1570  0.2213
  130OSM   H12S13998   1.855   5.133   7.429  3.6897  1.6546 -2.3367
  130OSM   H12T13999   1.695   5.218   7.411  0.0061 -1.9572  0.0107
  130OSM   C13S14000   1.851   5.307   7.559  0.0290  0.4758  0.2530
  130OSM   H13S14001   1.841   5.414   7.530 -0.2760  0.3707 -0.0490
  130OSM   H13T14002   1.959   5.289   7.577 -0.4973 -2.1393  1.2325
  130OSM   C14S14003   1.766   5.258   7.682 -0.2699  0.1534  0.5854
  130OSM   H14S14004   1.785   5.150   7.700  2.8659  0.1974 -1.5669
  130OSM   H14T14005   1.660   5.279   7.656 -0.0112  1.0668  0.2158
  130OSM   C15S14006   1.805   5.331   7.816 -0.8398  0.2957 -0.3157
  130OSM   H15S14007   1.846   5.430   7.786  1.7419 -0.6793 -0.2917
  130OSM   H15T14008   1.891   5.282   7.867 -1.3650 -1.8278 -1.3334
  130OSM   C16S14009   1.694   5.332   7.915 -0.6398  0.4267 -0.1266
  130OSM   H16S14010   1.659   5.230   7.941 -1.2094  1.0377  1.6612
  130OSM   H16T14011   1.606   5.387   7.875  0.7343  2.1007 -0.9635
  130OSM   C17S14012   1.733   5.397   8.043 -0.1949 -0.6825 -0.9582
  130OSM   H17S14013   1.759   5.504   8.028 -2.2514 -0.0240 -0.1011
  130OSM   H17T14014   1.833   5.357   8.072 -0.4892 -0.0932  0.9604
  130OSM   C18S14015   1.639   5.379   8.160 -0.1519 -0.1427  0.1603
  130OSM   H18S14016   1.667   5.454   8.237  0.5528  0.0372 -0.2666
  130OSM   H18T14017   1.621   5.277   8.198  0.5793  0.4453  2.2000
  130OSM   H18U14018   1.539   5.415   8.125  1.0102  3.4616  0.0612
  130OSM    C1F14019   1.663   5.340   6.625  0.5122  0.4100 -0.0421
  130OSM     OF14020   1.557   5.319   6.566  0.2996  0.4421 -0.1818
  130OSM    C2F14021   1.672   5.453   6.726 -0.4733  0.6205 -0.3424
  130OSM    H2F14022   1.773   5.499   6.718 -0.6026  0.9880  0.0599
  130OSM    H2G14023   1.664   5.407   6.826  0.7457 -1.2082 -1.0460
  130OSM    C3F14024   1.567   5.563   6.707  0.2759 -0.0525 -0.3912
  130OSM    H3F14025   1.469   5.512   6.709  0.7442 -0.9478  0.5010
  130OSM    H3G14026   1.575   5.620   6.612  0.7794 -1.6516 -1.3517
  130OSM    C4F14027   1.550   5.656   6.832  0.1666  0.2165 -0.4044
  130OSM    H4F14028   1.480   5.742   6.820  1.4916  1.6424  1.4229
  130OSM    H4G14029   1.649   5.703   6.847 -0.3207  0.8127  1.2822
  130OSM    C5F14030   1.483   5.576   6.947  0.6046 -0.1500 -0.0342
  130OSM    H5F14031   1.545   5.485   6.959  2.4227  0.8894 -1.1461
  130OSM    H5G14032   1.380   5.538   6.931  1.2915 -1.7968 -0.8169
  130OSM    C6F14033   1.491   5.648   7.082 -0.0416 -0.4817  0.1378
  130OSM    H6F14034   1.456   5.752   7.062  1.4638 -0.3400 -1.9627
  130OSM    H6G14035   1.598   5.660   7.110  0.8604  0.9831 -3.3677
  130OSM    C7F14036   1.417   5.571   7.188 -0.6245  0.8555  0.6660
  130OSM    H7F14037   1.447   5.464   7.184 -1.7879  0.5663 -1.1105
  130OSM    H7G14038   1.311   5.570   7.157 -0.0486 -0.5024 -1.4699
  130OSM    C8F14039   1.438   5.621   7.329  0.5252 -0.3310 -0.3017
  130OSM    H8F14040   1.371   5.562   7.395  1.6663 -1.6013 -0.2282
  130OSM    H8G14041   1.409   5.728   7.336 -1.2109 -0.7935  0.2336
  130OSM    C9F14042   1.579   5.611   7.382 -0.1152 -0.0217  0.0217
  130OSM    H9F14043   1.659   5.581   7.314  2.1302  0.1952  2.4165
  130OSM   C10F14044   1.612   5.622   7.520 -0.1972 -0.0746  0.5331
  130OSM   H10F14045   1.718   5.637   7.545 -0.1603  2.2387 -0.6986
  130OSM   C11F14046   1.514   5.653   7.626  0.4744  0.4109 -0.2172
  130OSM   H11F14047   1.448   5.564   7.640  1.2875 -0.1411  0.2231
  130OSM   H11G14048   1.454   5.741   7.596  1.5682  1.6959  1.1806
  130OSM   C12F14049   1.582   5.704   7.753  0.4896 -0.5398  0.5416
  130OSM   H12F14050   1.644   5.794   7.737  2.2970 -1.9019 -0.3708
  130OSM   H12G14051   1.650   5.624   7.790 -0.3922 -1.3608  0.4583
  130OSM   C13F14052   1.484   5.731   7.870 -0.0178 -0.0279  0.0651
  130OSM   H13F14053   1.404   5.655   7.862  1.1666 -1.5299  1.6913
  130OSM   H13G14054   1.441   5.833   7.859 -1.4099 -0.7272 -1.4060
  130OSM   C14F14055   1.555   5.734   8.006  0.4036  0.4300  0.7131
  130OSM   H14F14056   1.660   5.766   7.991  0.5808  0.5400  2.0735
  130OSM   H14G14057   1.572   5.630   8.042  0.5671  0.3778  0.4859
  130OSM   C15F14058   1.477   5.813   8.113 -0.6118 -0.5209 -0.9143
  130OSM   H15F14059   1.368   5.793   8.127 -1.4481  3.1710 -0.9476
  130OSM   H15G14060   1.479   5.920   8.081 -1.3590 -0.4816 -0.8527
  130OSM   C16F14061   1.555   5.811   8.249 -0.4454 -0.4736  0.4788
  130OSM   H16F14062   1.642   5.880   8.245 -1.6371  1.1847  1.4687
  130OSM   H16G14063   1.589   5.711   8.282  3.2636  0.6616  0.5439
  130OSM   C17F14064   1.464   5.885   8.360  0.1682  0.2659 -0.2444
  130OSM   H17F14065   1.376   5.818   8.360 -1.8946  2.6557  2.9226
  130OSM   H17G14066   1.446   5.991   8.331 -0.3024  0.2415 -0.0496
  130OSM   C18F14067   1.525   5.887   8.506  0.6152  0.4847  0.2607
  130OSM   H18F14068   1.563   5.788   8.538  0.6956  0.0748 -1.0221
  130OSM   H18G14069   1.462   5.922   8.590  1.0479 -2.3713  1.9028
  130OSM   H18H14070   1.615   5.951   8.511  0.8368  0.1041  1.1694
  131OSM      N14071   6.748   1.090   5.646 -0.4893  0.4499  0.3873
  131OSM    C1514072   6.735   1.002   5.517 -0.1984 -0.2578  0.1604
  131OSM   H15A14073   6.660   0.932   5.550  1.4328 -1.4320  1.5531
  131OSM   H15B14074   6.823   0.940   5.511  0.3219  0.5572 -0.8344
  131OSM   H15C14075   6.725   1.046   5.420  3.0119  0.5742  0.0940
  131OSM    C1414076   6.862   1.181   5.620 -0.3715  0.0234 -0.6912
  131OSM   H14A14077   6.945   1.125   5.580 -0.1440  2.1455 -3.4277
  131OSM   H14B14078   6.906   1.230   5.705 -1.9406 -1.0143  0.7980
  131OSM   H14C14079   6.837   1.247   5.538 -3.7977 -1.6280 -1.1595
  131OSM    C1314080   6.623   1.172   5.655  0.6741  0.7284 -0.3024
  131OSM   H13A14081   6.643   1.248   5.729  2.2266  0.1937 -0.1434
  131OSM   H13B14082   6.543   1.107   5.688  2.2402 -0.7149  0.7948
  131OSM   H13C14083   6.582   1.213   5.563 -2.2168 -0.2629  0.4174
  131OSM    C1214084   6.767   1.005   5.768  0.3415  0.2518 -0.7904
  131OSM   H12A14085   6.848   0.937   5.747 -0.5097 -0.3326 -2.4356
  131OSM   H12B14086   6.679   0.947   5.793 -1.1253  3.8229  3.6576
  131OSM    C1114087   6.800   1.086   5.896 -0.4252 -0.7396  0.0131
  131OSM   H11A14088   6.809   1.012   5.979  2.2921  0.5080  0.9603
  131OSM   H11B14089   6.717   1.157   5.916 -0.7743 -1.0454 -0.3358
  131OSM      P14090   7.052   1.109   5.972 -0.5476 -0.1384 -0.4164
  131OSM    O1314091   7.032   0.967   6.010 -0.9350 -0.0254  0.2587
  131OSM    O1414092   7.174   1.134   5.892  0.4211  0.2604  0.8413
  131OSM    O1114093   7.056   1.196   6.103 -0.0161  0.0175 -0.1819
  131OSM    O1214094   6.926   1.157   5.880  0.0024  0.4068  0.0400
  131OSM    C1S14095   6.942   1.242   6.175  0.2573  0.3290 -0.4030
  131OSM    H1S14096   6.846   1.217   6.125 -0.8319  2.1384  0.6933
  131OSM    H1T14097   6.946   1.352   6.184  1.4685  0.2211  0.7189
  131OSM     NF14098   6.832   1.243   6.405 -0.3145 -0.0215  1.4905
  131OSM    HNF14099   6.864   1.298   6.482  1.1395 -0.5583  1.3019
  131OSM    C2S14100   6.941   1.185   6.319  0.5333  0.1275 -0.9832
  131OSM    H2S14101   6.915   1.078   6.309 -0.6407  0.0429  1.9830
  131OSM    C3S14102   7.081   1.202   6.390 -0.1472  0.1195  0.6034
  131OSM    H3S14103   7.082   1.310   6.415 -2.0790 -0.0194  1.5155
  131OSM     O314104   7.198   1.168   6.314  0.5861  0.0696 -0.5636
  131OSM    HO314105   7.159   1.162   6.227 -1.1946 -3.8742  0.2631
  131OSM    C4S14106   7.090   1.132   6.520  0.6091  0.4478 -0.3728
  131OSM    H4S14107   7.045   1.200   6.595 -0.8453  0.8588 -1.5526
  131OSM    C5S14108   7.122   1.004   6.538  0.3031 -0.1270  0.7706
  131OSM    H5S14109   7.137   0.941   6.449 -1.0242 -1.7996  1.6755
  131OSM    C6S14110   7.118   0.935   6.676  0.1752 -0.1799  0.6884
  131OSM    H6S14111   7.215   0.898   6.717 -1.2873 -2.9153  1.9661
  131OSM    H6T14112   7.055   0.845   6.661  2.1327 -1.4916 -0.0034
  131OSM    C7S14113   7.047   1.025   6.782  0.4048  0.8699  0.5506
  131OSM    H7S14114   6.950   1.055   6.737  1.2964  1.2078 -1.2252
  131OSM    H7T14115   7.116   1.110   6.802  1.3276  1.4172 -3.7930
  131OSM    C8S14116   7.018   0.941   6.902  0.2342  0.1793 -0.5760
  131OSM    H8S14117   7.086   0.854   6.914 -0.5771 -0.1747  2.3124
  131OSM    H8T14118   6.918   0.892   6.895 -0.7983  1.8420  1.4319
  131OSM    C9S14119   7.037   1.016   7.036  0.7241 -0.2368 -0.4701
  131OSM    H9S14120   6.964   1.099   7.027 -0.2794 -0.9555  0.6157
  131OSM    H9T14121   7.140   1.058   7.036  0.5928  0.0917 -1.0153
  131OSM   C10S14122   7.015   0.937   7.167 -0.1529 -0.2833 -0.9359
  131OSM   H10S14123   7.088   0.854   7.162 -0.3968 -0.4393 -3.2977
  131OSM   H10T14124   6.915   0.890   7.161 -0.5539  0.7001 -3.2621
  131OSM   C11S14125   7.032   1.013   7.295  0.5094 -0.3591  0.6898
  131OSM   H11S14126   6.945   1.077   7.320  1.8669  1.2992  1.3957
  131OSM   H11T14127   7.118   1.083   7.296  0.6004 -0.2368 -2.8783
  131OSM   C12S14128   7.038   0.920   7.419 -0.4561  0.4066  0.3518
  131OSM   H12S14129   7.126   0.852   7.426 -2.3509 -2.0761  1.9841
  131OSM   H12T14130   6.957   0.846   7.400 -0.8502  0.8055  0.4609
  131OSM   C13S14131   7.004   0.994   7.550  0.5649 -0.7917  0.2766
  131OSM   H13S14132   6.904   1.041   7.538  0.2733 -1.7253 -1.2549
  131OSM   H13T14133   7.076   1.078   7.562  1.2353 -1.3028 -0.1157
  131OSM   C14S14134   7.016   0.920   7.687  0.0005 -0.3335  0.8660
  131OSM   H14S14135   7.123   0.892   7.704  0.1759  0.4842  1.1448
  131OSM   H14T14136   6.965   0.822   7.671  1.0262 -0.3663 -3.8455
  131OSM   C15S14137   6.951   1.000   7.801  0.2329  1.4404 -0.6223
  131OSM   H15S14138   6.847   1.031   7.778 -0.5369  0.3086  1.1007
  131OSM   H15T14139   7.010   1.092   7.823  1.0608  1.2262 -1.8561
  131OSM   C16S14140   6.950   0.912   7.932  0.0475  0.2731 -0.8489
  131OSM   H16S14141   7.055   0.893   7.961 -0.1982  0.6436  0.3503
  131OSM   H16T14142   6.892   0.819   7.911  0.3542  0.0098 -0.5272
  131OSM   C17S14143   6.883   0.983   8.054 -0.3735 -0.2604  0.6713
  131OSM   H17S14144   6.776   1.006   8.039  0.2635  1.7682 -1.3136
  131OSM   H17T14145   6.938   1.078   8.073  1.6167 -1.6337  2.1467
  131OSM   C18S14146   6.901   0.900   8.179  0.0190  0.3410 -0.3549
  131OSM   H18S14147   7.009   0.884   8.200 -0.2288 -0.1388  0.6212
  131OSM   H18T14148   6.868   0.795   8.165  0.0293 -0.0948  2.3360
  131OSM   H18U14149   6.851   0.945   8.267 -1.4440 -0.6661 -0.6257
  131OSM    C1F14150   6.703   1.221   6.377 -0.4714 -0.3738  0.6257
  131OSM     OF14151   6.658   1.162   6.279  0.3567 -0.0746 -0.5731
  131OSM    C2F14152   6.608   1.290   6.471 -0.1959  0.2540 -0.1769
  131OSM    H2F14153   6.635   1.397   6.478  0.8634 -0.0632  0.8806
  131OSM    H2G14154   6.620   1.236   6.568  0.1582 -0.3376 -0.5422
  131OSM    C3F14155   6.459   1.278   6.419 -0.1745  0.5860 -0.8908
  131OSM    H3F14156   6.433   1.171   6.435 -1.2571  1.1007  1.0936
  131OSM    H3G14157   6.460   1.311   6.313  0.9337 -0.5099 -1.2479
  131OSM    C4F14158   6.355   1.360   6.501 -0.1021  0.1627 -0.3966
  131OSM    H4F14159   6.265   1.346   6.436 -0.2652 -0.9571  0.0503
  131OSM    H4G14160   6.392   1.465   6.507  1.5143 -0.4648  1.6177
  131OSM    C5F14161   6.321   1.308   6.640 -0.5921  0.2949  0.8145
  131OSM    H5F14162   6.416   1.284   6.692 -0.5360 -1.2151  0.0588
  131OSM    H5G14163   6.270   1.210   6.631  1.0462 -0.5883  0.8776
  131OSM    C6F14164   6.238   1.401   6.723 -0.3037  0.6196 -0.0115
  131OSM    H6F14165   6.135   1.402   6.681 -0.5917 -1.3251  0.5391
  131OSM    H6G14166   6.275   1.503   6.703 -0.3578  0.8107  0.8429
  131OSM    C7F14167   6.247   1.369   6.870 -0.2206  0.4046  0.3546
  131OSM    H7F14168   6.355   1.383   6.892  0.0641 -0.8651 -0.1394
  131OSM    H7G14169   6.217   1.266   6.899 -2.3666  0.9864  0.3643
  131OSM    C8F14170   6.175   1.469   6.949  0.0820 -0.9926 -0.1114
  131OSM    H8F14171   6.205   1.570   6.916 -0.7109 -1.2127 -1.6254
  131OSM    H8G14172   6.210   1.464   7.054  1.9217 -2.3373 -0.7318
  131OSM    C9F14173   6.028   1.459   6.931  0.0556 -0.5302 -0.4784
  131OSM    H9F14174   5.989   1.486   6.832 -2.9030  0.7003  0.9141
  131OSM   C10F14175   5.944   1.409   7.025  0.7408 -0.2420 -0.0919
  131OSM   H10F14176   5.838   1.393   7.000  0.8535  0.1898 -0.8845
  131OSM   C11F14177   5.976   1.375   7.167  0.1938 -0.9742  0.1415
  131OSM   H11F14178   6.069   1.434   7.184 -1.0450  2.0259 -2.3515
  131OSM   H11G14179   5.979   1.264   7.168 -0.2345 -1.0002  1.9518
  131OSM   C12F14180   5.878   1.407   7.284 -0.5722  0.4370 -0.4646
  131OSM   H12F14181   5.905   1.509   7.320  1.0170 -0.3411  0.6734
  131OSM   H12G14182   5.901   1.341   7.370  2.3301  0.3974 -1.1744
  131OSM   C13F14183   5.729   1.406   7.243  0.1193  0.5734 -0.4683
  131OSM   H13F14184   5.696   1.303   7.217  3.0402 -0.2697 -1.2532
  131OSM   H13G14185   5.724   1.480   7.161 -0.2222  2.7266  1.4027
  131OSM   C14F14186   5.643   1.442   7.365  0.3044 -0.0134  0.0573
  131OSM   H14F14187   5.539   1.438   7.326 -0.8317 -0.4007  2.8664
  131OSM   H14G14188   5.668   1.541   7.410 -0.2956  0.2489 -0.1799
  131OSM   C15F14189   5.641   1.342   7.481 -0.3146 -0.6878  0.4778
  131OSM   H15F14190   5.746   1.315   7.506  0.2110 -1.2957 -2.1210
  131OSM   H15G14191   5.592   1.247   7.450  1.9226 -1.6464 -0.3167
  131OSM   C16F14192   5.579   1.403   7.607  0.7181 -0.0770 -0.8321
  131OSM   H16F14193   5.624   1.494   7.653 -0.5894 -0.0218  0.3868
  131OSM   H16G14194   5.599   1.327   7.685 -0.1308 -0.7541 -1.2558
  131OSM   C17F14195   5.430   1.437   7.596 -0.5345  0.6633 -0.3067
  131OSM   H17F14196   5.372   1.347   7.569  1.0893 -1.2826  2.2291
  131OSM   H17G14197   5.423   1.521   7.523  0.1924  1.4217  0.4608
  131OSM   C18F14198   5.361   1.471   7.725  0.2550 -0.4141  0.8740
  131OSM   H18F14199   5.254   1.498   7.708  0.4583  1.7424  2.4768
  131OSM   H18G14200   5.416   1.555   7.772 -0.2062  0.0529  0.5919
  131OSM   H18H14201   5.357   1.386   7.796 -0.3069  0.3469  1.7836
  132OSM      N14202   2.247   1.994   5.819  1.0132  0.2171 -0.6016
  132OSM    C1514203   2.364   1.904   5.846  0.3087  0.2205 -0.5535
  132OSM   H15A14204   2.451   1.949   5.801 -0.0970 -0.2835 -1.8856
  132OSM   H15B14205   2.354   1.807   5.799 -2.1785 -0.1803  0.6149
  132OSM   H15C14206   2.369   1.900   5.954  0.3870 -1.2661 -0.5912
  132OSM    C1414207   2.279   2.128   5.879 -0.1772  0.5180 -0.3311
  132OSM   H14A14208   2.192   2.192   5.864 -0.9244 -0.2578  0.5420
  132OSM   H14B14209   2.370   2.168   5.837  0.8328  0.7456  1.9312
  132OSM   H14C14210   2.286   2.107   5.985  1.6749 -0.9532 -0.7026
  132OSM    C1314211   2.248   2.015   5.670  0.3090  0.7799 -0.2817
  132OSM   H13A14212   2.184   2.099   5.646 -2.2353 -0.5731  1.2999
  132OSM   H13B14213   2.204   1.922   5.636  0.0733  0.3851  1.0108
  132OSM   H13C14214   2.348   2.017   5.630  0.2273  0.4546 -0.5081
  132OSM    C1214215   2.121   1.925   5.863 -0.2136 -0.3476 -0.1192
  132OSM   H12A14216   2.087   1.849   5.793  0.4293  0.7549 -1.6756
  132OSM   H12B14217   2.042   1.998   5.869 -0.0012 -0.0177 -1.2428
  132OSM    C1114218   2.128   1.844   5.999  0.3276 -0.5952 -0.1110
  132OSM   H11A14219   2.205   1.765   5.991  3.6612  2.4182 -0.2595
  132OSM   H11B14220   2.034   1.786   6.011  2.4152 -4.0949  0.7861
  132OSM      P14221   2.060   1.997   6.184 -0.4525 -0.4600 -0.8638
  132OSM    O1314222   2.111   2.139   6.206  0.0737 -0.4508  0.2356
  132OSM    O1414223   1.930   1.974   6.124  0.2145 -0.7024  0.1439
  132OSM    O1114224   2.042   1.917   6.328  0.1546  0.1785 -0.0350
  132OSM    O1214225   2.172   1.919   6.107  0.4763  0.1442 -0.4069
  132OSM    C1S14226   2.159   1.873   6.406 -0.7550 -0.4433 -0.3586
  132OSM    H1S14227   2.248   1.929   6.370 -2.1900  1.6519 -0.8162
  132OSM    H1T14228   2.162   1.762   6.407  0.7673 -0.4318  1.6445
  132OSM     NF14229   2.265   1.913   6.619  0.2196 -0.0277  0.0974
  132OSM    HNF14230   2.290   1.825   6.659  1.8369  0.3780  0.0419
  132OSM    C2S14231   2.136   1.918   6.555 -0.1405 -0.8409  0.3766
  132OSM    H2S14232   2.105   2.025   6.559  1.5961 -0.3302  1.2920
  132OSM    C3S14233   2.029   1.829   6.618 -0.2462 -0.2023  0.1238
  132OSM    H3S14234   2.082   1.731   6.618  1.2188  0.5602 -1.0661
  132OSM     O314235   1.899   1.829   6.555  0.1169  0.2521 -0.3689
  132OSM    HO314236   1.918   1.880   6.476 -0.4518 -0.4942 -1.0169
  132OSM    C4S14237   2.015   1.874   6.767 -0.3573 -0.3025  0.2893
  132OSM    H4S14238   2.024   1.983   6.782 -0.3181 -0.4497  1.4575
  132OSM    C5S14239   2.011   1.791   6.876 -0.1215 -0.6814 -0.3773
  132OSM    H5S14240   2.014   1.682   6.861 -1.2699 -0.8096  0.2175
  132OSM    C6S14241   2.005   1.832   7.013  0.2179 -0.2444  0.5708
  132OSM    H6S14242   1.972   1.749   7.078 -0.5557  0.7047  1.4341
  132OSM    H6T14243   1.930   1.912   7.035  2.1202  2.0954 -0.9313
  132OSM    C7S14244   2.135   1.888   7.067  0.3220 -0.3612 -0.0020
  132OSM    H7S14245   2.180   1.975   7.014 -1.7411  1.1033  0.5483
  132OSM    H7T14246   2.213   1.809   7.067  0.7322 -0.0074  1.6958
  132OSM    C8S14247   2.109   1.926   7.219 -0.2211 -0.1621 -0.6698
  132OSM    H8S14248   2.008   1.890   7.250  1.1825 -2.0595  2.1780
  132OSM    H8T14249   2.109   2.037   7.227  3.1874 -0.0815 -0.2747
  132OSM    C9S14250   2.215   1.871   7.319  0.1467  0.1259  0.0969
  132OSM    H9S14251   2.304   1.902   7.261 -1.5913 -0.5124 -3.1258
  132OSM    H9T14252   2.224   1.760   7.320  0.5352  0.1320  1.7689
  132OSM   C10S14253   2.186   1.922   7.462 -0.5376  0.2919 -0.1918
  132OSM   H10S14254   2.194   2.031   7.486 -0.6986 -0.1813  2.2852
  132OSM   H10T14255   2.269   1.874   7.518 -0.0014  2.7144  1.2724
  132OSM   C11S14256   2.042   1.865   7.509 -0.0939 -0.0194  0.4576
  132OSM   H11S14257   2.013   1.775   7.450 -1.1505  0.2371  0.5639
  132OSM   H11T14258   1.961   1.940   7.495  1.2093  1.2624 -0.3507
  132OSM   C12S14259   2.042   1.825   7.660 -0.6438 -0.7814 -0.6056
  132OSM   H12S14260   1.938   1.799   7.689 -0.2649 -3.6049 -1.5137
  132OSM   H12T14261   2.070   1.910   7.726  0.8991 -1.0944 -0.8198
  132OSM   C13S14262   2.140   1.713   7.700  0.4148  0.2884 -0.5497
  132OSM   H13S14263   2.249   1.726   7.681  0.3890  0.3179 -0.6798
  132OSM   H13T14264   2.103   1.626   7.641 -1.1204 -0.2869  1.1469
  132OSM   C14S14265   2.123   1.674   7.856 -0.2487  0.0133 -0.2782
  132OSM   H14S14266   2.018   1.672   7.892 -0.7934 -2.1892 -1.8080
  132OSM   H14T14267   2.161   1.758   7.918 -1.3038 -0.8624  1.6742
  132OSM   C15S14268   2.193   1.539   7.898 -0.3221 -0.3842 -0.3213
  132OSM   H15S14269   2.185   1.518   8.006  0.9716 -1.4183 -0.4065
  132OSM   H15T14270   2.302   1.538   7.876  0.1231  1.2554  1.5840
  132OSM   C16S14271   2.115   1.430   7.837  0.0687 -0.1628  0.0347
  132OSM   H16S14272   2.111   1.434   7.726  0.8622  0.2409  0.0122
  132OSM   H16T14273   2.009   1.435   7.868 -0.5759 -1.4943 -1.7898
  132OSM   C17S14274   2.172   1.285   7.877 -0.0985 -0.7067  0.2966
  132OSM   H17S14275   2.278   1.277   7.846 -1.0429 -0.5857 -3.3678
  132OSM   H17T14276   2.122   1.215   7.807  0.6527 -0.7033 -0.2581
  132OSM   C18S14277   2.138   1.249   8.021 -0.5468  0.4523  0.2141
  132OSM   H18S14278   2.181   1.317   8.097  0.3881 -2.1109  2.1120
  132OSM   H18T14279   2.183   1.151   8.047 -0.1396  0.9805  1.5479
  132OSM   H18U14280   2.028   1.255   8.033 -0.7462  0.6626 -1.4092
  132OSM    C1F14281   2.357   2.013   6.599  0.4350 -0.1665  0.1378
  132OSM     OF14282   2.318   2.127   6.573 -0.2106 -0.2502  0.4326
  132OSM    C2F14283   2.496   1.978   6.609  0.2872  0.8694  0.0834
  132OSM    H2F14284   2.561   2.059   6.570  0.8008 -0.3553 -1.7194
  132OSM    H2G14285   2.516   1.889   6.546 -1.1147  0.3522  0.3371
  132OSM    C3F14286   2.543   1.956   6.760 -0.0882  0.9005  0.1495
  132OSM    H3F14287   2.648   1.921   6.755 -0.1693  0.8388 -2.3612
  132OSM    H3G14288   2.477   1.878   6.804 -0.9330  1.2669 -0.4337
  132OSM    C4F14289   2.531   2.082   6.844  0.1353  0.1765  0.0397
  132OSM    H4F14290   2.431   2.126   6.828  1.3274  2.3176 -2.4167
  132OSM    H4G14291   2.607   2.151   6.800  2.5119 -3.5565 -2.2802
  132OSM    C5F14292   2.558   2.061   6.995 -0.2123  0.2080 -0.0819
  132OSM    H5F14293   2.485   1.993   7.045  1.3098  0.4723  2.6801
  132OSM    H5G14294   2.542   2.165   7.030  1.6420  0.0588  1.3746
  132OSM    C6F14295   2.701   2.012   7.021 -0.4846 -0.2870  0.5002
  132OSM    H6F14296   2.771   2.086   6.977 -0.9749  0.2906  0.6744
  132OSM    H6G14297   2.721   1.913   6.973 -0.0327 -0.3686  0.8471
  132OSM    C7F14298   2.733   2.001   7.168  0.0767 -0.3419  0.0019
  132OSM    H7F14299   2.842   1.983   7.182 -0.2712 -2.6888  0.0529
  132OSM    H7G14300   2.697   1.907   7.216  0.0017 -0.1958  0.2366
  132OSM    C8F14301   2.691   2.111   7.263  0.3440 -0.0757 -0.7243
  132OSM    H8F14302   2.583   2.133   7.276  0.7298  0.7433  1.5471
  132OSM    H8G14303   2.736   2.200   7.212 -1.9035  1.1813 -0.6196
  132OSM    C9F14304   2.750   2.100   7.401 -0.4847  0.1164  0.1196
  132OSM    H9F14305   2.860   2.102   7.394 -0.5634 -0.2041 -1.7410
  132OSM   C10F14306   2.687   2.096   7.518  0.3133  1.0988  0.4477
  132OSM   H10F14307   2.741   2.090   7.614  0.7929 -0.5064  0.1067
  132OSM   C11F14308   2.539   2.098   7.547  0.0287  0.0863  0.2881
  132OSM   H11F14309   2.508   1.997   7.582  0.2307 -0.7461 -1.8016
  132OSM   H11G14310   2.479   2.112   7.454 -1.2412  0.8618  1.1802
  132OSM   C12F14311   2.498   2.184   7.672 -0.1696 -1.1091 -0.6223
  132OSM   H12F14312   2.510   2.294   7.660  0.2845 -1.1084 -0.1867
  132OSM   H12G14313   2.569   2.161   7.755 -0.1984  1.2652  0.1350
  132OSM   C13F14314   2.350   2.167   7.704 -0.0980 -0.1634 -0.0202
  132OSM   H13F14315   2.340   2.057   7.714 -1.2973 -0.1364 -0.7663
  132OSM   H13G14316   2.299   2.221   7.622 -0.1457  1.9206  1.3218
  132OSM   C14F14317   2.298   2.242   7.835 -0.5816  0.0660 -0.0458
  132OSM   H14F14318   2.203   2.286   7.797 -0.6288  0.7242  0.8072
  132OSM   H14G14319   2.363   2.327   7.865 -0.6425 -0.7731  2.6963
  132OSM   C15F14320   2.277   2.150   7.953  0.0556  0.2302 -0.1622
  132OSM   H15F14321   2.375   2.108   7.986  0.4325  0.4951 -0.9170
  132OSM   H15G14322   2.234   2.057   7.912 -0.1339 -0.1853  0.9565
  132OSM   C16F14323   2.186   2.196   8.070  0.2600  0.0931  0.2591
  132OSM   H16F14324   2.089   2.214   8.019  1.3541 -0.2189 -2.0550
  132OSM   H16G14325   2.222   2.286   8.125 -3.1001  0.7750  1.5955
  132OSM   C17F14326   2.170   2.092   8.184  0.0585  0.5414  0.1871
  132OSM   H17F14327   2.142   1.993   8.142  0.5766  0.8009 -0.7994
  132OSM   H17G14328   2.090   2.123   8.255 -0.7598  0.2258 -0.5803
  132OSM   C18F14329   2.297   2.058   8.265  0.0191 -0.2571 -0.6744
  132OSM   H18F14330   2.265   1.972   8.328 -0.9522  0.8091  0.3279
  132OSM   H18G14331   2.319   2.139   8.337  0.5452 -1.7523  0.9367
  132OSM   H18H14332   2.389   2.047   8.204  1.3206  1.6253  0.8293
  133OSM      N14333   0.436   3.629   6.240  0.5108 -0.1037 -0.3052
  133OSM    C1514334   0.454   3.490   6.204 -0.7131  0.5881 -0.1671
  133OSM   H15A14335   0.555   3.461   6.229 -1.0441  0.1689  0.7384
  133OSM   H15B14336   0.434   3.479   6.098  1.4141 -0.6926 -0.5070
  133OSM   H15C14337   0.389   3.426   6.262  0.5949 -1.4487 -0.8481
  133OSM    C1414338   0.541   3.711   6.159 -0.3033 -0.7361  0.1884
  133OSM   H14A14339   0.505   3.811   6.179 -1.4668 -1.2538  0.7918
  133OSM   H14B14340   0.541   3.689   6.054 -1.1885 -0.3258  0.0963
  133OSM   H14C14341   0.639   3.692   6.199  0.2001  1.1952 -0.0231
  133OSM    C1314342   0.294   3.669   6.210  0.2213  0.3594  0.3830
  133OSM   H13A14343   0.283   3.769   6.251 -1.0105  0.3177  0.1844
  133OSM   H13B14344   0.219   3.601   6.246  0.4122  0.3820  0.8269
  133OSM   H13C14345   0.284   3.686   6.104 -1.3296 -0.6722  0.3361
  133OSM    C1214346   0.458   3.645   6.389  1.0274  0.4129 -0.3006
  133OSM   H12A14347   0.376   3.600   6.443  1.2531 -1.4462 -1.3866
  133OSM   H12B14348   0.467   3.749   6.416  1.5640  0.6096 -1.1885
  133OSM    C1114349   0.587   3.587   6.449 -0.5511 -0.0252  0.4507
  133OSM   H11A14350   0.610   3.479   6.432 -0.4105  0.0817 -0.0365
  133OSM   H11B14351   0.572   3.592   6.559 -0.4937  0.0953  0.4533
  133OSM      P14352   0.735   3.820   6.454 -0.1807 -0.0949 -0.1964
  133OSM    O1314353   0.836   3.867   6.360 -0.3638  0.4415 -0.3121
  133OSM    O1414354   0.614   3.901   6.478 -0.1061 -0.7402  0.3315
  133OSM    O1114355   0.810   3.791   6.588 -0.2657  0.1029  0.5116
  133OSM    O1214356   0.691   3.669   6.403 -0.6181  0.0317 -0.4641
  133OSM    C1S14357   0.915   3.694   6.602 -0.1594 -0.9738  0.4083
  133OSM    H1S14358   1.011   3.737   6.566 -0.4758 -0.9652 -0.4732
  133OSM    H1T14359   0.889   3.601   6.547 -2.7245  0.1057 -0.3356
  133OSM     NF14360   1.063   3.582   6.758  0.3648  0.4243 -0.5247
  133OSM    HNF14361   1.066   3.483   6.762 -0.0259  0.4143 -0.4004
  133OSM    C2S14362   0.929   3.647   6.745  1.0503  0.0159  0.0871
  133OSM    H2S14363   0.923   3.734   6.815 -2.2169  3.0447 -3.4555
  133OSM    C3S14364   0.821   3.548   6.790 -0.5328 -0.5101  0.2974
  133OSM    H3S14365   0.806   3.471   6.712 -1.2191 -0.2789  0.1943
  133OSM     O314366   0.696   3.607   6.794  0.5682 -0.1312 -0.2134
  133OSM    HO314367   0.706   3.688   6.743  1.2668  1.0768  1.7103
  133OSM    C4S14368   0.846   3.489   6.919  0.1427  0.3774 -0.3115
  133OSM    H4S14369   0.831   3.555   7.007 -1.6703  0.5361 -0.7000
  133OSM    C5S14370   0.869   3.360   6.949 -0.3312  0.0763  0.4235
  133OSM    H5S14371   0.863   3.278   6.875 -1.0345 -1.3710  2.0122
  133OSM    C6S14372   0.883   3.304   7.088  0.1212  0.7580 -0.6923
  133OSM    H6S14373   0.992   3.284   7.100  0.1100 -0.9797 -2.9730
  133OSM    H6T14374   0.829   3.208   7.102  1.5507 -0.2995 -2.1057
  133OSM    C7S14375   0.849   3.390   7.215 -0.2591 -0.6793  0.2429
  133OSM    H7S14376   0.742   3.420   7.212  0.6722  3.1002 -0.0267
  133OSM    H7T14377   0.905   3.484   7.232 -2.7532  0.8348  0.5607
  133OSM    C8S14378   0.877   3.295   7.334 -0.3427  0.2389  1.0042
  133OSM    H8S14379   0.984   3.269   7.327 -0.3684  0.3524  0.0525
  133OSM    H8T14380   0.824   3.201   7.309 -0.6513  0.8652 -0.9100
  133OSM    C9S14381   0.853   3.350   7.472 -0.6080  0.2834  0.2418
  133OSM    H9S14382   0.746   3.327   7.492 -0.6108 -0.5769 -0.6891
  133OSM    H9T14383   0.872   3.459   7.463 -2.7137  0.8068  1.5677
  133OSM   C10S14384   0.923   3.278   7.583 -0.0038 -0.6844 -0.2033
  133OSM   H10S14385   1.032   3.281   7.561  0.8134  3.1978  3.1802
  133OSM   H10T14386   0.904   3.169   7.591 -1.1148 -0.3359  3.4149
  133OSM   C11S14387   0.898   3.347   7.721  0.0997  0.2828  0.5504
  133OSM   H11S14388   0.924   3.455   7.709  4.2298 -0.5240  0.5861
  133OSM   H11T14389   0.967   3.316   7.802  0.9027 -0.5492 -0.4083
  133OSM   C12S14390   0.755   3.321   7.783 -0.4061 -0.2195  0.0496
  133OSM   H12S14391   0.752   3.210   7.791 -2.2972 -0.1799  0.4972
  133OSM   H12T14392   0.675   3.353   7.713 -0.8149  0.4628  0.8076
  133OSM   C13S14393   0.738   3.388   7.922 -0.1738  0.1110  0.6485
  133OSM   H13S14394   0.629   3.405   7.934 -0.3609  0.0687 -0.7504
  133OSM   H13T14395   0.770   3.494   7.912 -1.4654  0.5169  0.6526
  133OSM   C14S14396   0.815   3.323   8.035 -0.0426 -0.3775 -0.6214
  133OSM   H14S14397   0.923   3.326   8.008  0.4804  2.7591  1.3069
  133OSM   H14T14398   0.789   3.216   8.049 -0.7983  0.0211  1.4105
  133OSM   C15S14399   0.808   3.407   8.159 -0.1841  0.3042 -0.9652
  133OSM   H15S14400   0.842   3.504   8.119  1.8944  0.0316  0.0094
  133OSM   H15T14401   0.881   3.379   8.238  1.1299 -0.1954 -2.3282
  133OSM   C16S14402   0.662   3.413   8.220  0.2418 -0.8680  0.6311
  133OSM   H16S14403   0.643   3.305   8.241  0.3318 -1.1724 -0.7696
  133OSM   H16T14404   0.586   3.439   8.143  1.5046 -1.8113 -0.9933
  133OSM   C17S14405   0.652   3.502   8.348 -0.7252 -0.0759  0.1677
  133OSM   H17S14406   0.678   3.603   8.309 -1.3914  0.9482  2.2631
  133OSM   H17T14407   0.732   3.473   8.420  0.0290 -0.0513 -0.6463
  133OSM   C18S14408   0.522   3.505   8.415 -0.3172  0.2175 -0.0680
  133OSM   H18S14409   0.493   3.431   8.492 -3.5324  0.8425 -0.5103
  133OSM   H18T14410   0.442   3.484   8.339 -0.0698  0.5065 -0.4097
  133OSM   H18U14411   0.508   3.604   8.462  1.4447  0.6076 -0.3127
  133OSM    C1F14412   1.178   3.653   6.770  0.5049  0.2192  0.4632
  133OSM     OF14413   1.170   3.773   6.783  0.6876 -0.0402 -0.2864
  133OSM    C2F14414   1.312   3.588   6.779 -0.0581  0.4158  0.8336
  133OSM    H2F14415   1.397   3.657   6.760  0.3694 -0.1451  0.6558
  133OSM    H2G14416   1.323   3.523   6.689 -1.3303  1.7619 -0.3463
  133OSM    C3F14417   1.351   3.508   6.907 -0.2321  1.0766  0.7097
  133OSM    H3F14418   1.447   3.452   6.912 -2.2104 -2.5326  1.9085
  133OSM    H3G14419   1.287   3.417   6.909  1.5662 -0.4026 -2.0594
  133OSM    C4F14420   1.333   3.583   7.036  0.9051  0.6880 -0.7056
  133OSM    H4F14421   1.236   3.637   7.044 -0.4366 -1.5709 -0.9261
  133OSM    H4G14422   1.411   3.662   7.044  1.1053  0.3764  0.5494
  133OSM    C5F14423   1.355   3.492   7.159  0.2723  0.2489 -0.0817
  133OSM    H5F14424   1.465   3.487   7.168  0.2542  2.3435  2.2437
  133OSM    H5G14425   1.316   3.389   7.144  1.3131  0.0121 -1.3884
  133OSM    C6F14426   1.308   3.560   7.293  0.3561 -0.6854 -0.3791
  133OSM    H6F14427   1.198   3.567   7.281  0.3888 -1.6055 -1.3737
  133OSM    H6G14428   1.348   3.663   7.303  1.0885 -0.8408 -1.4442
  133OSM    C7F14429   1.339   3.491   7.430 -0.4096  0.0092  0.4483
  133OSM    H7F14430   1.433   3.519   7.480 -1.3530  0.7060  1.8922
  133OSM    H7G14431   1.312   3.384   7.417 -2.0922  0.5178 -0.6957
  133OSM    C8F14432   1.230   3.528   7.531  0.4533  0.6557 -0.4556
  133OSM    H8F14433   1.135   3.510   7.476  1.1298 -1.7482 -0.9458
  133OSM    H8G14434   1.238   3.639   7.542  1.0568  0.8453 -2.3937
  133OSM    C9F14435   1.235   3.447   7.662  0.3184  0.0455 -0.4126
  133OSM    H9F14436   1.215   3.339   7.651  0.3152 -0.1271  1.1522
  133OSM   C10F14437   1.280   3.488   7.787 -0.6545 -1.0449  0.1141
  133OSM   H10F14438   1.273   3.430   7.880 -2.5545  1.7160  1.8140
  133OSM   C11F14439   1.327   3.626   7.813 -0.4287  0.2933  0.4703
  133OSM   H11F14440   1.249   3.677   7.874 -1.7218  0.7754 -1.4767
  133OSM   H11G14441   1.333   3.689   7.722 -1.7000  0.7701  0.6925
  133OSM   C12F14442   1.473   3.625   7.868 -0.5136  0.2044  0.4654
  133OSM   H12F14443   1.489   3.734   7.881 -1.0302  0.3735 -0.2676
  133OSM   H12G14444   1.541   3.590   7.788  0.1996  0.1332  1.0863
  133OSM   C13F14445   1.483   3.551   7.996  0.3173 -0.9523  0.7697
  133OSM   H13F14446   1.493   3.441   7.983  1.0811 -0.9966  1.6342
  133OSM   H13G14447   1.390   3.583   8.047 -1.1156 -1.0833 -1.5962
  133OSM   C14F14448   1.609   3.601   8.078 -0.0330  0.0113 -0.4311
  133OSM   H14F14449   1.590   3.709   8.099  0.5665 -0.4629  3.0402
  133OSM   H14G14450   1.708   3.595   8.028  0.4587  1.2598  0.3584
  133OSM   C15F14451   1.631   3.524   8.207  0.3119  0.3747  0.4991
  133OSM   H15F14452   1.718   3.566   8.261  0.7003 -2.6777  2.5376
  133OSM   H15G14453   1.664   3.419   8.190  1.1982  1.0979 -3.0738
  133OSM   C16F14454   1.514   3.509   8.296 -0.0839  0.0916  0.1603
  133OSM   H16F14455   1.421   3.485   8.240  0.8051  0.5100 -1.5428
  133OSM   H16G14456   1.492   3.609   8.340  0.4311  1.4369 -2.4267
  133OSM   C17F14457   1.525   3.414   8.421  0.5173  0.2303  0.8890
  133OSM   H17F14458   1.536   3.315   8.371  0.1437 -0.3075  1.8508
  133OSM   H17G14459   1.429   3.427   8.476  0.0997 -0.2015  0.2751
  133OSM   C18F14460   1.639   3.456   8.503 -0.0679 -0.6525 -0.0710
  133OSM   H18F14461   1.626   3.562   8.536 -0.0003 -0.4011 -0.8314
  133OSM   H18G14462   1.739   3.441   8.458  0.0980 -1.0411  0.4174
  133OSM   H18H14463   1.648   3.404   8.601 -0.4542  1.6724  1.2808
  134OSM      N14464   2.172   4.931   6.109  0.5753 -0.4183  0.5544
  134OSM    C1514465   2.124   4.830   6.008  0.2690  0.2492 -0.1468
  134OSM   H15A14466   2.075   4.878   5.924 -0.4343  0.5168  0.4017
  134OSM   H15B14467   2.042   4.768   6.041  1.2473 -0.1671  1.5917
  134OSM   H15C14468   2.205   4.773   5.965  1.1537 -0.6036  2.5012
  134OSM    C1414469   2.311   4.961   6.069 -0.6071  0.7908 -0.0875
  134OSM   H14A14470   2.361   5.026   6.139  1.9722 -1.9138  0.8097
  134OSM   H14B14471   2.314   5.008   5.972 -3.1121 -0.5592 -0.9080
  134OSM   H14C14472   2.371   4.872   6.056 -0.5847  0.5503  1.4719
  134OSM    C1314473   2.098   5.062   6.096  0.1456 -0.0131 -0.2904
  134OSM   H13A14474   2.080   5.097   5.995  0.4768  2.9698  0.5767
  134OSM   H13B14475   2.163   5.137   6.138  0.1775 -0.0876 -0.2082
  134OSM   H13C14476   2.001   5.066   6.143  0.5620  2.0875  0.5085
  134OSM    C1214477   2.170   4.889   6.256 -0.2241  0.4007 -0.4595
  134OSM   H12A14478   2.242   4.811   6.277  0.9426  1.6286  0.2704
  134OSM   H12B14479   2.074   4.853   6.290  0.3438  0.9284  1.8805
  134OSM    C1114480   2.213   4.995   6.356 -0.2064  0.2705  0.6819
  134OSM   H11A14481   2.164   4.969   6.453  1.5471  1.6478  2.0005
  134OSM   H11B14482   2.174   5.097   6.334  1.5272  0.5536 -1.3654
  134OSM      P14483   2.444   4.894   6.442 -0.0347  0.4880 -0.3412
  134OSM    O1314484   2.454   4.763   6.362  0.1474  0.0148  0.5274
  134OSM    O1414485   2.569   4.946   6.492 -0.1364  0.2801  0.9153
  134OSM    O1114486   2.349   4.857   6.568  0.3117 -0.4295  0.1524
  134OSM    O1214487   2.362   5.000   6.369  0.0200 -0.1892  0.4561
  134OSM    C1S14488   2.394   4.901   6.697 -0.6757 -0.2661 -0.1599
  134OSM    H1S14489   2.370   5.008   6.716 -1.5829 -0.9254  3.1793
  134OSM    H1T14490   2.505   4.892   6.698 -0.5499  0.9431 -1.0872
  134OSM     NF14491   2.407   4.865   6.940 -0.1443 -0.2219 -0.6448
  134OSM    HNF14492   2.494   4.822   6.964  0.4650  0.0525 -2.2288
  134OSM    C2S14493   2.330   4.826   6.826  0.1507 -0.7228  0.6096
  134OSM    H2S14494   2.227   4.866   6.837  0.1454  0.1398 -1.8031
  134OSM    C3S14495   2.320   4.672   6.798 -0.8364  0.4600 -0.2707
  134OSM    H3S14496   2.422   4.639   6.767 -1.4339 -2.6332  0.7112
  134OSM     O314497   2.235   4.634   6.692  0.2403  0.0134  0.4761
  134OSM    HO314498   2.208   4.719   6.655  0.6233  0.6137  1.5225
  134OSM    C4S14499   2.279   4.597   6.924  0.2020  0.0109 -0.4944
  134OSM    H4S14500   2.222   4.664   6.991 -0.7643  0.1641 -1.4270
  134OSM    C5S14501   2.284   4.464   6.954  0.2110  0.3806 -0.1586
  134OSM    H5S14502   2.337   4.390   6.893 -0.0736 -1.2337  1.4757
  134OSM    C6S14503   2.225   4.395   7.075 -0.7510 -0.2983 -0.7059
  134OSM    H6S14504   2.166   4.308   7.039 -1.8832  0.8143 -1.6063
  134OSM    H6T14505   2.154   4.466   7.122  1.7021  0.9775  1.3679
  134OSM    C7S14506   2.318   4.346   7.187 -0.3167 -0.1078 -0.4965
  134OSM    H7S14507   2.364   4.257   7.140 -0.0791  0.2971 -1.0390
  134OSM    H7T14508   2.259   4.314   7.276 -1.2060 -0.9052 -1.3393
  134OSM    C8S14509   2.424   4.435   7.257  0.3798  0.8468 -0.5023
  134OSM    H8S14510   2.481   4.486   7.177  1.3934 -1.5533 -1.4206
  134OSM    H8T14511   2.504   4.371   7.300 -1.9361 -3.1259 -1.5436
  134OSM    C9S14512   2.378   4.514   7.379  0.4530  0.2935 -0.4230
  134OSM    H9S14513   2.346   4.446   7.461 -0.7075 -0.3712 -1.3734
  134OSM    H9T14514   2.292   4.579   7.351 -1.3135 -0.0138  3.5744
  134OSM   C10S14515   2.495   4.607   7.426  0.4586  0.3546 -0.3369
  134OSM   H10S14516   2.516   4.680   7.344 -1.5585  1.0898 -0.2531
  134OSM   H10T14517   2.591   4.552   7.437  1.3864  2.1226  0.7802
  134OSM   C11S14518   2.447   4.680   7.550  0.1477 -0.6751 -0.1606
  134OSM   H11S14519   2.429   4.602   7.628  0.1313  1.5759  2.2526
  134OSM   H11T14520   2.350   4.728   7.524 -0.0717 -0.8339  0.3330
  134OSM   C12S14521   2.549   4.772   7.606 -0.4460 -0.5509 -0.2546
  134OSM   H12S14522   2.558   4.847   7.525  0.3564 -1.5112 -1.0728
  134OSM   H12T14523   2.647   4.723   7.621 -0.1459  0.0049 -0.3863
  134OSM   C13S14524   2.519   4.837   7.740  0.0856 -0.2694 -0.0120
  134OSM   H13S14525   2.420   4.888   7.739 -0.3121 -0.9653  1.3891
  134OSM   H13T14526   2.587   4.922   7.761 -0.3212  0.2824 -0.8592
  134OSM   C14S14527   2.512   4.743   7.862 -0.0223 -0.1141  0.5195
  134OSM   H14S14528   2.610   4.701   7.892  0.0162 -0.3036  0.1381
  134OSM   H14T14529   2.437   4.666   7.832 -0.6969  1.1628 -1.2896
  134OSM   C15S14530   2.446   4.809   7.987  0.3706 -0.1013  0.0558
  134OSM   H15S14531   2.351   4.857   7.954 -0.3641 -2.2158 -1.1268
  134OSM   H15T14532   2.515   4.894   8.008 -0.3122  1.3400 -2.8983
  134OSM   C16S14533   2.423   4.719   8.106  0.5269 -0.2871 -0.8898
  134OSM   H16S14534   2.502   4.640   8.108 -1.1265 -2.0259  1.1994
  134OSM   H16T14535   2.325   4.667   8.108  0.2647 -0.2146 -4.7168
  134OSM   C17S14536   2.443   4.800   8.238 -0.7561  0.2231  0.1086
  134OSM   H17S14537   2.536   4.860   8.231 -0.9887  0.6479  0.5634
  134OSM   H17T14538   2.459   4.736   8.327 -0.1604  0.9881  0.5663
  134OSM   C18S14539   2.320   4.890   8.268 -0.2088 -0.0878 -0.1631
  134OSM   H18S14540   2.226   4.833   8.259  0.7258 -1.5478 -1.0731
  134OSM   H18T14541   2.322   4.978   8.200  0.8738 -0.4375 -0.6157
  134OSM   H18U14542   2.342   4.934   8.367  2.2019 -0.1817 -0.5909
  134OSM    C1F14543   2.403   4.985   7.004  0.5359  0.2342  0.2779
  134OSM     OF14544   2.327   5.073   6.968 -0.2610  1.0307 -0.3624
  134OSM    C2F14545   2.499   5.006   7.115 -0.0691 -0.0960  0.3137
  134OSM    H2F14546   2.594   5.047   7.074 -1.9590  1.4726 -2.8870
  134OSM    H2G14547   2.517   4.907   7.161  1.2053 -0.4903 -0.9324
  134OSM    C3F14548   2.452   5.111   7.221 -0.4300  0.4082  0.0833
  134OSM    H3F14549   2.409   5.199   7.168  0.0673  0.4902 -0.1956
  134OSM    H3G14550   2.543   5.141   7.279 -0.5651  0.3074  0.3488
  134OSM    C4F14551   2.350   5.054   7.315  0.2540  0.3038 -0.1241
  134OSM    H4F14552   2.388   4.966   7.372  1.0841  1.1759  0.7143
  134OSM    H4G14553   2.261   5.019   7.258  0.1270 -1.8817  1.2950
  134OSM    C5F14554   2.301   5.152   7.420  0.0110  0.6078  1.0472
  134OSM    H5F14555   2.196   5.133   7.451  0.6861 -3.0808  1.5202
  134OSM    H5G14556   2.302   5.258   7.385 -1.2579  0.6923  1.2398
  134OSM    C6F14557   2.386   5.143   7.546  0.1315 -0.3209 -0.4113
  134OSM    H6F14558   2.489   5.176   7.518 -1.3746  2.5005 -3.2378
  134OSM    H6G14559   2.389   5.038   7.583 -1.3121 -0.1845  0.1448
  134OSM    C7F14560   2.331   5.237   7.652  0.4465 -0.4792 -0.6454
  134OSM    H7F14561   2.229   5.207   7.683  0.7097 -1.0154 -0.2718
  134OSM    H7G14562   2.322   5.338   7.606 -3.6627  0.7761  2.3488
  134OSM    C8F14563   2.426   5.252   7.779  1.6288  0.0344 -0.2612
  134OSM    H8F14564   2.530   5.241   7.740  1.2094 -0.6450 -1.2517
  134OSM    H8G14565   2.397   5.162   7.837 -3.8136  0.9212 -1.1314
  134OSM    C9F14566   2.401   5.386   7.852  0.3043  0.6089  0.4918
  134OSM    H9F14567   2.462   5.472   7.821 -1.9296  1.5559 -1.6169
  134OSM   C10F14568   2.322   5.401   7.959 -0.1111  0.0148  1.0018
  134OSM   H10F14569   2.323   5.501   8.005 -1.0479  0.6794 -0.3607
  134OSM   C11F14570   2.250   5.287   8.028  0.0301 -0.3024 -0.6279
  134OSM   H11F14571   2.327   5.214   8.059  2.0017  1.3757 -1.3372
  134OSM   H11G14572   2.186   5.230   7.957  0.3737 -0.9980 -0.3895
  134OSM   C12F14573   2.154   5.333   8.143  0.2310  0.7427 -0.1288
  134OSM   H12F14574   2.055   5.366   8.103  0.9131  0.0664 -2.5868
  134OSM   H12G14575   2.207   5.413   8.197 -0.8540  1.1998  0.2878
  134OSM   C13F14576   2.122   5.212   8.239 -0.6926 -0.1552  0.1097
  134OSM   H13F14577   2.211   5.200   8.304 -1.3146 -1.1769  0.7899
  134OSM   H13G14578   2.111   5.114   8.188 -0.5211 -0.1828  0.1247
  134OSM   C14F14579   2.008   5.242   8.339 -0.0942  0.1119  0.2182
  134OSM   H14F14580   1.922   5.269   8.274  0.8405  1.0898 -0.6571
  134OSM   H14G14581   2.040   5.323   8.408  0.4223  1.5522 -1.6388
  134OSM   C15F14582   1.999   5.113   8.430  0.7257 -0.1824  0.0006
  134OSM   H15F14583   2.098   5.096   8.479  0.4559 -0.5719  0.4112
  134OSM   H15G14584   1.965   5.028   8.368  1.2006  1.2702 -2.3982
  134OSM   C16F14585   1.888   5.138   8.540 -0.0534  0.0136 -0.4705
  134OSM   H16F14586   1.796   5.143   8.478  0.5732  1.5239 -1.3299
  134OSM   H16G14587   1.899   5.231   8.600 -0.6159 -0.3801  0.2729
  134OSM   C17F14588   1.885   5.022   8.639 -0.4329 -0.6018  0.0817
  134OSM   H17F14589   1.808   5.043   8.716 -1.6776 -0.3514 -1.1915
  134OSM   H17G14590   1.985   5.026   8.687  0.8149 -1.0534 -2.3170
  134OSM   C18F14591   1.862   4.882   8.581 -0.4092 -0.1211  0.0554
  134OSM   H18F14592   1.816   4.817   8.658  0.8990 -1.3127 -0.1458
  134OSM   H18G14593   1.955   4.839   8.537 -0.4577  0.4973 -0.6658
  134OSM   H18H14594   1.795   4.892   8.493  0.7324  2.2373 -0.6387
  135OSM      N14595   2.175   5.846   6.305 -0.1894 -0.1929 -0.0652
  135OSM    C1514596   2.298   5.771   6.257  0.0933 -0.8766 -0.2599
  135OSM   H15A14597   2.279   5.708   6.172  1.6881 -1.6336 -0.0934
  135OSM   H15B14598   2.330   5.703   6.334 -1.1340 -1.6779 -0.4293
  135OSM   H15C14599   2.383   5.835   6.240 -0.3579 -0.5947 -1.5298
  135OSM    C1414600   2.209   5.948   6.405 -0.4929  0.0001 -0.1698
  135OSM   H14A14601   2.128   6.019   6.406 -2.8408 -2.5195 -0.5645
  135OSM   H14B14602   2.294   6.009   6.379 -0.1319 -0.5874 -0.3759
  135OSM   H14C14603   2.225   5.903   6.502 -2.9987 -1.1306 -0.2172
  135OSM    C1314604   2.116   5.923   6.194 -0.3302 -0.2573 -0.5148
  135OSM   H13A14605   2.191   5.989   6.151  1.7216 -1.2066  1.3594
  135OSM   H13B14606   2.030   5.978   6.228 -0.1627 -0.7789  0.8273
  135OSM   H13C14607   2.092   5.856   6.114  0.7682 -1.0265 -0.2273
  135OSM    C1214608   2.071   5.743   6.357 -0.1954 -1.0345  0.1949
  135OSM   H12A14609   2.065   5.677   6.272 -2.0721 -0.0424 -0.4928
  135OSM   H12B14610   1.975   5.788   6.377 -0.2267  0.3871 -2.5952
  135OSM    C1114611   2.112   5.659   6.489  0.0587 -0.8832  0.1752
  135OSM   H11A14612   2.023   5.612   6.538  0.0347  0.6077  1.6592
  135OSM   H11B14613   2.153   5.730   6.564 -0.2345 -0.0938 -0.3963
  135OSM      P14614   2.179   5.437   6.374  0.4524 -0.3318  0.2929
  135OSM    O1314615   2.057   5.466   6.294 -0.5939 -0.0150  0.4355
  135OSM    O1414616   2.298   5.397   6.291  0.4906  0.5115 -0.2220
  135OSM    O1114617   2.158   5.326   6.491 -0.4528 -0.0394 -0.1198
  135OSM    O1214618   2.217   5.566   6.461 -0.0244  0.0080  0.4840
  135OSM    C1S14619   2.270   5.267   6.559  0.3593 -0.1938 -0.1613
  135OSM    H1S14620   2.363   5.284   6.500 -1.1391  0.7506 -2.3892
  135OSM    H1T14621   2.248   5.159   6.567 -0.4138 -0.2049 -2.0364
  135OSM     NF14622   2.407   5.266   6.768 -0.1290  0.1620  0.0892
  135OSM    HNF14623   2.382   5.199   6.838  0.8579  0.4630  0.7498
  135OSM    C2S14624   2.289   5.316   6.707  0.6138 -0.4364  0.2113
  135OSM    H2S14625   2.297   5.426   6.688  1.8823 -0.9058 -2.3913
  135OSM    C3S14626   2.159   5.280   6.793 -0.4279 -0.3322  0.2528
  135OSM    H3S14627   2.150   5.169   6.793  0.8810 -0.4871 -1.6848
  135OSM     O314628   2.040   5.318   6.722 -0.0884 -0.1980  0.0209
  135OSM    HO314629   2.073   5.341   6.635  1.1961  0.9721  0.7765
  135OSM    C4S14630   2.165   5.346   6.929 -0.1322 -0.9515 -0.3770
  135OSM    H4S14631   2.226   5.289   7.000 -1.0825  1.7977  2.8944
  135OSM    C5S14632   2.108   5.460   6.968  0.3877 -0.1720 -0.6405
  135OSM    H5S14633   2.033   5.505   6.901 -0.0132  0.0793 -0.0271
  135OSM    C6S14634   2.124   5.531   7.105 -0.3195  0.7980 -0.1834
  135OSM    H6S14635   2.029   5.534   7.161  0.0097 -4.6409  1.1567
  135OSM    H6T14636   2.166   5.634   7.091  2.1639  0.1312  1.6456
  135OSM    C7S14637   2.214   5.461   7.202 -0.1222  0.5340  0.0389
  135OSM    H7S14638   2.311   5.437   7.155  0.6697  0.6704  1.5244
  135OSM    H7T14639   2.161   5.369   7.235 -2.6815  2.3075  1.2139
  135OSM    C8S14640   2.250   5.539   7.335  0.2701 -0.2624 -0.4655
  135OSM    H8S14641   2.260   5.648   7.316 -2.6862  0.6535  2.2384
  135OSM    H8T14642   2.343   5.497   7.380  0.3810  0.1115 -0.3413
  135OSM    C9S14643   2.140   5.520   7.443  0.4724 -0.0188 -0.1773
  135OSM    H9S14644   2.140   5.410   7.457  0.6136 -0.0587 -0.4648
  135OSM    H9T14645   2.040   5.553   7.409  0.2571  2.1862  2.3525
  135OSM   C10S14646   2.162   5.612   7.566  0.2809  0.2560  0.2306
  135OSM   H10S14647   2.145   5.718   7.539  2.6114  0.5197 -0.4007
  135OSM   H10T14648   2.261   5.590   7.611 -0.1833  0.4058  1.3836
  135OSM   C11S14649   2.058   5.591   7.679 -0.6184  0.6618 -0.3279
  135OSM   H11S14650   2.081   5.486   7.708 -2.5293  0.7596  1.8437
  135OSM   H11T14651   1.949   5.594   7.658 -1.0485 -2.6874  0.8139
  135OSM   C12S14652   2.082   5.679   7.802 -0.0974 -0.1473 -0.2018
  135OSM   H12S14653   2.040   5.779   7.775  0.5680 -0.3630 -2.1907
  135OSM   H12T14654   2.191   5.693   7.817 -0.2240  0.8408 -0.0723
  135OSM   C13S14655   2.008   5.633   7.924  0.2418  0.4608  1.0501
  135OSM   H13S14656   2.034   5.525   7.937 -2.9904 -0.4042  1.2925
  135OSM   H13T14657   1.897   5.629   7.914  0.4833 -0.9567 -2.5969
  135OSM   C14S14658   2.056   5.704   8.054 -0.3724  0.0990  0.0806
  135OSM   H14S14659   2.065   5.815   8.044 -0.6234  0.4344  2.8798
  135OSM   H14T14660   2.156   5.668   8.085  0.2052  1.2120 -0.4235
  135OSM   C15S14661   1.962   5.672   8.175 -0.1297  0.0184 -0.1657
  135OSM   H15S14662   1.960   5.564   8.198 -0.4049  0.3891  1.7868
  135OSM   H15T14663   1.862   5.719   8.162  0.5139  1.5839  0.1956
  135OSM   C16S14664   2.023   5.732   8.303 -0.0435  0.5712  0.2364
  135OSM   H16S14665   2.030   5.839   8.276 -4.4062  1.3992  1.5720
  135OSM   H16T14666   2.124   5.689   8.319 -0.7895 -0.4142  2.6825
  135OSM   C17S14667   1.943   5.721   8.429 -0.4247 -0.3421 -0.5290
  135OSM   H17S14668   1.941   5.619   8.473  0.7464  1.0171  3.0607
  135OSM   H17T14669   1.838   5.740   8.398 -0.8667 -2.8765 -0.7980
  135OSM   C18S14670   1.977   5.818   8.539  0.2886  0.6245 -0.2989
  135OSM   H18S14671   2.074   5.785   8.584  0.6807  1.9230 -0.1337
  135OSM   H18T14672   1.900   5.817   8.619 -0.2929 -0.0553 -0.8513
  135OSM   H18U14673   1.995   5.925   8.514 -0.8269  1.1664  1.0320
  135OSM    C1F14674   2.535   5.314   6.735  0.4903  0.5774  0.3082
  135OSM     OF14675   2.552   5.382   6.634 -0.1578 -0.3009  0.4100
  135OSM    C2F14676   2.649   5.269   6.828 -0.2843 -0.2979 -0.3330
  135OSM    H2F14677   2.719   5.209   6.766  1.0235 -0.5063  1.2878
  135OSM    H2G14678   2.610   5.216   6.917 -0.8745  2.3205  1.0771
  135OSM    C3F14679   2.740   5.388   6.867  0.2707  0.6230  0.6679
  135OSM    H3F14680   2.801   5.412   6.777 -1.1711  1.4541 -0.1327
  135OSM    H3G14681   2.809   5.348   6.944  1.4185  1.3464  0.0418
  135OSM    C4F14682   2.672   5.508   6.929 -0.0330  0.1023 -0.4009
  135OSM    H4F14683   2.611   5.567   6.857 -1.4222  1.2945  1.6628
  135OSM    H4G14684   2.756   5.574   6.960 -1.9980  2.4897  0.1430
  135OSM    C5F14685   2.592   5.474   7.057  0.3786 -0.4496 -0.2721
  135OSM    H5F14686   2.509   5.403   7.035 -1.0071  0.3662  1.9685
  135OSM    H5G14687   2.547   5.569   7.092 -2.3076 -1.0079 -1.8859
  135OSM    C6F14688   2.672   5.427   7.172 -0.1109  0.1669  0.0799
  135OSM    H6F14689   2.758   5.497   7.175 -0.9329  1.1620  0.6956
  135OSM    H6G14690   2.700   5.322   7.149 -2.3079 -0.7145  1.1957
  135OSM    C7F14691   2.602   5.424   7.313 -0.0298 -0.1726  0.3481
  135OSM    H7F14692   2.503   5.374   7.305 -0.1357  0.2348 -0.9901
  135OSM    H7G14693   2.582   5.532   7.330 -0.3576  0.0929 -1.4998
  135OSM    C8F14694   2.670   5.366   7.435 -0.5024 -0.6118  0.3616
  135OSM    H8F14695   2.684   5.256   7.427  1.4698 -0.4458  1.0026
  135OSM    H8G14696   2.595   5.373   7.516 -1.1339 -1.8550 -0.0996
  135OSM    C9F14697   2.802   5.432   7.456  1.0159  0.3040  0.4474
  135OSM    H9F14698   2.866   5.418   7.368  1.5834 -1.6267  1.1118
  135OSM   C10F14699   2.848   5.501   7.560 -0.3759 -0.5581  0.4085
  135OSM   H10F14700   2.950   5.541   7.563 -0.8156  0.5817  0.3761
  135OSM   C11F14701   2.777   5.522   7.692 -0.2551 -0.0532  0.3487
  135OSM   H11F14702   2.714   5.432   7.710 -0.6155 -0.8510 -3.8419
  135OSM   H11G14703   2.709   5.609   7.684 -2.6570 -1.9164 -0.6834
  135OSM   C12F14704   2.870   5.535   7.818  1.1691  0.2679  0.5998
  135OSM   H12F14705   2.945   5.615   7.800 -0.8032  1.9572 -0.5296
  135OSM   H12G14706   2.909   5.431   7.810 -1.2655 -0.5685 -2.2176
  135OSM   C13F14707   2.784   5.560   7.942 -0.2476  0.0211 -0.5090
  135OSM   H13F14708   2.723   5.468   7.957  1.2059 -0.7941  0.5412
  135OSM   H13G14709   2.719   5.646   7.914  1.2994  1.2474 -0.4247
  135OSM   C14F14710   2.868   5.571   8.073 -0.1344 -0.1275  0.3676
  135OSM   H14F14711   2.953   5.638   8.051  0.5442 -0.9158  0.5320
  135OSM   H14G14712   2.914   5.470   8.079  0.2173  0.0068 -0.0717
  135OSM   C15F14713   2.796   5.627   8.196  0.0514 -0.4878 -0.3265
  135OSM   H15F14714   2.690   5.592   8.203 -0.4933  1.0662 -0.4771
  135OSM   H15G14715   2.780   5.735   8.174 -2.5206 -0.7683 -0.0944
  135OSM   C16F14716   2.881   5.621   8.326  0.0529  0.2595 -1.0786
  135OSM   H16F14717   2.827   5.679   8.403  0.0798  1.5522 -2.0117
  135OSM   H16G14718   2.975   5.677   8.306  0.9682  0.6173  3.2266
  135OSM   C17F14719   2.925   5.479   8.380  0.0667 -0.6974  0.3143
  135OSM   H17F14720   2.968   5.426   8.293 -0.8004 -0.1498 -0.4706
  135OSM   H17G14721   2.834   5.433   8.425 -0.0634  0.4364  1.2630
  135OSM   C18F14722   3.041   5.473   8.485  0.5033  0.4792 -0.4996
  135OSM   H18F14723   3.122   5.546   8.464  0.0785  1.4480  1.0565
  135OSM   H18G14724   3.076   5.369   8.499 -1.1707 -0.0490  0.0618
  135OSM   H18H14725   2.991   5.504   8.580  0.2069 -0.5036 -0.3260
  136OSM      N14726   0.944   0.459   6.016 -0.2834 -0.0107 -0.4736
  136OSM    C1514727   0.822   0.392   5.973 -0.1058  0.7632  0.2645
  136OSM   H15A14728   0.763   0.458   5.911  1.8443 -0.0736 -2.6662
  136OSM   H15B14729   0.761   0.347   6.051  0.8198 -2.0908 -0.5376
  136OSM   H15C14730   0.850   0.317   5.900  0.2945  3.5423 -2.6542
  136OSM    C1414731   1.011   0.366   6.101 -0.7629 -0.1502  0.2326
  136OSM   H14A14732   1.006   0.267   6.059 -1.8352 -0.3655  0.8180
  136OSM   H14B14733   0.967   0.362   6.200 -2.0304 -0.8984 -0.3362
  136OSM   H14C14734   1.113   0.393   6.120 -1.0970  1.7479 -0.4892
  136OSM    C1314735   1.032   0.484   5.898 -0.2466 -0.6034  0.0836
  136OSM   H13A14736   1.051   0.399   5.835 -2.1396  0.4557 -2.0806
  136OSM   H13B14737   1.133   0.516   5.921 -0.1003  0.5074 -1.8607
  136OSM   H13C14738   0.995   0.564   5.835  1.4638 -0.7079 -1.1201
  136OSM    C1214739   0.918   0.589   6.091  0.3606 -0.3578 -0.1197
  136OSM   H12A14740   0.835   0.574   6.158  0.5109 -2.8650 -0.4206
  136OSM   H12B14741   0.889   0.664   6.018  2.5228 -1.0158 -1.7684
  136OSM    C1114742   1.037   0.647   6.184  0.1806  0.3944  0.1559
  136OSM   H11A14743   1.062   0.564   6.253 -1.6205 -0.6713 -0.4226
  136OSM   H11B14744   0.991   0.725   6.248 -1.0894 -0.9228  0.9107
  136OSM      P14745   1.266   0.772   6.171 -0.0231  0.1015  0.0463
  136OSM    O1314746   1.389   0.698   6.131  0.5083 -0.5331 -0.8354
  136OSM    O1414747   1.257   0.917   6.155  0.4429  0.4049  0.0525
  136OSM    O1114748   1.251   0.743   6.319 -0.1760 -0.0091  0.3798
  136OSM    O1214749   1.144   0.695   6.103  0.4375  0.8200 -0.5075
  136OSM    C1S14750   1.326   0.641   6.389  0.9102 -0.0950  0.3304
  136OSM    H1S14751   1.402   0.592   6.326  0.0822 -0.1709 -0.6304
  136OSM    H1T14752   1.257   0.558   6.413  0.3884  0.6273  1.4422
  136OSM     NF14753   1.413   0.595   6.617 -0.3072  0.1874  0.5533
  136OSM    HNF14754   1.345   0.610   6.688 -1.5977  1.0467 -0.8165
  136OSM    C2S14755   1.403   0.700   6.513  0.7648  0.0025  0.0290
  136OSM    H2S14756   1.508   0.729   6.491  0.5352  2.1875  1.4725
  136OSM    C3S14757   1.325   0.827   6.563 -0.6553 -0.7215  0.0064
  136OSM    H3S14758   1.217   0.806   6.578 -0.1785 -3.3141  0.2619
  136OSM     O314759   1.322   0.939   6.479  0.1369 -0.2437 -0.1862
  136OSM    HO314760   1.297   0.903   6.394  1.9469 -0.2551 -0.7628
  136OSM    C4S14761   1.378   0.875   6.696  0.1755  0.4794 -0.6020
  136OSM    H4S14762   1.296   0.898   6.766  0.1696  1.8110 -1.0143
  136OSM    C5S14763   1.501   0.888   6.746  0.2107  0.2411 -0.2950
  136OSM    H5S14764   1.585   0.874   6.676  0.4427  1.7191 -0.3448
  136OSM    C6S14765   1.548   0.937   6.881 -0.4071 -0.0407  0.6442
  136OSM    H6S14766   1.623   1.018   6.864  0.0508 -1.0560 -3.2085
  136OSM    H6T14767   1.603   0.854   6.929  5.4914  2.5589 -0.6157
  136OSM    C7S14768   1.449   0.991   6.985  0.0485 -0.3418  0.7452
  136OSM    H7S14769   1.376   0.907   6.997  1.2758 -1.6455 -0.4937
  136OSM    H7T14770   1.388   1.073   6.941 -1.4463 -1.3571  0.8363
  136OSM    C8S14771   1.516   1.036   7.110 -0.5364  0.7378 -0.5685
  136OSM    H8S14772   1.588   1.119   7.090  0.1146  0.5978  1.0586
  136OSM    H8T14773   1.584   0.955   7.144 -0.1130  0.6763 -1.5133
  136OSM    C9S14774   1.418   1.091   7.226 -0.4046  0.2634 -0.4278
  136OSM    H9S14775   1.363   1.004   7.269  0.1251 -0.3975 -1.0602
  136OSM    H9T14776   1.358   1.172   7.179  0.7212  1.1072 -0.4574
  136OSM   C10S14777   1.490   1.147   7.354  0.2011  0.4007 -0.1589
  136OSM   H10S14778   1.511   1.254   7.329  1.5870 -0.0610 -1.0549
  136OSM   H10T14779   1.583   1.096   7.386  0.4721  0.1453 -1.3153
  136OSM   C11S14780   1.381   1.136   7.466 -0.1302  1.0814  0.1798
  136OSM   H11S14781   1.358   1.028   7.474  2.3958  0.4150 -0.5941
  136OSM   H11T14782   1.289   1.187   7.432 -0.3522 -0.3510 -1.5094
  136OSM   C12S14783   1.424   1.175   7.602 -0.1305 -0.4995  0.3136
  136OSM   H12S14784   1.464   1.278   7.615 -1.8250  0.2980 -0.5408
  136OSM   H12T14785   1.507   1.108   7.635 -1.3209 -1.5747  1.2512
  136OSM   C13S14786   1.313   1.144   7.702  0.1557 -0.6918 -0.8209
  136OSM   H13S14787   1.291   1.035   7.699  0.3938 -0.7453 -0.6818
  136OSM   H13T14788   1.212   1.183   7.681  0.6191  1.5159  0.7304
  136OSM   C14S14789   1.352   1.176   7.849  0.4547 -0.5100 -0.2315
  136OSM   H14S14790   1.336   1.285   7.855  0.6480 -0.4395 -0.9112
  136OSM   H14T14791   1.457   1.147   7.872  0.9154  0.9537 -0.4063
  136OSM   C15S14792   1.262   1.113   7.956  0.1921  0.2946 -0.4493
  136OSM   H15S14793   1.298   1.008   7.958 -0.5422  0.0475  0.0748
  136OSM   H15T14794   1.152   1.113   7.937 -0.0740 -0.3217  0.9376
  136OSM   C16S14795   1.277   1.180   8.091 -0.5702 -0.1098 -0.6165
  136OSM   H16S14796   1.226   1.279   8.090 -0.7836 -0.1542  1.8066
  136OSM   H16T14797   1.386   1.200   8.104 -0.3941 -0.7809 -1.0050
  136OSM   C17S14798   1.230   1.080   8.208  0.3397  0.0031  0.3079
  136OSM   H17S14799   1.128   1.058   8.173  0.4507  0.5258 -0.3638
  136OSM   H17T14800   1.221   1.132   8.306  3.6885 -0.4743  0.9933
  136OSM   C18S14801   1.318   0.957   8.234  0.4195 -0.3090  0.1862
  136OSM   H18S14802   1.327   0.900   8.139 -2.2758 -2.5032  1.0886
  136OSM   H18T14803   1.266   0.899   8.313 -0.9690  1.4426  0.6137
  136OSM   H18U14804   1.422   0.974   8.268  0.5132 -0.6252  0.0650
  136OSM    C1F14805   1.499   0.492   6.620  0.0060  0.2471  0.1956
  136OSM     OF14806   1.562   0.464   6.514  0.4497  0.2816 -0.6308
  136OSM    C2F14807   1.504   0.414   6.750 -0.3560 -0.4140 -0.2470
  136OSM    H2F14808   1.456   0.474   6.830  1.7777 -0.0018  0.7992
  136OSM    H2G14809   1.611   0.409   6.779 -0.2606 -1.6145 -0.7540
  136OSM    C3F14810   1.455   0.274   6.741  0.4045  0.7166  0.2784
  136OSM    H3F14811   1.450   0.213   6.833 -1.3435  0.9997  0.3970
  136OSM    H3G14812   1.524   0.218   6.674  0.4092 -0.8707  1.5507
  136OSM    C4F14813   1.313   0.247   6.685 -0.2715  0.2861  0.8687
  136OSM    H4F14814   1.298   0.315   6.599  2.5317  0.5055  0.4514
  136OSM    H4G14815   1.237   0.276   6.761 -2.5406  3.6116 -2.3690
  136OSM    C5F14816   1.293   0.097   6.639 -0.3552 -0.3349 -0.2839
  136OSM    H5F14817   1.386   0.062   6.592 -0.9881 -2.5769  0.0423
  136OSM    H5G14818   1.218   0.090   6.558 -1.5407 -0.2278  0.7598
  136OSM    C6F14819   1.265   0.013   6.755  0.1232  0.0322  0.2784
  136OSM    H6F14820   1.172   0.041   6.810 -1.6899 -1.0007 -2.0862
  136OSM    H6G14821   1.352   0.004   6.824  0.5656  0.2020 -0.2549
  136OSM    C7F14822   1.230  -0.128   6.719  0.8988 -0.0395  0.5335
  136OSM    H7F14823   1.299  -0.163   6.639 -1.0669 -0.5622 -1.0350
  136OSM    H7G14824   1.129  -0.129   6.674  1.6415 -2.3721 -1.2941
  136OSM    C8F14825   1.229  -0.221   6.847 -0.2585 -0.5308 -0.4766
  136OSM    H8F14826   1.212  -0.325   6.811  0.8496 -0.9677  0.2214
  136OSM    H8G14827   1.134  -0.189   6.897  1.9590  2.5399  2.2164
  136OSM    C9F14828   1.342  -0.218   6.948  0.1986  0.6497  0.7981
  136OSM    H9F14829   1.434  -0.257   6.903 -0.7704  0.7607 -1.4064
  136OSM   C10F14830   1.337  -0.164   7.069 -0.8957 -0.3031  0.4058
  136OSM   H10F14831   1.433  -0.143   7.119 -1.6503 -1.4180  2.4819
  136OSM   C11F14832   1.226  -0.098   7.139 -0.3334 -0.1215  0.0380
  136OSM   H11F14833   1.155  -0.178   7.172  1.7036 -2.5158 -1.0539
  136OSM   H11G14834   1.167  -0.039   7.066 -1.2329 -2.5131 -1.2945
  136OSM   C12F14835   1.257  -0.007   7.260 -0.1484  0.1048  0.3124
  136OSM   H12F14836   1.156   0.040   7.267 -0.5787 -0.8855  1.1797
  136OSM   H12G14837   1.332   0.075   7.254 -0.9687  1.1555  2.9184
  136OSM   C13F14838   1.278  -0.083   7.393 -0.4110 -0.0409 -0.0329
  136OSM   H13F14839   1.379  -0.128   7.400 -0.8192 -2.0250 -4.0008
  136OSM   H13G14840   1.203  -0.165   7.401 -0.0176 -0.5000 -0.9017
  136OSM   C14F14841   1.265   0.023   7.501 -0.5081 -0.5007  0.0108
  136OSM   H14F14842   1.171   0.083   7.506 -1.3365 -1.8307  1.1392
  136OSM   H14G14843   1.339   0.105   7.491 -2.6769  1.4935 -0.5617
  136OSM   C15F14844   1.280  -0.030   7.645 -0.5614 -0.4002  0.3233
  136OSM   H15F14845   1.380  -0.079   7.648  1.6255  3.4021 -1.7587
  136OSM   H15G14846   1.205  -0.108   7.668  0.2880 -0.3519  3.7290
  136OSM   C16F14847   1.299   0.076   7.761  0.3508  1.0061 -0.3863
  136OSM   H16F14848   1.204   0.132   7.771  0.0528  0.1713  2.1356
  136OSM   H16G14849   1.370   0.153   7.723  0.0528  0.9616 -1.0543
  136OSM   C17F14850   1.351   0.028   7.896  0.3682 -0.3436 -0.1638
  136OSM   H17F14851   1.395   0.118   7.943 -0.3332 -1.0209  1.8948
  136OSM   H17G14852   1.427  -0.053   7.890  3.2747  2.1586  0.6260
  136OSM   C18F14853   1.235  -0.019   7.987 -0.7106  0.0089 -0.0824
  136OSM   H18F14854   1.156   0.058   7.997  0.0346  1.1718 -2.4443
  136OSM   H18G14855   1.250  -0.049   8.094 -2.5173  1.8457  0.7434
  136OSM   H18H14856   1.185  -0.101   7.933 -0.1744 -0.8490  0.6792
  137OSM      N14857   3.439   4.985   6.353 -0.4763 -0.0657  0.0009
  137OSM    C1514858   3.310   4.957   6.427  0.2098 -0.5638 -0.8853
  137OSM   H15A14859   3.285   5.034   6.498  1.3408  2.0217 -3.1414
  137OSM   H15B14860   3.316   4.863   6.480 -0.4260  1.0392  2.2664
  137OSM   H15C14861   3.231   4.947   6.354 -0.8771  3.2850 -0.4004
  137OSM    C1414862   3.538   4.997   6.474  0.4326  0.4413 -0.4566
  137OSM   H14A14863   3.505   5.088   6.522 -0.5737  0.7115 -1.6012
  137OSM   H14B14864   3.640   5.013   6.442  0.3421  1.5800 -0.2177
  137OSM   H14C14865   3.526   4.912   6.539  2.9911  1.3055  1.3112
  137OSM    C1314866   3.472   4.865   6.267 -0.2176  0.1065 -0.0588
  137OSM   H13A14867   3.563   4.881   6.212  0.2183  1.7382  1.0475
  137OSM   H13B14868   3.401   4.850   6.187 -0.7738 -0.2707  0.4948
  137OSM   H13C14869   3.460   4.770   6.318 -4.0680 -0.1939 -1.1951
  137OSM    C1214870   3.441   5.120   6.276  1.1324 -0.4270 -0.4889
  137OSM   H12A14871   3.385   5.106   6.185  0.5216 -2.8767  0.2112
  137OSM   H12B14872   3.542   5.143   6.245  2.4150  0.2501  3.5753
  137OSM    C1114873   3.389   5.248   6.354 -0.3227 -0.1415  0.1387
  137OSM   H11A14874   3.295   5.228   6.410 -0.8745 -0.4397 -0.8604
  137OSM   H11B14875   3.367   5.320   6.272 -2.0170 -2.2838 -1.4350
  137OSM      P14876   3.459   5.422   6.534  0.2292  0.1093  0.1038
  137OSM    O1314877   3.574   5.445   6.625 -0.0763  0.0670  0.5753
  137OSM    O1414878   3.423   5.528   6.441 -0.3212  0.0445 -0.1546
  137OSM    O1114879   3.323   5.398   6.621 -0.2220  0.3426 -0.3304
  137OSM    O1214880   3.481   5.287   6.457 -0.0563 -0.2656  0.3616
  137OSM    C1S14881   3.315   5.267   6.689  0.2759 -0.4396 -0.6522
  137OSM    H1S14882   3.396   5.196   6.662 -0.9101 -1.9774 -0.3139
  137OSM    H1T14883   3.215   5.224   6.669  0.0847  0.4097 -1.5732
  137OSM     NF14884   3.342   5.178   6.931  0.4135 -0.4697  0.0569
  137OSM    HNF14885   3.266   5.171   6.995  0.3349  1.7477  0.2898
  137OSM    C2S14886   3.330   5.297   6.842 -1.1472 -0.0133 -0.1873
  137OSM    H2S14887   3.418   5.358   6.870 -0.0855 -0.9111 -1.4496
  137OSM    C3S14888   3.206   5.389   6.878  0.0076  0.0084  0.6196
  137OSM    H3S14889   3.115   5.326   6.871 -1.9275  2.6366  0.8003
  137OSM     O314890   3.178   5.506   6.802  0.0740  0.2246  0.1421
  137OSM    HO314891   3.243   5.500   6.731  1.5693 -0.6135  1.5123
  137OSM    C4S14892   3.219   5.438   7.016 -0.2230  0.1954 -0.6000
  137OSM    H4S14893   3.157   5.381   7.087 -2.3933 -0.8383 -3.1732
  137OSM    C5S14894   3.293   5.540   7.067 -0.2467 -0.0841  0.0402
  137OSM    H5S14895   3.357   5.589   6.992 -1.6783 -0.6926 -1.6483
  137OSM    C6S14896   3.314   5.572   7.215  0.1327 -0.0778  0.9134
  137OSM    H6S14897   3.271   5.673   7.234  0.7841  0.7258 -1.4482
  137OSM    H6T14898   3.423   5.578   7.237  0.8705  0.1681 -2.2696
  137OSM    C7S14899   3.246   5.480   7.321 -0.4573 -0.3399 -0.2390
  137OSM    H7S14900   3.294   5.380   7.315 -0.7223 -0.5052  0.3276
  137OSM    H7T14901   3.140   5.461   7.292 -0.5436 -0.1893 -0.0298
  137OSM    C8S14902   3.257   5.541   7.464  0.0277  0.0270  0.1246
  137OSM    H8S14903   3.185   5.625   7.473 -0.7130 -0.7358  1.8883
  137OSM    H8T14904   3.363   5.572   7.479  0.6472 -0.6336 -2.4276
  137OSM    C9S14905   3.233   5.453   7.592 -0.4426 -0.2170 -0.1452
  137OSM    H9S14906   3.295   5.362   7.576  1.6426  1.2404 -0.7677
  137OSM    H9T14907   3.128   5.416   7.597 -1.3453  2.3030  2.4951
  137OSM   C10S14908   3.269   5.540   7.710 -0.2782 -0.7489  0.0235
  137OSM   H10S14909   3.216   5.636   7.724 -1.3593 -1.6486  2.9566
  137OSM   H10T14910   3.377   5.563   7.698 -0.9403  3.0815  0.1995
  137OSM   C11S14911   3.247   5.447   7.831  0.0781  0.0850 -0.0975
  137OSM   H11S14912   3.292   5.347   7.814  1.7133  0.4880  1.5374
  137OSM   H11T14913   3.139   5.430   7.849  0.2488 -1.2364 -0.2531
  137OSM   C12S14914   3.310   5.492   7.964  0.2112  0.4096 -0.7689
  137OSM   H12S14915   3.268   5.591   7.993 -3.7273 -0.0628 -3.9976
  137OSM   H12T14916   3.419   5.501   7.945  0.6590 -2.1086  0.2192
  137OSM   C13S14917   3.275   5.405   8.087 -0.3767 -0.1809 -0.7183
  137OSM   H13S14918   3.325   5.313   8.052 -0.3986 -1.7449  2.9642
  137OSM   H13T14919   3.165   5.391   8.097 -0.5692 -0.1691 -2.5526
  137OSM   C14S14920   3.341   5.432   8.227 -0.0552  0.4876 -0.2322
  137OSM   H14S14921   3.318   5.347   8.295  3.0328  0.2433  0.6607
  137OSM   H14T14922   3.284   5.519   8.267 -0.0592  0.1000  0.6378
  137OSM   C15S14923   3.489   5.473   8.222 -0.0044 -0.4116 -1.1873
  137OSM   H15S14924   3.491   5.575   8.177  0.3635  2.3089  4.1775
  137OSM   H15T14925   3.534   5.392   8.162  2.1709 -0.4232  0.3405
  137OSM   C16S14926   3.567   5.480   8.357  0.5524  0.1165 -0.3802
  137OSM   H16S14927   3.677   5.488   8.348  0.7131 -0.2081  1.0157
  137OSM   H16T14928   3.549   5.378   8.398  1.2856 -0.1140 -0.6206
  137OSM   C17S14929   3.527   5.595   8.458  0.1239  0.1153 -0.4269
  137OSM   H17S14930   3.416   5.603   8.466  0.1365  1.1408 -1.0811
  137OSM   H17T14931   3.553   5.684   8.396 -0.6520  0.0580 -0.8469
  137OSM   C18S14932   3.611   5.599   8.584  0.0143  0.2474 -1.0603
  137OSM   H18S14933   3.601   5.500   8.633 -0.3168  0.5513 -0.5156
  137OSM   H18T14934   3.597   5.673   8.666  0.9698  0.2955 -0.9242
  137OSM   H18U14935   3.717   5.617   8.555  0.1010  2.1411  0.2821
  137OSM    C1F14936   3.445   5.098   6.929 -0.4662 -0.0146 -0.2391
  137OSM     OF14937   3.525   5.104   6.840 -0.7122 -0.5827  0.5183
  137OSM    C2F14938   3.463   4.999   7.045 -0.1689  0.1711 -0.0611
  137OSM    H2F14939   3.519   4.911   7.008  1.7754  1.0065  0.7602
  137OSM    H2G14940   3.363   4.967   7.081  0.4456 -1.9597 -0.1284
  137OSM    C3F14941   3.559   5.055   7.157  0.0586  0.1191  0.3186
  137OSM    H3F14942   3.528   5.148   7.209  2.4246  0.0901  1.9529
  137OSM    H3G14943   3.651   5.087   7.103 -1.3104  1.3188 -1.3969
  137OSM    C4F14944   3.605   4.943   7.255  0.0800  0.5871 -0.0719
  137OSM    H4F14945   3.659   4.866   7.195 -0.0074 -0.4498  1.1562
  137OSM    H4G14946   3.511   4.897   7.292 -0.6934  0.8725 -1.5795
  137OSM    C5F14947   3.691   4.991   7.371  0.4091  0.0039  0.3671
  137OSM    H5F14948   3.646   5.083   7.414  0.6178  0.5658 -0.5764
  137OSM    H5G14949   3.794   5.016   7.338 -0.8185  1.6856 -2.6285
  137OSM    C6F14950   3.677   4.891   7.488  0.3149 -0.4063  0.0433
  137OSM    H6F14951   3.696   4.785   7.460 -0.1494 -0.7340  0.9199
  137OSM    H6G14952   3.575   4.906   7.530  1.0950 -0.4204  2.0572
  137OSM    C7F14953   3.768   4.946   7.600 -1.0632  0.1962 -0.0036
  137OSM    H7F14954   3.729   5.047   7.625  0.7620  1.2030 -0.9615
  137OSM    H7G14955   3.870   4.972   7.566 -1.7092  1.4575 -1.0493
  137OSM    C8F14956   3.768   4.851   7.724 -0.4310 -0.3656 -0.2516
  137OSM    H8F14957   3.822   4.756   7.703  1.6860  0.4264  1.2018
  137OSM    H8G14958   3.666   4.829   7.761  0.0793 -0.6591  1.0178
  137OSM    C9F14959   3.849   4.917   7.831  0.0800 -0.3136  0.0097
  137OSM    H9F14960   3.955   4.889   7.824 -0.7672 -4.2502  0.6122
  137OSM   C10F14961   3.810   4.992   7.937  0.1937  0.4916 -0.0072
  137OSM   H10F14962   3.886   5.056   7.983  0.0094  0.4094  0.4208
  137OSM   C11F14963   3.668   5.029   7.964 -0.1041 -0.0540  0.4951
  137OSM   H11F14964   3.595   4.966   7.908 -3.6672  2.3557  2.0188
  137OSM   H11G14965   3.657   5.131   7.921  1.4570 -0.1115 -0.0791
  137OSM   C12F14966   3.638   5.027   8.117  0.3890  0.0338 -0.1727
  137OSM   H12F14967   3.685   5.119   8.156 -0.5421  0.8237 -0.8630
  137OSM   H12G14968   3.686   4.945   8.174  2.8804  1.1471 -0.5415
  137OSM   C13F14969   3.485   5.024   8.134 -0.2346  0.5626 -0.1158
  137OSM   H13F14970   3.451   4.934   8.079 -0.4828 -0.0595  1.0243
  137OSM   H13G14971   3.452   5.121   8.092  0.6053  0.1093 -1.9327
  137OSM   C14F14972   3.457   5.009   8.283  0.3759  0.2211 -0.4949
  137OSM   H14F14973   3.499   5.090   8.345 -1.3367  0.1228  0.8986
  137OSM   H14G14974   3.511   4.918   8.315  0.1744 -0.3766 -1.7795
  137OSM   C15F14975   3.303   4.982   8.311 -0.5278 -0.7916 -0.4376
  137OSM   H15F14976   3.270   4.904   8.240  1.0058 -1.7526 -0.1360
  137OSM   H15G14977   3.251   5.076   8.283 -0.3216 -1.1577 -2.1666
  137OSM   C16F14978   3.262   4.932   8.449 -0.3583 -0.4890 -1.5009
  137OSM   H16F14979   3.287   4.826   8.468  0.1369 -0.1481 -0.0562
  137OSM   H16G14980   3.152   4.946   8.453 -0.0990  1.5041  0.4296
  137OSM   C17F14981   3.324   5.029   8.559 -0.3030  0.1992  0.2037
  137OSM   H17F14982   3.435   5.033   8.554 -0.3636  1.7034 -0.2156
  137OSM   H17G14983   3.313   4.972   8.654  1.2873  1.5377  1.2416
  137OSM   C18F14984   3.267   5.168   8.579  0.4649 -0.1735 -0.3382
  137OSM   H18F14985   3.329   5.227   8.651 -0.6867  1.8509 -0.9314
  137OSM   H18G14986   3.160   5.161   8.607  0.8492 -0.2345  1.2211
  137OSM   H18H14987   3.271   5.221   8.482  0.7043  0.2513 -0.1011
  138OSM      N14988   4.275   6.529   5.743 -0.2945  0.0182  0.6892
  138OSM    C1514989   4.360   6.620   5.832 -0.2719 -0.1142 -0.0500
  138OSM   H15A14990   4.312   6.713   5.858 -0.0434  0.0622 -0.2506
  138OSM   H15B14991   4.456   6.642   5.786  0.4597  0.9655  1.8517
  138OSM   H15C14992   4.386   6.566   5.922  0.8990  0.9215  0.2793
  138OSM    C1414993   4.245   6.602   5.622 -0.4565  0.1519 -0.2830
  138OSM   H14A14994   4.337   6.627   5.573  0.4541  3.0517  2.5656
  138OSM   H14B14995   4.195   6.697   5.635  1.1743  1.0510 -0.4057
  138OSM   H14C14996   4.180   6.552   5.551  0.2128  0.1812 -0.9176
  138OSM    C1314997   4.353   6.408   5.706 -0.1493  0.6242  0.6198
  138OSM   H13A14998   4.435   6.420   5.637 -2.8848  1.8440 -2.7717
  138OSM   H13B14999   4.285   6.340   5.657  0.2748  0.9728 -0.4760
  138OSM   H13C15000   4.387   6.358   5.795 -1.5746 -1.1849  0.2232
  138OSM    C1215001   4.149   6.496   5.825 -0.3596 -0.7158 -0.5844
  138OSM   H12A15002   4.077   6.445   5.762 -1.4070  1.0329 -0.8742
  138OSM   H12B15003   4.109   6.591   5.857  1.4895  0.1158 -0.6134
  138OSM    C1115004   4.161   6.424   5.961 -0.0188 -0.3927 -0.1092
  138OSM   H11A15005   4.234   6.340   5.958 -0.3945 -0.7022 -0.8694
  138OSM   H11B15006   4.060   6.383   5.986 -1.1897  1.8042 -0.9560
  138OSM      P15007   4.114   6.621   6.131 -0.6488  0.0686  0.0090
  138OSM    O1315008   4.204   6.692   6.232 -0.9410 -0.0742  0.3104
  138OSM    O1415009   4.036   6.707   6.038  0.4840  0.0632  0.2717
  138OSM    O1115010   4.010   6.528   6.210 -0.1812  0.1510  0.3351
  138OSM    O1215011   4.204   6.517   6.052  0.0658 -0.2005 -0.7802
  138OSM    C1S15012   4.062   6.423   6.295 -0.0734 -0.2413 -0.4544
  138OSM    H1S15013   4.173   6.408   6.297 -0.1119 -0.7269  2.1384
  138OSM    H1T15014   4.019   6.325   6.266  2.6359 -1.2092 -1.6248
  138OSM     NF15015   4.056   6.353   6.539  0.0819  0.4894 -0.0177
  138OSM    HNF15016   4.003   6.278   6.578  0.3235  0.4626  0.2627
  138OSM    C2S15017   3.999   6.444   6.437 -0.0567 -0.0119  0.6419
  138OSM    H2S15018   4.007   6.550   6.469 -0.4370  0.9923 -2.2435
  138OSM    C3S15019   3.844   6.430   6.436  0.1373  0.0449  0.2511
  138OSM    H3S15020   3.822   6.326   6.405  0.4568  0.5382 -1.7657
  138OSM     O315021   3.783   6.515   6.346 -0.1782 -0.0473  0.0073
  138OSM    HO315022   3.853   6.536   6.284 -1.8982 -0.9447 -2.3834
  138OSM    C4S15023   3.792   6.445   6.576 -0.4186  0.5746 -0.4543
  138OSM    H4S15024   3.762   6.344   6.609  3.1839 -1.1809 -2.0684
  138OSM    C5S15025   3.761   6.553   6.647 -0.1962 -0.1647 -0.2609
  138OSM    H5S15026   3.771   6.650   6.597 -0.2911 -0.1136 -0.1823
  138OSM    C6S15027   3.696   6.560   6.783  0.1507 -0.1560  0.4063
  138OSM    H6S15028   3.590   6.529   6.771 -0.1734  0.3848  1.7645
  138OSM    H6T15029   3.696   6.665   6.821  0.5371  0.2189 -0.5743
  138OSM    C7S15030   3.767   6.476   6.886  0.8967  0.0330  0.1036
  138OSM    H7S15031   3.875   6.500   6.901  0.5275  0.5685  2.2723
  138OSM    H7T15032   3.749   6.372   6.853  0.8835  0.5907 -1.7646
  138OSM    C8S15033   3.705   6.485   7.021 -0.1876 -0.2541  0.1189
  138OSM    H8S15034   3.605   6.437   7.032 -0.1429  0.1450  3.3168
  138OSM    H8T15035   3.664   6.582   7.057  2.9322  0.8195  1.1334
  138OSM    C9S15036   3.784   6.417   7.124  0.4969  0.3036 -0.1946
  138OSM    H9S15037   3.889   6.454   7.125  0.7999 -0.3926 -2.0397
  138OSM    H9T15038   3.779   6.309   7.096 -1.8302  0.3085  0.0067
  138OSM   C10S15039   3.726   6.430   7.271 -0.1513  0.3621  0.4336
  138OSM   H10S15040   3.624   6.386   7.279 -0.8680  1.4791 -1.9224
  138OSM   H10T15041   3.710   6.538   7.288 -1.3146  0.2390  0.1836
  138OSM   C11S15042   3.825   6.376   7.377  0.0404  0.6796 -0.3781
  138OSM   H11S15043   3.915   6.440   7.360  0.6843  0.2194  1.1510
  138OSM   H11T15044   3.853   6.271   7.353  0.9392  0.9803 -0.7000
  138OSM   C12S15045   3.787   6.406   7.517  0.5139 -0.0089  0.6123
  138OSM   H12S15046   3.679   6.387   7.536  0.8352 -1.4767  1.1048
  138OSM   H12T15047   3.802   6.516   7.515 -2.3699  0.4600 -2.1294
  138OSM   C13S15048   3.876   6.335   7.616 -0.8255  0.5301  0.0290
  138OSM   H13S15049   3.984   6.354   7.598 -0.9192  1.1136  0.0358
  138OSM   H13T15050   3.864   6.225   7.611 -0.8095  0.5561 -0.7034
  138OSM   C14S15051   3.862   6.381   7.764  0.0381 -0.5474 -0.0149
  138OSM   H14S15052   3.851   6.491   7.769  0.6643 -0.5375  1.8422
  138OSM   H14T15053   3.958   6.354   7.813  0.6251  2.1463  0.5071
  138OSM   C15S15054   3.742   6.316   7.833  0.9504  0.6021  1.7945
  138OSM   H15S15055   3.747   6.205   7.831  0.7872  0.5554  3.1319
  138OSM   H15T15056   3.656   6.357   7.775  2.6492  0.3906 -1.0978
  138OSM   C16S15057   3.728   6.340   7.980  0.2305 -0.6216  0.3065
  138OSM   H16S15058   3.826   6.327   8.031  0.0218 -3.6403  0.1272
  138OSM   H16T15059   3.659   6.268   8.028  0.2141 -0.0052  1.2376
  138OSM   C17S15060   3.694   6.489   8.019 -0.6810  1.0190 -0.8377
  138OSM   H17S15061   3.601   6.512   7.962 -0.6392  0.0994 -1.2930
  138OSM   H17T15062   3.779   6.548   7.980  0.2266 -1.0835 -2.2742
  138OSM   C18S15063   3.694   6.511   8.173  0.3365 -0.1442 -0.3698
  138OSM   H18S15064   3.686   6.619   8.196 -1.1682 -0.2771 -0.1207
  138OSM   H18T15065   3.781   6.457   8.215  0.4440 -0.3207 -0.8126
  138OSM   H18U15066   3.605   6.468   8.225  0.9624 -0.6120  0.3434
  138OSM    C1F15067   4.181   6.368   6.585 -0.1479 -0.8950 -0.1601
  138OSM     OF15068   4.250   6.465   6.557 -0.3330  0.1242 -0.6088
  138OSM    C2F15069   4.218   6.258   6.679 -0.1051 -0.2523  0.2970
  138OSM    H2F15070   4.329   6.252   6.682 -0.0497  0.5355  0.1038
  138OSM    H2G15071   4.169   6.160   6.660  0.6338 -0.4436 -0.7234
  138OSM    C3F15072   4.190   6.298   6.831  0.5320 -0.2454  0.1285
  138OSM    H3F15073   4.079   6.305   6.831  0.5893  1.0510 -0.8950
  138OSM    H3G15074   4.236   6.398   6.844 -1.6229  0.8039  0.0499
  138OSM    C4F15075   4.235   6.193   6.937  0.5349 -0.1842 -0.2710
  138OSM    H4F15076   4.331   6.148   6.906  0.2523 -1.8400  1.0763
  138OSM    H4G15077   4.173   6.101   6.939 -3.0220  2.0129  1.4346
  138OSM    C5F15078   4.223   6.238   7.081  0.1080  0.1270 -0.6387
  138OSM    H5F15079   4.123   6.256   7.126  0.8010  1.2514  0.5145
  138OSM    H5G15080   4.293   6.322   7.100  1.5343 -0.7933 -1.6292
  138OSM    C6F15081   4.271   6.130   7.172  0.2466  0.0085 -0.1308
  138OSM    H6F15082   4.363   6.081   7.135  0.4959  0.5407 -0.2221
  138OSM    H6G15083   4.203   6.042   7.173 -0.0807  0.2129 -1.7122
  138OSM    C7F15084   4.301   6.180   7.316  0.0812  0.0153  0.2665
  138OSM    H7F15085   4.366   6.269   7.303  0.8723 -0.5858  0.0503
  138OSM    H7G15086   4.353   6.093   7.361 -3.6247 -1.7398  1.6135
  138OSM    C8F15087   4.179   6.196   7.407 -0.0046 -0.1183  0.2062
  138OSM    H8F15088   4.114   6.271   7.357  0.2668  1.1952  1.7467
  138OSM    H8G15089   4.214   6.233   7.505  1.3553  0.7683 -0.5816
  138OSM    C9F15090   4.087   6.076   7.419  0.2546  0.5194  0.1484
  138OSM    H9F15091   4.013   6.070   7.338 -0.2446  0.1514  0.6241
  138OSM   C10F15092   4.083   5.985   7.523 -0.1022  0.7598 -0.2619
  138OSM   H10F15093   4.005   5.908   7.514 -1.6372  1.9333  2.0068
  138OSM   C11F15094   4.160   5.975   7.647 -0.3301 -0.7935 -0.1324
  138OSM   H11F15095   4.233   6.058   7.664  0.0919 -1.4482  1.4866
  138OSM   H11G15096   4.214   5.878   7.656 -2.6280 -2.1317 -0.1516
  138OSM   C12F15097   4.067   5.977   7.770 -0.0715 -0.6726  0.4835
  138OSM   H12F15098   3.970   5.930   7.744 -1.4910  1.3080  1.8881
  138OSM   H12G15099   4.038   6.082   7.792  0.8891  0.0720 -1.5448
  138OSM   C13F15100   4.127   5.909   7.886 -1.2305  0.1210  0.1888
  138OSM   H13F15101   4.228   5.942   7.917 -1.0543  0.4385 -0.7002
  138OSM   H13G15102   4.131   5.805   7.849 -0.3544  0.9430 -2.2362
  138OSM   C14F15103   4.040   5.913   8.013 -0.0166  0.2516 -0.3693
  138OSM   H14F15104   3.934   5.902   7.980  0.6874  0.8370 -3.0014
  138OSM   H14G15105   4.042   6.014   8.061  0.7646  0.2572 -0.3997
  138OSM   C15F15106   4.077   5.808   8.118  0.5478  0.0795  0.1049
  138OSM   H15F15107   4.181   5.812   8.158  0.6974  0.7695 -0.3342
  138OSM   H15G15108   4.075   5.707   8.072 -1.9189 -0.1199  0.5132
  138OSM   C16F15109   3.983   5.801   8.231 -0.6133  0.2883 -0.3716
  138OSM   H16F15110   3.888   5.751   8.199 -0.6637 -0.3567  0.7437
  138OSM   H16G15111   3.962   5.905   8.263 -0.6643  0.7218 -1.7424
  138OSM   C17F15112   4.039   5.723   8.355  0.0788  0.4120 -0.6026
  138OSM   H17F15113   4.102   5.636   8.329 -0.9619 -0.2388 -0.9942
  138OSM   H17G15114   3.961   5.685   8.424  2.3534 -0.6517  1.5124
  138OSM   C18F15115   4.137   5.812   8.438  0.3347 -0.6348 -0.7750
  138OSM   H18F15116   4.187   5.757   8.521  1.2453 -2.2728 -2.3514
  138OSM   H18G15117   4.083   5.896   8.486 -0.6738 -0.9103 -1.3969
  138OSM   H18H15118   4.217   5.841   8.368  0.9759 -0.7987 -0.1234
  139OSM      N15119   2.217   2.731   5.978  0.5145 -0.7254  0.0515
  139OSM    C1515120   2.222   2.601   6.043  0.1564 -0.0986  0.3993
  139OSM   H15A15121   2.294   2.607   6.124  1.5772  1.9542 -0.9160
  139OSM   H15B15122   2.248   2.522   5.975  3.0424 -1.2034  2.5692
  139OSM   H15C15123   2.129   2.576   6.094  0.1569 -1.6447 -0.2989
  139OSM    C1415124   2.348   2.761   5.915 -0.6792 -0.6286  0.4249
  139OSM   H14A15125   2.399   2.676   5.874 -1.5562 -0.2751 -1.5018
  139OSM   H14B15126   2.412   2.806   5.989 -1.3392  0.9580  0.1010
  139OSM   H14C15127   2.342   2.836   5.837  2.0873 -0.6218  0.1338
  139OSM    C1315128   2.107   2.723   5.869  0.4434  0.0292 -0.0433
  139OSM   H13A15129   2.124   2.648   5.794  1.0356  0.9501 -0.8425
  139OSM   H13B15130   2.092   2.820   5.823  0.7308 -0.2708 -0.7782
  139OSM   H13C15131   2.015   2.700   5.921  1.5535 -1.5670  1.3270
  139OSM    C1215132   2.177   2.841   6.082  0.4464 -0.3666 -0.0647
  139OSM   H12A15133   2.167   2.937   6.033  0.5720  0.5128  1.5548
  139OSM   H12B15134   2.261   2.850   6.149  2.4701 -2.6492 -2.1161
  139OSM    C1115135   2.046   2.822   6.170 -0.4197  0.8820  0.4551
  139OSM   H11A15136   1.965   2.810   6.095  0.6845  1.1254 -0.8188
  139OSM   H11B15137   2.033   2.921   6.218 -2.0168  1.5361 -1.1934
  139OSM      P15138   1.932   2.621   6.289 -0.1629 -0.0586  0.0350
  139OSM    O1315139   1.808   2.691   6.325 -0.3395  0.5357 -0.4508
  139OSM    O1415140   1.937   2.533   6.173  0.0852  0.7013 -0.4806
  139OSM    O1115141   1.978   2.550   6.416 -0.0729 -0.0442 -0.3394
  139OSM    O1215142   2.056   2.723   6.271  0.0078  0.0186 -0.3595
  139OSM    C1S15143   2.099   2.472   6.427 -0.3029  0.5490 -0.4870
  139OSM    H1S15144   2.183   2.533   6.387  0.2176  0.0823 -0.1053
  139OSM    H1T15145   2.085   2.375   6.376 -1.3798  1.4670 -2.0204
  139OSM     NF15146   2.263   2.401   6.595 -0.1804  0.0949 -0.5230
  139OSM    HNF15147   2.270   2.302   6.603 -2.7087 -0.1005  0.3950
  139OSM    C2S15148   2.127   2.453   6.578 -0.5338 -0.3291  0.1673
  139OSM    H2S15149   2.115   2.555   6.620 -1.7591 -0.0846 -0.7111
  139OSM    C3S15150   2.021   2.355   6.634 -0.1805  0.2318  0.0175
  139OSM    H3S15151   2.045   2.254   6.593  1.7541  0.4220  0.5676
  139OSM     O315152   1.891   2.387   6.600  0.1634  0.2792  0.8425
  139OSM    HO315153   1.898   2.454   6.531  2.4696  0.3201  1.0358
  139OSM    C4S15154   2.022   2.362   6.782 -0.1418  1.3014 -0.2203
  139OSM    H4S15155   1.969   2.446   6.829 -1.8895 -0.8261  1.8520
  139OSM    C5S15156   2.081   2.269   6.865  1.0662  0.0091  0.8378
  139OSM    H5S15157   2.135   2.186   6.818 -0.3267 -0.1318 -0.5772
  139OSM    C6S15158   2.097   2.273   7.016  0.2609  0.2557 -0.7581
  139OSM    H6S15159   2.202   2.251   7.045 -0.6017 -2.7387  0.4606
  139OSM    H6T15160   2.041   2.187   7.058  3.1151 -0.7328  1.3148
  139OSM    C7S15161   2.038   2.389   7.106  0.2246 -0.3767 -0.0977
  139OSM    H7S15162   1.937   2.432   7.086  1.4912  2.2194 -1.4740
  139OSM    H7T15163   2.109   2.474   7.103 -1.2238  0.9565  1.5850
  139OSM    C8S15164   2.047   2.337   7.252 -0.9474 -0.6491  0.7570
  139OSM    H8S15165   2.145   2.291   7.274 -1.8940 -3.4098 -0.3910
  139OSM    H8T15166   1.976   2.255   7.277  1.8296 -2.9394  1.6938
  139OSM    C9S15167   2.026   2.458   7.345 -0.0459  0.0848 -0.3933
  139OSM    H9S15168   1.929   2.510   7.331 -0.2690 -0.2360 -0.0194
  139OSM    H9T15169   2.104   2.538   7.339  1.4784 -1.1707  1.5680
  139OSM   C10S15170   2.029   2.420   7.491 -0.5705 -0.4367  0.1303
  139OSM   H10S15171   2.126   2.374   7.520 -0.3484 -0.4206 -0.5808
  139OSM   H10T15172   1.946   2.357   7.529  0.0419  0.2546  2.8055
  139OSM   C11S15173   2.003   2.547   7.576 -1.2155 -0.2422 -0.2118
  139OSM   H11S15174   1.900   2.582   7.553 -0.7147  1.0974 -0.5227
  139OSM   H11T15175   2.069   2.620   7.524  0.7575 -0.3201  2.0243
  139OSM   C12S15176   2.033   2.536   7.723 -0.6427  0.5702 -0.4152
  139OSM   H12S15177   2.125   2.477   7.740 -1.5535 -0.8253 -0.2096
  139OSM   H12T15178   1.951   2.466   7.748  1.3127 -1.1033  1.7056
  139OSM   C13S15179   2.014   2.660   7.814 -0.7798 -0.5649 -0.5756
  139OSM   H13S15180   1.923   2.713   7.779  0.1761 -0.3437 -2.9090
  139OSM   H13T15181   2.105   2.720   7.791  0.1435 -0.9170  1.8326
  139OSM   C14S15182   2.036   2.634   7.964 -0.6150  0.2838 -0.3183
  139OSM   H14S15183   2.043   2.721   8.032 -0.1656  0.4028 -0.5184
  139OSM   H14T15184   2.131   2.577   7.965 -1.2800 -0.8718 -0.5601
  139OSM   C15S15185   1.934   2.533   8.023 -0.2139  0.2276 -1.1482
  139OSM   H15S15186   1.971   2.512   8.126 -1.9132  1.2810 -0.2670
  139OSM   H15T15187   1.924   2.435   7.972  0.2868 -0.4934  0.1007
  139OSM   C16S15188   1.795   2.601   8.041 -0.3347  0.8112 -0.5356
  139OSM   H16S15189   1.708   2.533   8.057 -1.1032  1.5156 -1.6156
  139OSM   H16T15190   1.771   2.659   7.949 -1.3208 -1.1539 -1.5968
  139OSM   C17S15191   1.790   2.687   8.167  0.1821  0.7572 -0.5699
  139OSM   H17S15192   1.843   2.783   8.152  0.0732  0.8780 -0.1769
  139OSM   H17T15193   1.841   2.631   8.249  3.0175  0.0945 -2.6408
  139OSM   C18S15194   1.643   2.711   8.208 -0.1465  0.6476  0.2639
  139OSM   H18S15195   1.576   2.725   8.120 -4.1909 -0.9606  2.8243
  139OSM   H18T15196   1.626   2.789   8.286  0.6592  0.7562  0.3421
  139OSM   H18U15197   1.612   2.617   8.257 -1.9550  1.4881  0.8067
  139OSM    C1F15198   2.364   2.485   6.604 -0.0703 -0.4624 -0.5655
  139OSM     OF15199   2.347   2.603   6.595  0.5839 -0.5024 -0.4727
  139OSM    C2F15200   2.495   2.427   6.631  0.2408  0.3960 -0.4742
  139OSM    H2F15201   2.556   2.425   6.539  0.4834  0.7959 -0.3233
  139OSM    H2G15202   2.473   2.322   6.661  0.6839  1.1193  2.7313
  139OSM    C3F15203   2.562   2.486   6.761  0.6071 -0.2221  0.5550
  139OSM    H3F15204   2.570   2.597   6.757 -0.6462 -0.0453  1.9980
  139OSM    H3G15205   2.664   2.443   6.760  1.4445  1.6196 -1.5334
  139OSM    C4F15206   2.508   2.452   6.898 -0.1485 -0.3841 -0.0839
  139OSM    H4F15207   2.540   2.346   6.911  0.5825  0.0089  1.5727
  139OSM    H4G15208   2.397   2.462   6.896 -0.2280 -1.1087 -1.9536
  139OSM    C5F15209   2.563   2.531   7.016  0.2274  0.1071 -0.1221
  139OSM    H5F15210   2.542   2.639   7.000  3.0366  0.7613  0.1700
  139OSM    H5G15211   2.673   2.528   7.025  0.1834 -0.8119  0.2295
  139OSM    C6F15212   2.515   2.484   7.155  0.2601 -0.3366 -0.6262
  139OSM    H6F15213   2.536   2.377   7.175 -1.9001 -0.2492  2.7222
  139OSM    H6G15214   2.406   2.497   7.170  0.5569 -0.5456  2.4050
  139OSM    C7F15215   2.585   2.566   7.264  0.0168 -0.1490 -0.0362
  139OSM    H7F15216   2.551   2.671   7.257  1.2653  0.3849  1.4194
  139OSM    H7G15217   2.694   2.573   7.245  0.1529  1.9523  1.2590
  139OSM    C8F15218   2.557   2.524   7.414 -0.6689  0.1507  0.2928
  139OSM    H8F15219   2.629   2.584   7.474 -1.3746  2.6584 -1.1975
  139OSM    H8G15220   2.576   2.416   7.430 -1.4979 -0.4064 -2.0995
  139OSM    C9F15221   2.413   2.545   7.466 -0.7273 -0.6463  0.4516
  139OSM    H9F15222   2.341   2.491   7.403  0.3547 -0.8814 -0.6131
  139OSM   C10F15223   2.379   2.615   7.574 -0.1952 -0.5151 -0.3796
  139OSM   H10F15224   2.272   2.630   7.597  0.2543  0.8544  1.0130
  139OSM   C11F15225   2.475   2.692   7.666  0.4587 -0.1264  0.3445
  139OSM   H11F15226   2.478   2.801   7.644 -2.4033  0.0387  0.3733
  139OSM   H11G15227   2.575   2.646   7.658 -0.1676 -1.8092  1.5939
  139OSM   C12F15228   2.426   2.672   7.812 -0.0379  0.6365  0.4367
  139OSM   H12F15229   2.404   2.564   7.823 -1.3925  0.7964 -0.4113
  139OSM   H12G15230   2.332   2.730   7.820 -0.1352  1.2029 -3.0570
  139OSM   C13F15231   2.523   2.718   7.917  0.3719  0.2210  0.2359
  139OSM   H13F15232   2.540   2.818   7.873 -2.8098  1.0996  0.7459
  139OSM   H13G15233   2.619   2.663   7.925  0.1615 -0.0818  0.7344
  139OSM   C14F15234   2.451   2.732   8.052 -0.3730  0.4684 -0.3043
  139OSM   H14F15235   2.352   2.782   8.043  0.2516  1.7237 -0.4195
  139OSM   H14G15236   2.514   2.790   8.123 -0.0366  1.6307 -1.5099
  139OSM   C15F15237   2.434   2.596   8.116 -0.7956  0.3431 -0.2293
  139OSM   H15F15238   2.534   2.571   8.158 -0.6934  0.6556 -0.2818
  139OSM   H15G15239   2.390   2.520   8.049 -2.2756  2.1436 -1.4056
  139OSM   C16F15240   2.330   2.612   8.227 -0.2131  0.2823 -0.3262
  139OSM   H16F15241   2.314   2.507   8.259  1.0601 -0.1296 -0.9977
  139OSM   H16G15242   2.235   2.665   8.202 -0.1492  1.1065  1.0285
  139OSM   C17F15243   2.385   2.674   8.361 -0.3401  0.2631 -0.3705
  139OSM   H17F15244   2.428   2.776   8.349  2.2700 -0.8710 -1.2061
  139OSM   H17G15245   2.475   2.614   8.383 -0.1188  0.3355 -1.0452
  139OSM   C18F15246   2.295   2.681   8.482  0.3425 -0.5106  0.3103
  139OSM   H18F15247   2.228   2.592   8.494  1.3056 -1.1772  0.8687
  139OSM   H18G15248   2.217   2.757   8.464 -0.2090 -1.4743 -1.6614
  139OSM   H18H15249   2.350   2.702   8.576 -0.2240 -0.5919  0.6668
  140OSM      N15250   4.029   3.868   6.420 -0.8167  0.3531  0.2857
  140OSM    C1515251   3.927   3.777   6.364  0.2418 -0.1261  0.3822
  140OSM   H15A15252   3.871   3.827   6.287 -2.3025 -0.2554  2.0326
  140OSM   H15B15253   3.859   3.754   6.445 -0.6916 -1.1630 -0.6550
  140OSM   H15C15254   3.965   3.682   6.331 -1.9171 -1.3049  1.1050
  140OSM    C1415255   4.108   3.793   6.533 -0.2209 -0.5711  0.0459
  140OSM   H14A15256   4.150   3.701   6.495 -1.9727 -0.3709 -2.7326
  140OSM   H14B15257   4.036   3.765   6.608 -0.1011  1.0030  0.7798
  140OSM   H14C15258   4.186   3.857   6.571  0.2551 -0.1533 -1.5478
  140OSM    C1315259   4.127   3.907   6.311  0.5701  0.1226  0.7981
  140OSM   H13A15260   4.069   3.964   6.239  0.7836 -1.5898 -0.8081
  140OSM   H13B15261   4.165   3.818   6.263  0.4690 -0.1758  1.2707
  140OSM   H13C15262   4.207   3.960   6.358  1.4391  0.9497 -1.4595
  140OSM    C1215263   3.972   3.994   6.487 -0.2652  0.1787 -0.3556
  140OSM   H12A15264   3.920   4.056   6.415  0.0087 -0.5675 -1.2081
  140OSM   H12B15265   4.051   4.057   6.525 -0.4666 -1.1031  2.4816
  140OSM    C1115266   3.879   3.971   6.615  0.0605  0.2720 -0.6659
  140OSM   H11A15267   3.849   4.064   6.668 -1.7558 -1.0840  0.8450
  140OSM   H11B15268   3.934   3.919   6.696 -0.9338  1.5932  0.9282
  140OSM      P15269   3.645   3.948   6.490  0.1793  0.0893 -0.1325
  140OSM    O1315270   3.692   4.027   6.373  0.4129  0.7086  0.2310
  140OSM    O1415271   3.547   3.837   6.459 -0.4414 -0.9613 -0.5140
  140OSM    O1115272   3.582   4.057   6.595 -0.1984  0.3034  0.2350
  140OSM    O1215273   3.768   3.890   6.570 -0.2784 -0.3809  0.0355
  140OSM    C1S15274   3.565   4.005   6.723  0.3622  0.7407 -0.8532
  140OSM    H1S15275   3.642   3.934   6.760 -0.8900  0.0641  0.6052
  140OSM    H1T15276   3.467   3.952   6.716  1.3834 -1.0105 -3.1433
  140OSM     NF15277   3.571   4.072   6.961 -0.1447 -0.2563  0.1282
  140OSM    HNF15278   3.488   4.066   7.016 -0.6152 -2.5287 -0.7270
  140OSM    C2S15279   3.546   4.119   6.818 -0.7194 -0.0851 -0.2025
  140OSM    H2S15280   3.621   4.194   6.787 -0.3704 -0.7484 -0.9974
  140OSM    C3S15281   3.408   4.187   6.797  0.4474  0.6376  0.5365
  140OSM    H3S15282   3.324   4.123   6.830  0.7844 -1.6549 -2.6017
  140OSM     O315283   3.360   4.201   6.661 -0.0647 -0.8088  0.5962
  140OSM    HO315284   3.428   4.154   6.613  2.3155  1.7031  1.2458
  140OSM    C4S15285   3.400   4.310   6.871  0.3061 -0.1582 -0.0674
  140OSM    H4S15286   3.369   4.288   6.974  0.8052  0.0743  0.1362
  140OSM    C5S15287   3.412   4.435   6.834 -0.3056 -0.4648  0.7569
  140OSM    H5S15288   3.449   4.444   6.731  2.6560  0.5145  1.8123
  140OSM    C6S15289   3.401   4.556   6.920 -0.0488 -0.3111 -0.3319
  140OSM    H6S15290   3.311   4.610   6.885 -0.2538 -0.2784  0.2362
  140OSM    H6T15291   3.484   4.631   6.919  0.3205 -0.6833 -2.6862
  140OSM    C7S15292   3.388   4.516   7.066  0.7205  0.3863 -0.0107
  140OSM    H7S15293   3.466   4.445   7.100 -0.3722 -0.9276 -0.1643
  140OSM    H7T15294   3.295   4.457   7.080  2.1150 -1.5986  1.5666
  140OSM    C8S15295   3.382   4.630   7.168  0.4214  0.9656 -0.7907
  140OSM    H8S15296   3.314   4.713   7.139  0.0773  0.5807 -1.1007
  140OSM    H8T15297   3.484   4.674   7.178 -0.0452  1.9137  0.0218
  140OSM    C9S15298   3.345   4.579   7.312  0.1637  0.0078 -0.4697
  140OSM    H9S15299   3.432   4.514   7.336 -0.0319  0.0946  0.4970
  140OSM    H9T15300   3.253   4.517   7.323  0.6455 -0.3559  2.1258
  140OSM   C10S15301   3.348   4.686   7.424 -0.2873  0.9665  0.4243
  140OSM   H10S15302   3.259   4.752   7.425  0.3440  1.8351  0.1592
  140OSM   H10T15303   3.437   4.750   7.412 -1.1988  1.9971 -1.0973
  140OSM   C11S15304   3.381   4.603   7.559 -0.0967  0.2187 -0.1529
  140OSM   H11S15305   3.486   4.566   7.559  0.2836  1.1840  1.5888
  140OSM   H11T15306   3.310   4.521   7.584  1.5352 -0.2232  3.8308
  140OSM   C12S15307   3.371   4.690   7.686 -0.4668  0.2214 -0.1595
  140OSM   H12S15308   3.276   4.747   7.682  0.6705  2.3206  1.0993
  140OSM   H12T15309   3.449   4.768   7.671 -0.0028 -0.6495 -2.7261
  140OSM   C13S15310   3.389   4.612   7.810  0.4622 -0.6205  0.0119
  140OSM   H13S15311   3.480   4.546   7.809  0.2730 -1.0512  2.8353
  140OSM   H13T15312   3.302   4.546   7.833  0.4310 -0.7679 -0.5138
  140OSM   C14S15313   3.407   4.693   7.934  0.0549  0.0437 -0.3323
  140OSM   H14S15314   3.313   4.741   7.969 -0.0639  1.1330 -2.0256
  140OSM   H14T15315   3.486   4.768   7.910 -3.0848  4.9081  2.6498
  140OSM   C15S15316   3.484   4.611   8.042 -0.0251 -0.2816  0.1032
  140OSM   H15S15317   3.575   4.569   7.993  0.8870  2.4128 -0.7461
  140OSM   H15T15318   3.419   4.530   8.079 -2.0793  1.8045  1.3685
  140OSM   C16S15319   3.529   4.692   8.163 -0.5761 -0.7371 -0.4419
  140OSM   H16S15320   3.448   4.763   8.188  1.1180  1.3622 -0.6541
  140OSM   H16T15321   3.614   4.760   8.143 -2.0435  0.6935 -2.1769
  140OSM   C17S15322   3.565   4.600   8.283 -0.5826 -0.1710 -0.1983
  140OSM   H17S15323   3.661   4.550   8.257 -0.9460 -1.7431  1.2956
  140OSM   H17T15324   3.494   4.515   8.296 -0.9445  0.0049 -0.9969
  140OSM   C18S15325   3.568   4.660   8.424 -0.0971 -0.1713  0.1655
  140OSM   H18S15326   3.580   4.587   8.507  1.0538  0.3520  0.4740
  140OSM   H18T15327   3.470   4.708   8.448  0.7789  2.4515 -1.1213
  140OSM   H18U15328   3.647   4.738   8.429  0.3132 -0.0210 -4.5158
  140OSM    C1F15329   3.689   4.018   6.997 -0.0301  0.8471 -0.6223
  140OSM     OF15330   3.785   4.008   6.923  0.1154  0.2671  0.3342
  140OSM    C2F15331   3.692   3.947   7.129  0.5084  0.3072  0.0292
  140OSM    H2F15332   3.747   3.851   7.116 -2.2160 -1.4261  0.4722
  140OSM    H2G15333   3.590   3.913   7.156  0.4718 -0.3310 -0.8640
  140OSM    C3F15334   3.755   4.028   7.243 -0.2376 -0.5538  0.4310
  140OSM    H3F15335   3.679   4.096   7.286 -2.1664 -2.5332  0.3079
  140OSM    H3G15336   3.835   4.087   7.193 -2.3422 -0.3341 -3.0220
  140OSM    C4F15337   3.794   3.938   7.359  0.1801  0.3554  0.2755
  140OSM    H4F15338   3.886   3.881   7.334  0.3758  1.7230 -2.4325
  140OSM    H4G15339   3.717   3.861   7.379 -0.1125  0.5626 -0.0483
  140OSM    C5F15340   3.811   4.014   7.485 -0.2420  0.7713 -0.1261
  140OSM    H5F15341   3.717   4.072   7.493 -0.6783  0.2439 -1.2945
  140OSM    H5G15342   3.896   4.083   7.466 -0.6672  0.9986 -1.2347
  140OSM    C6F15343   3.841   3.922   7.604 -0.5747  0.3040 -0.2497
  140OSM    H6F15344   3.947   3.888   7.600 -0.5170  0.5272 -0.6496
  140OSM    H6G15345   3.777   3.831   7.605  0.0662 -0.2405  2.7838
  140OSM    C7F15346   3.840   3.996   7.733  0.7676 -0.1214 -0.4277
  140OSM    H7F15347   3.746   4.054   7.742  0.3956 -0.9780  2.6423
  140OSM    H7G15348   3.931   4.061   7.734 -0.7921  2.2077  0.9844
  140OSM    C8F15349   3.850   3.913   7.865  0.6957  0.2216  0.3133
  140OSM    H8F15350   3.945   3.855   7.868  0.5804 -0.0567 -0.8682
  140OSM    H8G15351   3.770   3.836   7.866  1.2356 -0.3376  0.7173
  140OSM    C9F15352   3.826   3.990   7.990 -0.6456 -0.2293  0.0348
  140OSM    H9F15353   3.785   4.092   7.980  0.0237  0.2375  1.6531
  140OSM   C10F15354   3.870   3.957   8.115  0.1101 -0.7649 -0.2466
  140OSM   H10F15355   3.848   4.014   8.207  1.5052 -2.1397  0.9963
  140OSM   C11F15356   3.933   3.826   8.150 -0.7138  0.5177  0.3868
  140OSM   H11F15357   4.042   3.846   8.141 -0.2940 -1.3809  0.7270
  140OSM   H11G15358   3.917   3.749   8.071  0.6658 -1.5490  2.0136
  140OSM   C12F15359   3.909   3.767   8.281 -0.1297  0.5144  0.1189
  140OSM   H12F15360   3.959   3.826   8.361  0.6336  1.4927 -1.0625
  140OSM   H12G15361   3.951   3.664   8.272 -2.8966 -0.5986 -0.9746
  140OSM   C13F15362   3.766   3.744   8.309  0.4605 -0.3018 -0.1262
  140OSM   H13F15363   3.721   3.691   8.223 -1.3303 -1.5842  1.5000
  140OSM   H13G15364   3.709   3.839   8.311 -2.0861 -1.7293 -0.9712
  140OSM   C14F15365   3.730   3.642   8.421  0.0207  0.2145  0.5672
  140OSM   H14F15366   3.779   3.680   8.514  1.9324 -1.6547  0.4101
  140OSM   H14G15367   3.774   3.544   8.393 -1.4789 -0.5598  0.8440
  140OSM   C15F15368   3.577   3.631   8.447  0.3548  0.5872 -0.0513
  140OSM   H15F15369   3.527   3.621   8.349  0.4544  1.8518 -0.2376
  140OSM   H15G15370   3.536   3.726   8.487  1.4065  0.8801  0.3599
  140OSM   C16F15371   3.530   3.522   8.540 -0.0259 -0.1640  0.2400
  140OSM   H16F15372   3.556   3.423   8.496  3.7683 -0.2919  2.3030
  140OSM   H16G15373   3.420   3.530   8.542  0.0952  1.6533  1.1999
  140OSM   C17F15374   3.587   3.537   8.683 -0.2291  0.5872  0.4458
  140OSM   H17F15375   3.617   3.639   8.715 -0.0695  0.8403 -0.4797
  140OSM   H17G15376   3.685   3.483   8.677 -0.5506 -0.0147  0.4795
  140OSM   C18F15377   3.501   3.470   8.789  0.2606 -0.0827  0.0186
  140OSM   H18F15378   3.405   3.527   8.796 -0.3064 -0.9382 -0.6104
  140OSM   H18G15379   3.547   3.482   8.890 -2.2716 -1.6777  1.4700
  140OSM   H18H15380   3.477   3.363   8.774 -0.8621  0.0900  0.4941
  141OSM      N15381   1.838   4.075   6.108 -0.5889  0.3671 -0.3758
  141OSM    C1515382   1.735   4.029   6.009 -0.2621 -0.3971  0.6679
  141OSM   H15A15383   1.656   3.977   6.061  0.4747  0.3168  2.6026
  141OSM   H15B15384   1.774   3.959   5.936  1.1423 -0.1190  1.1133
  141OSM   H15C15385   1.680   4.104   5.954  0.3671  0.4244  1.1350
  141OSM    C1415386   1.957   4.110   6.022  0.4785  0.2418 -0.0646
  141OSM   H14A15387   2.005   4.018   5.992  1.1633  0.5759 -0.0315
  141OSM   H14B15388   2.025   4.164   6.087  2.1342 -0.8737 -0.8108
  141OSM   H14C15389   1.934   4.168   5.934  0.3755  0.3300  0.0208
  141OSM    C1315390   1.788   4.193   6.168  0.1898  0.6978  0.3167
  141OSM   H13A15391   1.770   4.265   6.090  0.6175  1.0220  0.5089
  141OSM   H13B15392   1.858   4.227   6.243  0.8448 -0.2236  0.1367
  141OSM   H13C15393   1.697   4.171   6.223 -1.6518  0.2824 -2.6895
  141OSM    C1215394   1.874   3.961   6.189  0.1809 -0.2361  0.1150
  141OSM   H12A15395   1.904   3.877   6.128 -1.0314 -0.1528 -0.6324
  141OSM   H12B15396   1.787   3.921   6.239  0.3683 -0.5188  0.2191
  141OSM    C1115397   1.977   3.983   6.306  0.0839 -0.2410  0.1688
  141OSM   H11A15398   1.973   3.894   6.373  0.1379  1.5964  2.7763
  141OSM   H11B15399   1.934   4.061   6.373  0.2515  0.7452 -0.8515
  141OSM      P15400   2.209   4.112   6.324  0.1881 -0.0053  0.2169
  141OSM    O1315401   2.340   4.051   6.350  0.1780 -0.7403 -0.0516
  141OSM    O1415402   2.205   4.222   6.228  0.5786  0.0056  0.3820
  141OSM    O1115403   2.158   4.162   6.463 -0.0747  0.7644  0.1457
  141OSM    O1215404   2.109   4.008   6.270 -0.0849  0.1035  0.2429
  141OSM    C1S15405   2.153   4.083   6.578 -0.4318  0.7543 -0.0440
  141OSM    H1S15406   2.258   4.052   6.596 -1.4760 -3.9173 -0.8013
  141OSM    H1T15407   2.083   3.998   6.564  0.0660  0.2386  0.5505
  141OSM     NF15408   2.125   4.097   6.821 -0.2391 -0.0767 -0.2437
  141OSM    HNF15409   2.038   4.087   6.870  0.2997  0.0866  0.7777
  141OSM    C2S15410   2.104   4.166   6.700  0.4590 -0.0925 -0.0360
  141OSM    H2S15411   2.167   4.257   6.704 -0.3375  0.5140 -1.0137
  141OSM    C3S15412   1.964   4.219   6.680 -0.3798  0.4895  0.1833
  141OSM    H3S15413   1.890   4.136   6.687 -1.3110  1.3250  0.6153
  141OSM     O315414   1.942   4.278   6.553  0.2099  0.2886 -0.2461
  141OSM    HO315415   2.009   4.230   6.505  0.5846 -0.2870  0.8370
  141OSM    C4S15416   1.924   4.310   6.798 -0.4184 -0.6239 -0.3736
  141OSM    H4S15417   1.893   4.258   6.890  0.4271 -1.2388 -0.4231
  141OSM    C5S15418   1.919   4.445   6.801  0.0762 -1.0548 -0.1657
  141OSM    H5S15419   1.930   4.512   6.714 -3.4615 -1.4765 -1.1130
  141OSM    C6S15420   1.868   4.525   6.924 -0.6009 -0.6367 -0.8962
  141OSM    H6S15421   1.780   4.588   6.901 -0.4960 -0.2615 -0.2767
  141OSM    H6T15422   1.958   4.586   6.948 -2.6021  1.3966  2.0514
  141OSM    C7S15423   1.844   4.441   7.051  1.1731  0.1591  0.9618
  141OSM    H7S15424   1.928   4.368   7.060  0.3067 -1.2116 -1.2589
  141OSM    H7T15425   1.750   4.381   7.044  1.2959  0.0586  0.1661
  141OSM    C8S15426   1.820   4.518   7.174 -0.7509 -0.8785  0.0670
  141OSM    H8S15427   1.777   4.447   7.249 -1.0808  1.2007  1.9759
  141OSM    H8T15428   1.745   4.595   7.145  0.0293 -0.7582 -1.7316
  141OSM    C9S15429   1.947   4.598   7.234 -0.1828  0.1645  0.0044
  141OSM    H9S15430   1.999   4.648   7.150  0.6067 -0.6142  0.0139
  141OSM    H9T15431   2.003   4.514   7.281 -2.4974 -1.3116  0.3027
  141OSM   C10S15432   1.910   4.699   7.343  0.5730 -0.1173 -0.6836
  141OSM   H10S15433   1.850   4.653   7.424  2.1237  3.0507  2.5075
  141OSM   H10T15434   1.851   4.781   7.296  0.8652  1.2319  1.1906
  141OSM   C11S15435   2.029   4.771   7.403  0.5067 -0.4887 -0.4147
  141OSM   H11S15436   2.072   4.829   7.319 -1.6591 -0.2047 -1.4014
  141OSM   H11T15437   2.105   4.697   7.436  0.0599 -0.2378  1.2967
  141OSM   C12S15438   1.992   4.854   7.526  0.0072  0.0155  0.4449
  141OSM   H12S15439   1.883   4.867   7.507  0.2370 -0.6457 -1.6103
  141OSM   H12T15440   2.048   4.950   7.523 -1.7942  1.1501  1.1135
  141OSM   C13S15441   2.020   4.780   7.655  0.2126  0.3710  0.4479
  141OSM   H13S15442   2.125   4.752   7.678 -0.7731 -0.3457  5.2534
  141OSM   H13T15443   1.962   4.685   7.648  0.6812  0.2255 -2.4167
  141OSM   C14S15444   1.956   4.853   7.772 -0.9598  0.3085 -0.5019
  141OSM   H14S15445   1.850   4.878   7.750 -1.7056 -1.7482  0.4428
  141OSM   H14T15446   2.018   4.941   7.800  1.3394 -0.9221 -1.4427
  141OSM   C15S15447   1.963   4.768   7.898 -0.8169 -0.0033  0.1240
  141OSM   H15S15448   2.071   4.746   7.913 -0.8986 -0.0360  0.6878
  141OSM   H15T15449   1.903   4.675   7.887  0.6454 -0.7361 -2.9129
  141OSM   C16S15450   1.931   4.853   8.022  0.1406  0.0522 -0.3535
  141OSM   H16S15451   2.012   4.929   8.034 -1.4681  1.8863 -0.6494
  141OSM   H16T15452   1.929   4.799   8.118 -1.1707  1.8191  0.6635
  141OSM   C17S15453   1.799   4.934   8.004 -0.1974 -0.4702 -0.7790
  141OSM   H17S15454   1.711   4.867   7.996 -1.4103  1.1424 -1.5033
  141OSM   H17T15455   1.802   4.997   7.912 -0.7713 -0.0162 -0.4897
  141OSM   C18S15456   1.777   5.024   8.125  0.4839 -0.1036 -0.1855
  141OSM   H18S15457   1.818   4.984   8.220 -0.1066 -0.7993 -0.2114
  141OSM   H18T15458   1.668   5.043   8.134  0.3274 -0.9203 -0.2312
  141OSM   H18U15459   1.823   5.125   8.119  0.4204 -0.0556  0.1086
  141OSM    C1F15460   2.238   4.043   6.865  0.2283 -0.0263  0.6829
  141OSM     OF15461   2.339   4.063   6.804  0.2822  0.4951  0.1451
  141OSM    C2F15462   2.230   3.957   6.983 -0.5708  0.1343 -0.0690
  141OSM    H2F15463   2.154   3.877   6.967 -0.7900  0.4373 -0.5430
  141OSM    H2G15464   2.197   4.010   7.075  0.6543 -1.0790  1.1174
  141OSM    C3F15465   2.373   3.906   7.018 -0.8124 -0.3250 -0.4741
  141OSM    H3F15466   2.423   3.994   7.063 -1.5792  0.4611 -1.1059
  141OSM    H3G15467   2.417   3.857   6.929 -0.6623 -0.3357 -0.3927
  141OSM    C4F15468   2.383   3.824   7.140  0.5068  0.5788  0.6320
  141OSM    H4F15469   2.484   3.781   7.153  0.3501  0.1461  0.4438
  141OSM    H4G15470   2.313   3.739   7.122 -0.7128  1.5823  0.5308
  141OSM    C5F15471   2.349   3.906   7.266 -0.3130  0.2722  0.3711
  141OSM    H5F15472   2.253   3.960   7.257 -0.2790  0.1799 -0.8082
  141OSM    H5G15473   2.418   3.992   7.279 -0.6616  0.8392 -1.2430
  141OSM    C6F15474   2.348   3.821   7.388 -0.0831 -0.0357  0.2189
  141OSM    H6F15475   2.441   3.759   7.389  1.1016  1.4948 -2.6567
  141OSM    H6G15476   2.251   3.768   7.401 -0.9011  1.4739  0.5082
  141OSM    C7F15477   2.359   3.907   7.509 -0.4889 -0.4025 -0.5715
  141OSM    H7F15478   2.314   4.008   7.499  0.1202 -0.0319  0.3336
  141OSM    H7G15479   2.467   3.930   7.523 -0.1173 -1.3568 -1.7100
  141OSM    C8F15480   2.301   3.843   7.637  0.5626  0.6146 -0.3519
  141OSM    H8F15481   2.343   3.741   7.650  1.2231  0.6706 -1.8300
  141OSM    H8G15482   2.193   3.833   7.613  0.8019 -1.1089 -0.8447
  141OSM    C9F15483   2.322   3.920   7.762 -0.0261 -0.2683 -0.3026
  141OSM    H9F15484   2.271   4.017   7.775  2.3040  1.0331 -0.2621
  141OSM   C10F15485   2.410   3.889   7.860  0.2525 -0.3520 -0.2852
  141OSM   H10F15486   2.406   3.943   7.956  0.8754  0.3786 -0.6576
  141OSM   C11F15487   2.498   3.771   7.865 -0.6492  0.6411 -0.0656
  141OSM   H11F15488   2.599   3.789   7.907 -0.9755  0.8240  0.6687
  141OSM   H11G15489   2.526   3.737   7.763 -2.0954  1.0530 -0.6203
  141OSM   C12F15490   2.452   3.644   7.949  0.2172 -0.2001 -0.1944
  141OSM   H12F15491   2.517   3.559   7.918 -0.4952  0.0796 -2.6332
  141OSM   H12G15492   2.351   3.619   7.913 -0.3729  2.7363 -0.8414
  141OSM   C13F15493   2.439   3.670   8.100  0.1519 -0.0576  0.2668
  141OSM   H13F15494   2.349   3.620   8.141 -0.6204  2.0273  1.2444
  141OSM   H13G15495   2.418   3.779   8.101 -1.4868 -0.2888 -1.6293
  141OSM   C14F15496   2.551   3.631   8.192 -0.2166  0.0049 -0.4383
  141OSM   H14F15497   2.651   3.671   8.166 -0.0339  0.1752  0.4737
  141OSM   H14G15498   2.578   3.523   8.199  1.4103  0.4722  1.4551
  141OSM   C15F15499   2.527   3.677   8.337  0.1694 -0.3136  0.5094
  141OSM   H15F15500   2.445   3.622   8.387  0.2809  0.3239  1.4228
  141OSM   H15G15501   2.482   3.779   8.334 -0.7062 -0.6983 -0.8334
  141OSM   C16F15502   2.654   3.682   8.424 -0.2911  0.9749  0.7121
  141OSM   H16F15503   2.716   3.757   8.371 -0.4625 -0.4857 -1.7164
  141OSM   H16G15504   2.693   3.578   8.426 -0.6170  0.7362 -1.8371
  141OSM   C17F15505   2.632   3.720   8.570  0.3145 -0.4447 -0.6695
  141OSM   H17F15506   2.527   3.700   8.603  0.2847 -0.8911 -1.0247
  141OSM   H17G15507   2.644   3.830   8.564  0.2930 -0.4810 -1.4225
  141OSM   C18F15508   2.721   3.654   8.673  0.0485 -0.0728 -1.0768
  141OSM   H18F15509   2.828   3.662   8.646  0.4574 -3.1897 -0.7161
  141OSM   H18G15510   2.704   3.545   8.678  0.4476 -0.0969 -0.0168
  141OSM   H18H15511   2.696   3.694   8.774  1.5361  1.5526 -1.3048
  142OSM      N15512   4.120   5.870   6.055  0.1689 -0.2761 -0.0532
  142OSM    C1515513   4.101   6.013   6.107 -0.3912  0.1234  0.6061
  142OSM   H15A15514   4.063   6.008   6.208 -1.7463 -2.0519  0.0531
  142OSM   H15B15515   4.021   6.059   6.052 -0.7680 -0.1727  0.9076
  142OSM   H15C15516   4.192   6.072   6.103  0.3952 -1.0199  1.0426
  142OSM    C1415517   4.114   5.871   5.907  0.7407  0.4973 -0.3433
  142OSM   H14A15518   4.185   5.944   5.873  1.0106  0.4670  0.1487
  142OSM   H14B15519   4.020   5.912   5.873  0.1047 -0.1099  0.6131
  142OSM   H14C15520   4.137   5.775   5.862 -0.9328 -1.0902  1.9352
  142OSM    C1315521   4.248   5.811   6.109  0.0340  0.0333  0.5142
  142OSM   H13A15522   4.246   5.815   6.217  1.5873  0.5682  0.5396
  142OSM   H13B15523   4.326   5.878   6.077 -0.7099  1.5694  1.7754
  142OSM   H13C15524   4.272   5.710   6.079 -0.2870  0.2938 -0.7000
  142OSM    C1215525   4.004   5.784   6.106 -0.2430 -0.1080  0.2661
  142OSM   H12A15526   4.006   5.695   6.046 -2.9789 -1.3024  1.7639
  142OSM   H12B15527   3.907   5.826   6.081 -0.0933  0.3791  0.4820
  142OSM    C1115528   3.984   5.757   6.255  0.0523 -0.3048  0.2935
  142OSM   H11A15529   4.083   5.719   6.290  1.7220  2.6258 -0.8573
  142OSM   H11B15530   3.909   5.677   6.273  1.4835 -1.6428  0.5782
  142OSM      P15531   3.799   5.923   6.326 -0.4428 -0.3667  0.1334
  142OSM    O1315532   3.781   6.045   6.407  0.6413  0.7754  0.5070
  142OSM    O1415533   3.750   5.927   6.190 -0.5470  0.3235 -0.3951
  142OSM    O1115534   3.725   5.798   6.395  0.1435 -0.7277 -0.1713
  142OSM    O1215535   3.955   5.881   6.330 -0.3293 -0.0562  1.0243
  142OSM    C1S15536   3.756   5.745   6.524 -0.0082 -0.4305 -0.5167
  142OSM    H1S15537   3.866   5.736   6.529 -0.0345 -0.2789  1.0064
  142OSM    H1T15538   3.725   5.639   6.526  0.9371 -0.7136  1.0057
  142OSM     NF15539   3.753   5.775   6.767  0.3997  0.4027  0.2160
  142OSM    HNF15540   3.702   5.712   6.825  2.3509 -3.0637 -1.5308
  142OSM    C2S15541   3.687   5.829   6.643 -0.2956 -0.2051 -0.4416
  142OSM    H2S15542   3.717   5.934   6.625 -0.1677 -0.4581 -1.8297
  142OSM    C3S15543   3.534   5.816   6.637 -0.2540  0.6309 -0.7834
  142OSM    H3S15544   3.519   5.706   6.642  0.6447  0.5544  1.3112
  142OSM     O315545   3.476   5.867   6.521  0.3204 -0.2421 -0.5552
  142OSM    HO315546   3.549   5.882   6.460 -0.7269 -0.5375 -1.9224
  142OSM    C4S15547   3.469   5.878   6.764  0.2263  0.2611 -0.2614
  142OSM    H4S15548   3.535   5.952   6.812  0.2704  0.0068  0.0690
  142OSM    C5S15549   3.358   5.831   6.829  0.0418  0.6634 -0.3725
  142OSM    H5S15550   3.301   5.742   6.797  1.8557 -1.2855  1.5208
  142OSM    C6S15551   3.326   5.888   6.965  0.6443 -0.4404 -0.7240
  142OSM    H6S15552   3.359   5.810   7.036  0.3481 -0.8143 -0.9873
  142OSM    H6T15553   3.215   5.881   6.977  0.8624  0.6580  3.3785
  142OSM    C7S15554   3.375   6.031   7.001  0.2763  0.3676  0.0779
  142OSM    H7S15555   3.339   6.094   6.918 -0.3364  0.2795  0.2689
  142OSM    H7T15556   3.485   6.043   7.011  0.4198  0.9396 -1.8645
  142OSM    C8S15557   3.309   6.080   7.127  0.0889  0.7906  0.2928
  142OSM    H8S15558   3.315   5.992   7.194  1.9663  0.3193 -0.4387
  142OSM    H8T15559   3.199   6.093   7.115  0.4124  0.9094 -4.2806
  142OSM    C9S15560   3.363   6.210   7.193 -0.2443 -0.0490  0.1524
  142OSM    H9S15561   3.336   6.300   7.134  0.5586  0.9777  1.2976
  142OSM    H9T15562   3.474   6.211   7.191 -0.2606  0.1936 -0.6271
  142OSM   C10S15563   3.307   6.219   7.335  0.6072 -0.4848 -0.4157
  142OSM   H10S15564   3.315   6.119   7.383  2.2360 -0.3326 -0.2987
  142OSM   H10T15565   3.198   6.236   7.338  0.7498  0.3524  0.9011
  142OSM   C11S15566   3.380   6.307   7.429 -0.2830  0.3117 -0.6488
  142OSM   H11S15567   3.367   6.411   7.393 -3.5821 -0.5478 -2.3163
  142OSM   H11T15568   3.487   6.276   7.427 -0.0220  1.1711 -0.5875
  142OSM   C12S15569   3.342   6.311   7.577 -0.0501  0.2131 -0.5169
  142OSM   H12S15570   3.253   6.376   7.591  0.9579  1.0800  2.6387
  142OSM   H12T15571   3.419   6.372   7.628  1.4840 -2.0378 -0.0129
  142OSM   C13S15572   3.324   6.178   7.646  0.6116 -0.2369  0.6754
  142OSM   H13S15573   3.412   6.114   7.624 -1.1104 -3.3977  2.2323
  142OSM   H13T15574   3.231   6.132   7.606  1.1471 -1.5618  0.8967
  142OSM   C14S15575   3.338   6.193   7.794  0.6695  0.5412  0.5449
  142OSM   H14S15576   3.436   6.244   7.808  1.8288 -0.4186 -3.1320
  142OSM   H14T15577   3.337   6.098   7.853  1.1304  0.3939  0.3212
  142OSM   C15S15578   3.214   6.269   7.853 -0.0686  0.4195  1.5348
  142OSM   H15S15579   3.116   6.230   7.816  1.3520 -0.7899 -1.2332
  142OSM   H15T15580   3.218   6.371   7.811 -1.2366 -0.8483 -2.0782
  142OSM   C16S15581   3.194   6.279   8.008  0.3645 -0.0839  0.0792
  142OSM   H16S15582   3.185   6.172   8.037 -0.9618 -0.0350 -0.0826
  142OSM   H16T15583   3.108   6.335   8.051  2.1076  1.9719  1.0791
  142OSM   C17S15584   3.317   6.339   8.077 -0.2774  0.5614  0.4871
  142OSM   H17S15585   3.326   6.449   8.061 -1.9760  0.9501  1.8831
  142OSM   H17T15586   3.413   6.295   8.041 -0.4890 -0.6054  1.3152
  142OSM   C18S15587   3.323   6.330   8.231  0.4488  0.0589  0.7697
  142OSM   H18S15588   3.297   6.225   8.256  2.4486 -0.7993 -0.4957
  142OSM   H18T15589   3.252   6.405   8.272 -0.3014 -0.1506 -0.1026
  142OSM   H18U15590   3.426   6.349   8.267  1.2840 -1.9517 -0.3964
  142OSM    C1F15591   3.885   5.800   6.796 -0.1116 -0.2700 -0.6679
  142OSM     OF15592   3.960   5.858   6.715  0.2077  0.1830 -0.7215
  142OSM    C2F15593   3.928   5.756   6.927 -0.3223  0.5679  0.2353
  142OSM    H2F15594   3.997   5.671   6.911  0.0333  0.6449  1.2805
  142OSM    H2G15595   3.839   5.718   6.982 -0.1513  0.6672  0.5812
  142OSM    C3F15596   3.990   5.873   7.009 -1.0930  0.1113 -0.4669
  142OSM    H3F15597   4.080   5.903   6.953 -0.1100  0.8213  1.3951
  142OSM    H3G15598   4.030   5.830   7.104  0.3147  2.1052 -0.1001
  142OSM    C4F15599   3.900   5.993   7.034 -0.0092  0.1481 -0.9205
  142OSM    H4F15600   3.889   6.058   6.944 -0.0487  0.3325 -0.7835
  142OSM    H4G15601   3.946   6.067   7.103 -1.6639  2.1164 -1.8081
  142OSM    C5F15602   3.765   5.963   7.090  0.8977 -0.2100 -0.0743
  142OSM    H5F15603   3.706   5.926   7.004 -0.0494  1.3542 -0.1420
  142OSM    H5G15604   3.723   6.055   7.137 -1.0385 -0.3101 -1.4874
  142OSM    C6F15605   3.764   5.878   7.222 -0.0059  0.3411  0.8372
  142OSM    H6F15606   3.826   5.937   7.293  0.2397 -0.1821  1.0582
  142OSM    H6G15607   3.808   5.776   7.214 -0.3693 -0.0231  3.0189
  142OSM    C7F15608   3.635   5.842   7.302 -0.0952 -0.0695  0.3017
  142OSM    H7F15609   3.663   5.764   7.376  0.6942 -0.3112 -0.2454
  142OSM    H7G15610   3.560   5.790   7.238 -0.3894 -0.6950  1.1364
  142OSM    C8F15611   3.570   5.964   7.376 -0.3780  0.4090 -0.2826
  142OSM    H8F15612   3.481   5.926   7.430 -0.8659  1.8504 -0.0295
  142OSM    H8G15613   3.541   6.039   7.299 -2.9850 -0.3485 -0.1036
  142OSM    C9F15614   3.663   6.029   7.471  0.0558  0.2532 -0.5736
  142OSM    H9F15615   3.712   6.124   7.446 -1.0723  0.7995 -0.7751
  142OSM   C10F15616   3.696   5.971   7.590  0.0628 -0.2330 -0.0284
  142OSM   H10F15617   3.762   6.018   7.664  0.8108 -3.0528  1.2191
  142OSM   C11F15618   3.649   5.846   7.658  0.5977  0.0424  0.3581
  142OSM   H11F15619   3.734   5.779   7.684  1.0319  0.4797  0.0985
  142OSM   H11G15620   3.590   5.785   7.587  0.4653 -0.2939  0.7542
  142OSM   C12F15621   3.554   5.860   7.782  0.2007  0.9335 -0.1263
  142OSM   H12F15622   3.474   5.784   7.794  0.1547  0.8750 -0.7905
  142OSM   H12G15623   3.496   5.955   7.771  0.1185  1.0178  0.9318
  142OSM   C13F15624   3.629   5.863   7.924  0.5592 -0.4979 -0.0825
  142OSM   H13F15625   3.715   5.930   7.905  0.5182 -0.7464 -1.2031
  142OSM   H13G15626   3.659   5.757   7.941  1.0118  0.0131  2.8660
  142OSM   C14F15627   3.548   5.930   8.035  0.0475 -0.1322 -0.4779
  142OSM   H14F15628   3.458   5.867   8.053  0.9838 -0.8302  2.2694
  142OSM   H14G15629   3.515   6.033   8.011  4.2480  1.4362 -0.4195
  142OSM   C15F15630   3.628   5.935   8.165  1.1049 -0.7549  0.8352
  142OSM   H15F15631   3.735   5.954   8.141  0.5386 -0.1963 -1.4914
  142OSM   H15G15632   3.614   5.833   8.206  0.8314 -0.9468  0.2733
  142OSM   C16F15633   3.583   6.044   8.264 -0.6758 -0.0780 -0.9029
  142OSM   H16F15634   3.474   6.044   8.286 -0.2843  3.3797  1.9481
  142OSM   H16G15635   3.611   6.146   8.229  2.3934 -0.1251  0.9697
  142OSM   C17F15636   3.655   6.037   8.405  0.8302  1.0982 -0.1342
  142OSM   H17F15637   3.762   6.009   8.390  0.6222  0.4215 -0.3971
  142OSM   H17G15638   3.612   5.955   8.467  1.3399  1.1844  0.3466
  142OSM   C18F15639   3.645   6.165   8.487 -0.3018 -0.3483 -0.2245
  142OSM   H18F15640   3.704   6.160   8.581  1.0861  1.8870 -0.8905
  142OSM   H18G15641   3.540   6.198   8.502 -0.7480  0.5690 -4.1132
  142OSM   H18H15642   3.694   6.247   8.429  0.4690  1.4183  2.7218
  143OSM      N15643   5.252   2.516   6.409  0.2970 -0.2063 -0.4599
  143OSM    C1515644   5.150   2.607   6.339 -0.5331 -0.3203 -0.2767
  143OSM   H15A15645   5.150   2.577   6.235 -0.2776  0.4304 -0.5019
  143OSM   H15B15646   5.184   2.710   6.336 -0.1658 -0.4443 -0.4245
  143OSM   H15C15647   5.051   2.595   6.381 -0.6501 -0.7790 -0.6779
  143OSM    C1415648   5.276   2.578   6.544  0.3487  0.9610  0.3810
  143OSM   H14A15649   5.330   2.671   6.537 -0.0890  1.2374  0.6852
  143OSM   H14B15650   5.330   2.518   6.615  1.6402  2.0795  0.3923
  143OSM   H14C15651   5.184   2.604   6.592  0.5581  1.4175  0.5365
  143OSM    C1315652   5.188   2.383   6.424  0.1169 -0.2089  0.4203
  143OSM   H13A15653   5.100   2.381   6.487 -1.2438 -0.1013 -1.3688
  143OSM   H13B15654   5.260   2.317   6.470  0.6347  2.1170  3.2557
  143OSM   H13C15655   5.155   2.344   6.328  0.3802  1.2032 -0.2643
  143OSM    C1215656   5.384   2.507   6.343  0.1983  0.4635  0.2258
  143OSM   H12A15657   5.430   2.604   6.352 -2.8055  2.0788 -0.4108
  143OSM   H12B15658   5.374   2.482   6.238  1.3192  1.8547 -0.2429
  143OSM    C1115659   5.493   2.402   6.394  0.7144 -0.2037 -0.1041
  143OSM   H11A15660   5.525   2.420   6.499  5.3403  0.9079 -1.4512
  143OSM   H11B15661   5.591   2.423   6.346  0.7200 -0.4642 -0.2064
  143OSM      P15662   5.539   2.145   6.428 -0.2074  0.2974 -0.0654
  143OSM    O1315663   5.534   2.029   6.338 -0.7899  0.1691  0.3594
  143OSM    O1415664   5.674   2.202   6.465  0.1124  0.1821 -0.3849
  143OSM    O1115665   5.464   2.110   6.554 -0.2640 -0.2190 -0.1675
  143OSM    O1215666   5.455   2.262   6.372 -0.3729 -0.0904  0.1737
  143OSM    C1S15667   5.403   2.185   6.656 -0.1630 -0.3228 -0.6268
  143OSM    H1S15668   5.300   2.206   6.617  0.1798  2.0357 -0.4377
  143OSM    H1T15669   5.442   2.289   6.663 -0.2325 -0.2905 -0.7093
  143OSM     NF15670   5.352   2.215   6.897 -0.2098 -0.1516  0.1200
  143OSM    HNF15671   5.409   2.282   6.945 -1.3795  1.6141 -0.8192
  143OSM    C2S15672   5.406   2.119   6.795 -0.5500 -0.6583  0.0361
  143OSM    H2S15673   5.341   2.029   6.796 -0.9836 -0.3465 -0.0358
  143OSM    C3S15674   5.549   2.077   6.833 -0.1578 -0.1757  0.4907
  143OSM    H3S15675   5.621   2.162   6.833  1.2626 -1.3218  1.5210
  143OSM     O315676   5.604   1.991   6.732 -0.4368  0.3190 -0.0274
  143OSM    HO315677   5.544   1.996   6.657 -0.0996 -0.4855 -0.3568
  143OSM    C4S15678   5.549   2.015   6.969 -0.5199 -0.5132 -0.3581
  143OSM    H4S15679   5.555   2.088   7.052 -2.2447 -0.3099 -0.3706
  143OSM    C5S15680   5.541   1.883   7.001  0.5847  0.1289 -0.7997
  143OSM    H5S15681   5.554   1.799   6.932  2.3636 -1.4775  1.3259
  143OSM    C6S15682   5.540   1.823   7.142  0.7599 -0.6487  0.0246
  143OSM    H6S15683   5.639   1.775   7.151  0.6366 -0.9071  0.0106
  143OSM    H6T15684   5.455   1.751   7.142  0.3400 -0.1684 -0.6373
  143OSM    C7S15685   5.516   1.921   7.259  0.3144 -0.4495  0.7736
  143OSM    H7S15686   5.412   1.952   7.237  0.7275  0.0443 -0.5577
  143OSM    H7T15687   5.583   2.010   7.254 -2.6972  1.8709 -1.6647
  143OSM    C8S15688   5.515   1.853   7.398 -0.0359 -0.3064 -0.1797
  143OSM    H8S15689   5.617   1.809   7.401  0.2944  0.4339 -0.3306
  143OSM    H8T15690   5.444   1.767   7.404  0.0586 -0.5155 -1.5968
  143OSM    C9S15691   5.491   1.952   7.508 -0.2364  1.2530 -0.6962
  143OSM    H9S15692   5.397   2.009   7.491 -1.6760  0.1868  2.8832
  143OSM    H9T15693   5.570   2.029   7.508  0.4040  0.6278  0.9873
  143OSM   C10S15694   5.490   1.878   7.647  0.4660 -0.4719  0.2314
  143OSM   H10S15695   5.589   1.833   7.666 -0.5269 -2.8800  0.0640
  143OSM   H10T15696   5.402   1.810   7.637 -0.2504  0.4377  0.1681
  143OSM   C11S15697   5.458   1.975   7.763 -0.0431 -0.2168 -0.1990
  143OSM   H11S15698   5.358   2.019   7.742  0.2908  0.2222 -0.9380
  143OSM   H11T15699   5.533   2.054   7.742 -0.6511  0.3912 -0.1444
  143OSM   C12S15700   5.468   1.905   7.901 -0.2961  0.2944  0.0935
  143OSM   H12S15701   5.476   1.979   7.983  0.4341 -1.3278  1.5289
  143OSM   H12T15702   5.565   1.852   7.895 -0.7592 -0.3989 -3.4479
  143OSM   C13S15703   5.356   1.806   7.933 -0.2154  0.2013 -0.0352
  143OSM   H13S15704   5.343   1.744   7.842 -1.8088  0.1495  0.1958
  143OSM   H13T15705   5.265   1.869   7.934 -1.2484 -1.1694  2.3500
  143OSM   C14S15706   5.395   1.733   8.066 -0.1048  0.3504  0.7492
  143OSM   H14S15707   5.430   1.803   8.145  0.5175  1.3463 -0.3687
  143OSM   H14T15708   5.487   1.675   8.042 -0.8983 -1.4865  1.9407
  143OSM   C15S15709   5.282   1.633   8.105  0.2175  0.8410 -0.5729
  143OSM   H15S15710   5.252   1.575   8.015 -0.4972  0.1193  0.1056
  143OSM   H15T15711   5.202   1.709   8.123  1.7660  2.0753  1.5475
  143OSM   C16S15712   5.316   1.557   8.232 -0.1232  0.9435  0.1356
  143OSM   H16S15713   5.363   1.625   8.306  2.8586 -2.1874  1.3567
  143OSM   H16T15714   5.391   1.480   8.205  0.0345  1.1706 -0.0803
  143OSM   C17S15715   5.197   1.473   8.292 -0.5003 -0.1069  0.7631
  143OSM   H17S15716   5.152   1.424   8.204  1.3100 -0.0072 -0.2469
  143OSM   H17T15717   5.121   1.542   8.336  0.9765  1.2313  1.3166
  143OSM   C18S15718   5.242   1.381   8.407 -0.4772  0.1513 -0.1251
  143OSM   H18S15719   5.147   1.337   8.444  0.8931 -1.4739  1.6665
  143OSM   H18T15720   5.299   1.414   8.496 -0.4411 -1.7017  0.5764
  143OSM   H18U15721   5.297   1.297   8.360 -2.2776 -1.3036  0.2518
  143OSM    C1F15722   5.224   2.249   6.897  0.7527 -0.4367 -1.0365
  143OSM     OF15723   5.139   2.199   6.827  0.0062  0.2640 -0.0362
  143OSM    C2F15724   5.190   2.352   7.002  0.1449  0.0622 -0.0291
  143OSM    H2F15725   5.153   2.436   6.939  0.1982 -1.4397 -2.1729
  143OSM    H2G15726   5.287   2.387   7.043  0.0208  0.2104  0.1450
  143OSM    C3F15727   5.089   2.313   7.106 -0.4172 -0.6036  0.3661
  143OSM    H3F15728   5.123   2.228   7.168  0.0796  0.5302  1.7022
  143OSM    H3G15729   5.002   2.271   7.052  0.0943 -0.1322 -0.8851
  143OSM    C4F15730   5.035   2.418   7.207  0.6599  0.3597  0.4132
  143OSM    H4F15731   4.939   2.373   7.240  0.7076 -0.2415 -0.2479
  143OSM    H4G15732   5.011   2.516   7.159 -1.4751 -1.1568 -1.8465
  143OSM    C5F15733   5.118   2.441   7.324  0.1293 -0.6516 -0.8380
  143OSM    H5F15734   5.215   2.483   7.288 -0.1878  1.1727  0.2778
  143OSM    H5G15735   5.138   2.341   7.367  0.0677 -1.5378 -2.7721
  143OSM    C6F15736   5.051   2.523   7.434  0.2203 -0.4609 -0.3288
  143OSM    H6F15737   4.960   2.466   7.461  0.7894 -0.3374  2.0793
  143OSM    H6G15738   5.029   2.621   7.387  0.5255  1.0906  2.5261
  143OSM    C7F15739   5.138   2.535   7.562 -0.3380 -0.8282 -0.5757
  143OSM    H7F15740   5.222   2.604   7.538 -1.4472  1.1931  0.9975
  143OSM    H7G15741   5.176   2.433   7.583 -0.9372 -0.8822  0.2772
  143OSM    C8F15742   5.059   2.603   7.678 -0.4876 -0.0746 -0.0133
  143OSM    H8F15743   5.007   2.684   7.622  0.4239  0.1863 -0.5100
  143OSM    H8G15744   5.121   2.653   7.755 -0.9167 -0.8057  0.8208
  143OSM    C9F15745   4.947   2.521   7.740 -0.1222 -0.1658 -0.4753
  143OSM    H9F15746   4.879   2.473   7.668  2.7384 -1.4928 -2.4893
  143OSM   C10F15747   4.925   2.504   7.868 -0.5807  0.1690  0.0905
  143OSM   H10F15748   4.841   2.443   7.904 -0.7968  0.9950  1.0246
  143OSM   C11F15749   5.008   2.554   7.987  0.2544  0.1830  0.3457
  143OSM   H11F15750   5.114   2.575   7.961  0.0023  0.9932 -0.0710
  143OSM   H11G15751   5.008   2.478   8.068 -2.6837  0.6440  0.8839
  143OSM   C12F15752   4.946   2.690   8.026 -0.0443 -1.8533 -0.2732
  143OSM   H12F15753   4.838   2.692   8.055 -0.5442  2.8373 -1.5702
  143OSM   H12G15754   4.945   2.749   7.932 -2.0256  0.3150  1.0038
  143OSM   C13F15755   5.041   2.775   8.115 -0.2365  0.2794  0.5039
  143OSM   H13F15756   5.003   2.879   8.120  0.0349  0.3844  0.3988
  143OSM   H13G15757   5.140   2.785   8.067 -1.2436  1.5889 -1.4466
  143OSM   C14F15758   5.044   2.718   8.263  0.0106 -0.6362 -0.9687
  143OSM   H14F15759   5.090   2.617   8.268 -1.0267 -1.0913 -0.1248
  143OSM   H14G15760   4.940   2.707   8.300  0.3932 -3.9016 -0.5261
  143OSM   C15F15761   5.125   2.797   8.363 -0.5717 -0.0156  0.4499
  143OSM   H15F15762   5.099   2.903   8.343 -0.7076 -0.4099 -1.6374
  143OSM   H15G15763   5.229   2.797   8.326 -0.4287 -3.1885  0.5977
  143OSM   C16F15764   5.116   2.745   8.504  0.0856 -0.0753  0.2142
  143OSM   H16F15765   5.090   2.637   8.508 -1.7703  0.3562  0.4198
  143OSM   H16G15766   5.030   2.790   8.558  0.9708  1.8705  0.0666
  143OSM   C17F15767   5.253   2.745   8.566 -0.9788  0.3764 -0.6491
  143OSM   H17F15768   5.273   2.854   8.573 -1.7653  0.5027 -0.2048
  143OSM   H17G15769   5.332   2.699   8.504  0.5520  2.2842 -0.2291
  143OSM   C18F15770   5.251   2.673   8.696  0.7809 -0.3921  0.2337
  143OSM   H18F15771   5.173   2.720   8.761 -1.1768  0.5332 -2.5808
  143OSM   H18G15772   5.348   2.667   8.749  0.0303 -0.2268  1.7030
  143OSM   H18H15773   5.221   2.568   8.679 -1.1585 -0.2103  2.0460
  144OSM      N15774   3.135   3.868   5.971  0.9130 -0.6918  0.2329
  144OSM    C1515775   3.147   3.849   5.822 -0.4684 -0.2600  0.8476
  144OSM   H15A15776   3.195   3.755   5.798 -1.8906 -0.3184 -2.4074
  144OSM   H15B15777   3.208   3.928   5.780 -0.2053 -0.5746  0.6385
  144OSM   H15C15778   3.054   3.854   5.767 -0.0621  1.4883  0.2338
  144OSM    C1415779   3.261   3.826   6.048 -0.1712  0.5260  0.5678
  144OSM   H14A15780   3.262   3.851   6.153 -0.0424  0.8815  0.4833
  144OSM   H14B15781   3.349   3.870   6.004  0.6885  0.4643  2.1808
  144OSM   H14C15782   3.273   3.719   6.042 -0.5958  0.5141 -0.3156
  144OSM    C1315783   3.118   4.016   5.992 -1.1479  0.4987 -0.6376
  144OSM   H13A15784   3.210   4.064   5.965 -0.7787 -1.1263 -2.5067
  144OSM   H13B15785   3.080   4.043   6.090 -0.2956  2.8893 -0.9236
  144OSM   H13C15786   3.044   4.057   5.926 -2.7357  0.2012  0.8674
  144OSM    C1215787   3.018   3.787   6.025  0.2496 -0.0690 -0.5663
  144OSM   H12A15788   3.016   3.688   5.984  1.2205 -0.0469 -0.7010
  144OSM   H12B15789   2.929   3.832   5.983  0.9673  0.9058 -1.1066
  144OSM    C1115790   3.003   3.788   6.176  0.0865 -0.4563 -0.1332
  144OSM   H11A15791   3.020   3.894   6.204  0.8153 -1.1300  2.1847
  144OSM   H11B15792   3.077   3.728   6.232 -1.0009 -0.2029  1.6375
  144OSM      P15793   2.828   3.586   6.232 -0.3569 -0.3564  0.5316
  144OSM    O1315794   2.693   3.599   6.289 -0.8619 -0.0743  0.3738
  144OSM    O1415795   2.851   3.505   6.108 -0.8901 -0.1610 -0.2915
  144OSM    O1115796   2.926   3.536   6.338 -0.4701  0.1645  0.1212
  144OSM    O1215797   2.874   3.740   6.202  0.4469 -0.3749  0.2171
  144OSM    C1S15798   2.954   3.611   6.455 -0.0884  0.2520 -0.1166
  144OSM    H1S15799   2.865   3.669   6.488 -0.7831 -1.0485  0.3557
  144OSM    H1T15800   3.036   3.679   6.421  1.3293 -2.0089 -1.4167
  144OSM     NF15801   3.061   3.621   6.676 -0.2278  0.1219 -0.4376
  144OSM    HNF15802   3.154   3.656   6.669  0.3675 -1.2225  0.4182
  144OSM    C2S15803   3.023   3.529   6.574 -0.1926 -0.0660  0.2839
  144OSM    H2S15804   2.945   3.454   6.601 -1.3337  0.2159 -2.0171
  144OSM    C3S15805   3.148   3.453   6.530  0.3828 -0.9352  0.5969
  144OSM    H3S15806   3.225   3.521   6.489  0.1186 -0.5317  0.7586
  144OSM     O315807   3.132   3.365   6.421 -0.2442  0.0524  0.3811
  144OSM    HO315808   3.062   3.408   6.370  0.3454  0.3289 -0.2231
  144OSM    C4S15809   3.208   3.387   6.655  0.0332 -0.2861  0.4670
  144OSM    H4S15810   3.278   3.454   6.708  1.7381  1.0851 -3.1678
  144OSM    C5S15811   3.182   3.267   6.701  0.2232  0.0193  0.5410
  144OSM    H5S15812   3.112   3.207   6.641  1.4681  0.3997 -1.3767
  144OSM    C6S15813   3.240   3.205   6.823 -0.2547 -0.1988  0.5411
  144OSM    H6S15814   3.310   3.128   6.784  0.0790  0.5927 -0.4832
  144OSM    H6T15815   3.163   3.133   6.859 -0.6385 -0.5213 -0.8298
  144OSM    C7S15816   3.283   3.292   6.935 -0.5487 -0.1572  0.4343
  144OSM    H7S15817   3.228   3.388   6.936 -0.8259 -0.3191  0.9811
  144OSM    H7T15818   3.391   3.320   6.928 -0.4500 -0.4838  0.6250
  144OSM    C8S15819   3.261   3.218   7.067  0.1844  0.1909  0.4195
  144OSM    H8S15820   3.159   3.175   7.072 -0.0832  0.5797 -1.1981
  144OSM    H8T15821   3.274   3.295   7.147  0.9795 -1.1171  1.6032
  144OSM    C9S15822   3.381   3.116   7.091  0.5685 -1.1000 -0.1551
  144OSM    H9S15823   3.470   3.147   7.033 -0.0563  2.4194  0.4939
  144OSM    H9T15824   3.347   3.024   7.039  0.6795 -0.5063 -1.3101
  144OSM   C10S15825   3.400   3.095   7.243  0.2422 -0.3032  0.7310
  144OSM   H10S15826   3.455   3.182   7.285  1.2322  0.2445 -1.5132
  144OSM   H10T15827   3.456   3.000   7.261 -1.5897 -2.0037 -1.8257
  144OSM   C11S15828   3.277   3.071   7.330  0.5585 -0.1993  0.4440
  144OSM   H11S15829   3.222   2.979   7.301 -0.1702 -0.4897  2.5827
  144OSM   H11T15830   3.211   3.161   7.329 -0.0145 -0.4277 -4.0887
  144OSM   C12S15831   3.309   3.037   7.471 -0.7603 -0.0785 -0.2396
  144OSM   H12S15832   3.347   3.132   7.514 -0.1789 -0.7227  0.7034
  144OSM   H12T15833   3.391   2.964   7.488 -3.0007 -2.2254  2.4719
  144OSM   C13S15834   3.191   2.977   7.548  0.4308  0.5664  0.1717
  144OSM   H13S15835   3.145   2.891   7.495 -0.2623 -0.3957  2.2201
  144OSM   H13T15836   3.116   3.055   7.570 -1.9584 -1.5051 -0.1778
  144OSM   C14S15837   3.226   2.913   7.684  0.0527  0.7715 -0.5216
  144OSM   H14S15838   3.295   2.826   7.678 -2.0372 -0.9651 -0.5742
  144OSM   H14T15839   3.128   2.878   7.721  1.1405 -1.3759  0.5710
  144OSM   C15S15840   3.275   3.015   7.789  0.0655  0.1618 -0.0510
  144OSM   H15S15841   3.212   3.106   7.777  1.3075  0.9430 -0.7696
  144OSM   H15T15842   3.380   3.039   7.762  0.6565 -1.4892  0.6282
  144OSM   C16S15843   3.275   2.958   7.931  0.2081 -0.1519 -0.5051
  144OSM   H16S15844   3.171   2.950   7.968  0.7279  2.2759  1.7497
  144OSM   H16T15845   3.322   3.030   8.001 -1.1975 -1.5140  1.9923
  144OSM   C17S15846   3.354   2.832   7.967  0.9501 -0.2634  0.2353
  144OSM   H17S15847   3.313   2.748   7.905 -2.5042 -1.5342  3.8010
  144OSM   H17T15848   3.328   2.805   8.072 -0.4596  0.5521  0.1290
  144OSM   C18S15849   3.509   2.851   7.952  0.2709 -0.5765 -0.3189
  144OSM   H18S15850   3.538   2.939   8.013  0.3023 -0.9431  0.2076
  144OSM   H18T15851   3.547   2.873   7.850  5.4263 -0.5612  1.3118
  144OSM   H18U15852   3.556   2.758   7.991  1.2982 -0.0681 -0.3168
  144OSM    C1F15853   2.965   3.679   6.753  0.3282  0.2310  0.5444
  144OSM     OF15854   2.852   3.637   6.745 -0.2103  0.4298 -0.0807
  144OSM    C2F15855   3.005   3.795   6.841 -0.1000  0.9970  0.0060
  144OSM    H2F15856   2.960   3.788   6.943 -0.2377  0.1421 -0.1088
  144OSM    H2G15857   2.966   3.890   6.798 -0.1667  1.3087  0.7368
  144OSM    C3F15858   3.156   3.803   6.862 -1.1454 -0.2458  0.1844
  144OSM    H3F15859   3.173   3.899   6.916 -1.2384  0.3166 -0.7605
  144OSM    H3G15860   3.215   3.820   6.770  1.6647 -2.1216  1.4872
  144OSM    C4F15861   3.232   3.690   6.935  0.3107  0.6267 -0.5710
  144OSM    H4F15862   3.225   3.600   6.870  1.7594  1.2392 -1.6285
  144OSM    H4G15863   3.176   3.668   7.029 -0.0219 -1.8665 -1.2839
  144OSM    C5F15864   3.379   3.721   6.975  0.4341 -0.2911 -0.2883
  144OSM    H5F15865   3.365   3.814   7.034 -0.9017  0.8528 -2.3005
  144OSM    H5G15866   3.439   3.740   6.883  1.0919 -0.2195  0.1484
  144OSM    C6F15867   3.450   3.619   7.069 -0.4599 -0.6234 -0.6244
  144OSM    H6F15868   3.545   3.672   7.092 -2.4320  2.6582  0.7564
  144OSM    H6G15869   3.464   3.523   7.016 -3.2006 -2.0400  0.9936
  144OSM    C7F15870   3.380   3.575   7.194 -0.5401  0.0736 -0.9710
  144OSM    H7F15871   3.288   3.515   7.176 -0.3032 -0.5827 -0.0498
  144OSM    H7G15872   3.347   3.664   7.251 -0.8581  0.1271 -1.2356
  144OSM    C8F15873   3.472   3.484   7.281  0.5409 -1.5024 -0.2117
  144OSM    H8F15874   3.575   3.522   7.293  0.4252 -0.8115 -1.2476
  144OSM    H8G15875   3.476   3.387   7.227 -1.4965 -1.3052 -0.8277
  144OSM    C9F15876   3.413   3.463   7.413  0.5459  0.0092 -0.1162
  144OSM    H9F15877   3.312   3.420   7.406 -0.2785  1.3716  2.2854
  144OSM   C10F15878   3.470   3.469   7.534  0.5787  0.1966 -0.0585
  144OSM   H10F15879   3.406   3.452   7.621  0.5566 -0.2239 -0.1565
  144OSM   C11F15880   3.615   3.508   7.560  0.2082  0.5892 -1.1631
  144OSM   H11F15881   3.624   3.618   7.568 -1.9421  0.8330 -1.4079
  144OSM   H11G15882   3.691   3.484   7.483  0.4618  1.2151 -1.1136
  144OSM   C12F15883   3.659   3.450   7.698  0.4538  0.0817  0.4675
  144OSM   H12F15884   3.766   3.475   7.716  1.1358 -0.7376 -2.0465
  144OSM   H12G15885   3.661   3.339   7.695 -0.1446  0.0862 -0.2074
  144OSM   C13F15886   3.586   3.488   7.832 -0.0930 -0.5702  0.6867
  144OSM   H13F15887   3.475   3.483   7.827 -0.0670 -1.9792  0.9617
  144OSM   H13G15888   3.617   3.591   7.861  1.2840 -0.1352 -2.0388
  144OSM   C14F15889   3.625   3.398   7.949  0.0106  0.3353  0.3725
  144OSM   H14F15890   3.732   3.391   7.975  0.1854  2.1830  0.2953
  144OSM   H14G15891   3.602   3.294   7.918  0.2335  0.7614 -1.3231
  144OSM   C15F15892   3.544   3.429   8.081  0.8925  0.4930  0.4542
  144OSM   H15F15893   3.447   3.473   8.050  0.2026 -0.3960  1.2779
  144OSM   H15G15894   3.613   3.510   8.117  0.6884  0.9000 -0.0549
  144OSM   C16F15895   3.515   3.309   8.171  0.4309  0.1284  0.3887
  144OSM   H16F15896   3.488   3.219   8.111  2.2048 -0.4608  0.4254
  144OSM   H16G15897   3.445   3.347   8.248  0.2697  2.2397 -0.7346
  144OSM   C17F15898   3.648   3.277   8.239 -0.2022  1.0167  0.3701
  144OSM   H17F15899   3.707   3.364   8.273  1.2702  0.2019 -0.0005
  144OSM   H17G15900   3.714   3.232   8.162  0.2566 -0.2194  1.4412
  144OSM   C18F15901   3.652   3.172   8.348  0.3415  0.0163  0.0282
  144OSM   H18F15902   3.597   3.085   8.305 -0.6848  1.0042 -0.7219
  144OSM   H18G15903   3.610   3.213   8.442  1.4364  1.6504 -0.1717
  144OSM   H18H15904   3.757   3.138   8.363  0.1886 -0.1401  0.7822
  145SAPE     N15905   0.118   2.698  10.735 -0.5439  0.2449 -0.2765
  145SAPE   HN115906   0.131   2.791  10.779  0.1621 -0.3306  0.7861
  145SAPE   HN215907   0.080   2.639  10.812  0.4544 -0.4296 -0.2834
  145SAPE   HN315908   0.217   2.680  10.707 -0.2141  1.2725  0.1692
  145SAPE   C1215909   0.043   2.708  10.608  0.0610  0.5845  0.4575
  145SAPE  H12A15910   0.077   2.634  10.532  0.7087  0.4568  0.8670
  145SAPE  H12B15911   0.058   2.809  10.565  0.0650 -0.0243 -1.0163
  145SAPE   C1115912  -0.105   2.670  10.640  0.1237  0.4848 -0.6353
  145SAPE  H11A15913  -0.109   2.568  10.684  0.8196  0.5695 -0.3640
  145SAPE  H11B15914  -0.155   2.663  10.540  0.1602  1.0896 -0.7018
  145SAPE     P15915  -0.293   2.772  10.783  0.1515 -0.2115 -0.2874
  145SAPE   O1315916  -0.295   2.697  10.909  0.8819  0.3773  0.2158
  145SAPE   O1415917  -0.351   2.906  10.781  0.0126 -0.2763 -0.4106
  145SAPE   O1215918  -0.147   2.775  10.731 -0.6242  0.9356  0.0620
  145SAPE   O1115919  -0.371   2.684  10.682 -0.4911  0.3483  0.1034
  145SAPE    C115920  -0.439   2.568  10.713  0.0516  0.7988  0.0365
  145SAPE    HA15921  -0.370   2.492  10.758 -2.9632 -0.8382  2.2938
  145SAPE    HB15922  -0.512   2.583  10.796  1.8367  1.3082  1.5826
  145SAPE    C215923  -0.508   2.517  10.577  0.5896  0.0134 -0.1641
  145SAPE    HS15924  -0.432   2.463  10.518  0.1539 -0.5042 -0.2642
  145SAPE   O2115925  -0.579   2.623  10.512  0.1165  0.5745 -0.0490
  145SAPE   C2115926  -0.517   2.677  10.410  0.1490 -0.0729 -0.7724
  145SAPE   O2215927  -0.412   2.643  10.354  0.8042  0.2151 -0.3975
  145SAPE   C2215928  -0.585   2.809  10.386  0.1766 -0.0909 -0.0077
  145SAPE   H2R15929  -0.695   2.814  10.402  0.0613  1.2405 -0.9753
  145SAPE   H2S15930  -0.544   2.872  10.468  1.2517  0.2070 -0.7510
  145SAPE    C315931  -0.623   2.420  10.617 -0.2162 -0.3215 -0.5008
  145SAPE    HX15932  -0.703   2.468  10.677 -1.8437 -1.8588 -1.2948
  145SAPE    HY15933  -0.583   2.338  10.680 -1.6545 -1.7691 -1.3842
  145SAPE   O3115934  -0.687   2.355  10.511 -0.2897  0.1609 -0.1934
  145SAPE   C3115935  -0.628   2.246  10.462  0.0734 -0.5922 -0.2766
  145SAPE   O3215936  -0.520   2.197  10.500  0.3695 -0.2736  0.4806
  145SAPE   C3215937  -0.705   2.215  10.338 -0.1657  0.4369 -0.0221
  145SAPE   H2X15938  -0.775   2.295  10.305 -1.0079  0.9661  2.7941
  145SAPE   H2Y15939  -0.763   2.122  10.352  1.3852 -0.4698  0.7163
  145SAPE   C2315940  -0.536   2.871  10.254  0.8651 -0.0719 -0.1939
  145SAPE   H3R15941  -0.576   2.811  10.169 -1.8731  0.3620  0.7085
  145SAPE   H3S15942  -0.425   2.861  10.256  0.7483 -1.7679 -0.1999
  145SAPE   C2415943  -0.584   3.013  10.224 -0.2150 -0.4063 -0.2712
  145SAPE   H4R15944  -0.694   3.003  10.240 -0.1913 -0.8661 -0.3717
  145SAPE   H4S15945  -0.562   3.033  10.117 -0.2500 -1.9926 -0.6042
  145SAPE   C2515946  -0.520   3.131  10.296 -0.0781  0.3545 -0.2984
  145SAPE   H5R15947  -0.522   3.126  10.406  1.2162  0.7015 -0.2393
  145SAPE   C2615948  -0.461   3.240  10.242  0.0051 -0.5693  0.3716
  145SAPE   H6R15949  -0.409   3.310  10.309  0.8604 -0.0538 -0.8007
  145SAPE   C2715950  -0.434   3.275  10.092  0.0958 -0.2545 -0.1759
  145SAPE   H7R15951  -0.523   3.247  10.032 -0.3619 -0.2575  0.4910
  145SAPE   H7S15952  -0.341   3.219  10.071  1.6522  0.2381  4.3647
  145SAPE   C2815953  -0.396   3.426  10.077  0.1398 -0.3673  0.3253
  145SAPE   H8R15954  -0.416   3.496  10.160 -0.6404 -2.2000  1.7524
  145SAPE   C2915955  -0.346   3.472   9.960  0.0996 -0.2580  0.5386
  145SAPE   H9R15956  -0.326   3.578   9.941  0.8076 -0.4111  0.4118
  145SAPE  C21015957  -0.314   3.392   9.836 -0.9850  0.4776  0.3031
  145SAPE  H10R15958  -0.407   3.390   9.775 -2.0906 -0.2293  1.9506
  145SAPE  H10S15959  -0.286   3.286   9.851 -1.1817  0.2688 -0.6755
  145SAPE  C21115960  -0.199   3.448   9.746  0.2153  0.2425 -0.5050
  145SAPE  H11R15961  -0.095   3.434   9.779 -0.0937  0.7861  0.7920
  145SAPE  C21215962  -0.212   3.518   9.628  0.3408 -0.5678 -0.0314
  145SAPE  H12R15963  -0.122   3.564   9.585 -0.2426  0.3921 -0.2669
  145SAPE  C21315964  -0.349   3.558   9.572 -0.2718 -0.5227  0.0563
  145SAPE  H13R15965  -0.357   3.669   9.564  2.6329 -0.2677 -0.5970
  145SAPE  H13S15966  -0.438   3.531   9.633 -1.0194 -0.8365 -1.1477
  145SAPE  C21415967  -0.377   3.497   9.441 -0.0721  0.5010  0.7582
  145SAPE  H14R15968  -0.389   3.390   9.464  1.3379  0.9607  4.2807
  145SAPE  C21515969  -0.375   3.546   9.311 -0.2421  0.2654  0.0235
  145SAPE  H15R15970  -0.414   3.482   9.230 -0.2796  0.2760  0.0336
  145SAPE  C21615971  -0.346   3.693   9.276 -0.8795 -0.2309  0.0020
  145SAPE  H16R15972  -0.307   3.692   9.173 -2.4605 -0.2621 -0.6246
  145SAPE  H16S15973  -0.284   3.736   9.358  1.0141 -2.5613 -0.1177
  145SAPE  C21715974  -0.481   3.781   9.269  0.2432  0.9117  0.0573
  145SAPE  H17R15975  -0.457   3.889   9.278  0.8443  0.7229  0.8264
  145SAPE  H17S15976  -0.548   3.756   9.353  2.0580  0.8181  1.5534
  145SAPE  C21815977  -0.564   3.758   9.142  0.1674 -0.0097  0.8751
  145SAPE  H18R15978  -0.609   3.657   9.131  0.7072 -0.2671  1.0024
  145SAPE  H18S15979  -0.495   3.776   9.057 -1.8117  0.9208 -0.6244
  145SAPE  C21915980  -0.678   3.859   9.111  0.3434  0.3006 -0.2594
  145SAPE  H19R15981  -0.639   3.963   9.114  0.1264  0.3911  2.4954
  145SAPE  H19S15982  -0.756   3.847   9.190 -0.4409 -0.5539 -1.1359
  145SAPE  C22015983  -0.725   3.833   8.969  0.4461 -0.2274  0.4659
  145SAPE  H20R15984  -0.827   3.788   8.970  1.7014 -3.3503  0.9466
  145SAPE  H20S15985  -0.661   3.766   8.907 -2.6515 -2.2741 -0.7965
  145SAPE  H20T15986  -0.733   3.926   8.909  0.5181 -0.3295  0.2938
  145SAPE   C3315987  -0.605   2.193  10.228 -0.6017 -0.5064  0.1981
  145SAPE   H3X15988  -0.662   2.161  10.138 -0.2759  0.4859 -0.3857
  145SAPE   H3Y15989  -0.536   2.109  10.252 -0.0994 -0.2347 -0.2766
  145SAPE   C3415990  -0.530   2.318  10.181  0.0596  0.4578 -0.7434
  145SAPE   H4X15991  -0.435   2.285  10.134  0.6918  0.3236  0.5732
  145SAPE   H4Y15992  -0.499   2.385  10.264  0.4489 -2.8145  1.9640
  145SAPE   C3515993  -0.607   2.401  10.076 -0.4008 -0.4314  0.0615
  145SAPE   H5X15994  -0.707   2.428  10.115  0.2400  1.1238  0.7015
  145SAPE   H5Y15995  -0.616   2.332   9.989 -1.5994 -1.7766  1.2042
  145SAPE   C3615996  -0.523   2.531  10.038  0.0910  0.3696 -0.1469
  145SAPE   H6X15997  -0.413   2.515  10.045  0.0147 -0.2942 -0.3538
  145SAPE   H6Y15998  -0.543   2.605  10.118  0.1081  2.7759 -2.2356
  145SAPE   C3715999  -0.558   2.579   9.897  0.1549  0.1580 -0.1872
  145SAPE   H7X16000  -0.668   2.599   9.896 -0.2125 -1.6759 -1.0577
  145SAPE   H7Y16001  -0.534   2.498   9.826  1.2824  0.6913 -0.4271
  145SAPE   C3816002  -0.486   2.702   9.847 -0.2500 -0.7990 -0.3083
  145SAPE   H8X16003  -0.385   2.673   9.811  0.7451 -0.1578  1.8322
  145SAPE   H8Y16004  -0.474   2.780   9.925  1.2937 -0.1791 -1.1182
  145SAPE   C3916005  -0.575   2.766   9.737  0.8357 -0.1041 -0.4582
  145SAPE   H9X16006  -0.543   2.870   9.720 -1.2275  0.9013  1.2561
  145SAPE   H9Y16007  -0.676   2.773   9.783  1.4451 -1.3838  1.1820
  145SAPE  C31016008  -0.586   2.686   9.608 -0.0375  0.4719 -0.0563
  145SAPE  H10X16009  -0.680   2.634   9.580  0.9234 -0.8827 -0.9434
  145SAPE  H10Y16010  -0.503   2.612   9.614  0.5017  1.2094  2.3752
  145SAPE  C31116011  -0.555   2.780   9.487 -0.9355 -0.5467 -0.1698
  145SAPE  H11X16012  -0.463   2.841   9.499 -2.8419  2.5642 -0.2465
  145SAPE  H11Y16013  -0.643   2.845   9.468 -1.4293 -1.6718 -2.0250
  145SAPE  C31216014  -0.518   2.696   9.360 -0.5378 -0.0607  0.6174
  145SAPE  H12X16015  -0.610   2.641   9.330 -1.0369  0.9390  0.2722
  145SAPE  H12Y16016  -0.436   2.624   9.381 -1.4049 -0.4159  3.1035
  145SAPE  C31316017  -0.473   2.794   9.249  0.4556 -1.0122  0.6655
  145SAPE  H13X16018  -0.376   2.844   9.272  0.7910 -1.2918 -0.1397
  145SAPE  H13Y16019  -0.553   2.871   9.245  1.3614 -0.1066 -1.3568
  145SAPE  C31416020  -0.479   2.737   9.112  0.0674  0.2659 -0.0131
  145SAPE  H14X16021  -0.570   2.674   9.107 -0.7196  1.1482  1.9290
  145SAPE  H14Y16022  -0.394   2.666   9.105  0.0786  0.0559  1.8196
  145SAPE  C31516023  -0.467   2.833   8.995  0.0353 -0.5173  1.1658
  145SAPE  H15X16024  -0.366   2.878   8.987 -0.3740  1.0454  3.5901
  145SAPE  H15Y16025  -0.540   2.916   9.012  1.7909  1.6388 -1.0504
  145SAPE  C31616026  -0.520   2.765   8.859 -0.0717 -0.4431  0.4221
  145SAPE  H16X16027  -0.575   2.840   8.799 -0.0078  0.2259  1.1789
  145SAPE  H16Y16028  -0.594   2.696   8.904  1.6977 -1.3936  2.0178
  145SAPE  C31716029  -0.422   2.689   8.769  0.2114  0.0888 -0.1662
  145SAPE  H17X16030  -0.477   2.631   8.692 -0.0739 -0.4718  0.4451
  145SAPE  H17Y16031  -0.368   2.613   8.830  2.1190  1.8549  0.4634
  145SAPE  C31816032  -0.320   2.777   8.698 -0.1656 -0.7787 -0.0790
  145SAPE  H18X16033  -0.266   2.711   8.626 -0.4633  0.9434 -1.9618
  145SAPE  H18Y16034  -0.241   2.809   8.769  0.5358  1.7763 -1.8649
  145SAPE  H18Z16035  -0.360   2.866   8.645  3.0671  1.1282  0.3935
  146SAPE     N16036   2.044   6.731  10.868 -0.6522 -0.4053 -0.0702
  146SAPE   HN116037   2.105   6.768  10.943  1.1660 -1.8591 -0.7636
  146SAPE   HN216038   1.950   6.775  10.875 -0.7897 -0.2087 -2.3831
  146SAPE   HN316039   2.029   6.633  10.899 -2.5021  0.6309  2.7068
  146SAPE   C1216040   2.100   6.738  10.724  0.1326  0.3809  0.1016
  146SAPE  H12A16041   2.042   6.819  10.674 -0.6620  0.0230  0.4233
  146SAPE  H12B16042   2.076   6.638  10.681  0.5029 -0.2425  1.2990
  146SAPE   C1116043   2.252   6.754  10.715 -0.0158 -0.0223  0.4700
  146SAPE  H11A16044   2.276   6.766  10.607  1.6191 -2.9095  0.4143
  146SAPE  H11B16045   2.292   6.656  10.747  0.0475  0.1262  0.8466
  146SAPE     P16046   2.327   6.995  10.752 -0.1073  0.4139 -0.1000
  146SAPE   O1316047   2.202   7.056  10.710 -0.1188  0.1212 -0.1354
  146SAPE   O1416048   2.412   7.071  10.842 -0.4618 -0.1872  0.5709
  146SAPE   O1216049   2.300   6.846  10.808 -0.2370 -0.5487 -0.4518
  146SAPE   O1116050   2.422   6.952  10.630 -0.5997 -0.3273 -0.0623
  146SAPE    C116051   2.493   7.038  10.538 -0.7395  0.3107 -0.0241
  146SAPE    HA16052   2.456   7.140  10.559 -1.5236  0.1491 -0.5685
  146SAPE    HB16053   2.601   7.049  10.560 -0.6867  0.7440 -0.5097
  146SAPE    C216054   2.463   6.989  10.393 -0.2608  0.0999  0.4119
  146SAPE    HS16055   2.362   7.032  10.376  0.7087  2.1694 -0.5827
  146SAPE   O2116056   2.476   6.845  10.386 -0.5130 -0.3144  0.1149
  146SAPE   C2116057   2.359   6.788  10.368 -0.0267  0.1889  0.3560
  146SAPE   O2216058   2.247   6.843  10.358 -0.3759  0.2011 -0.1074
  146SAPE   C2216059   2.376   6.640  10.357 -0.8805 -0.4757  0.4181
  146SAPE   H2R16060   2.479   6.607  10.334 -0.0392  1.6895  0.8332
  146SAPE   H2S16061   2.360   6.591  10.455 -0.0706 -1.5722  0.0186
  146SAPE    C316062   2.545   7.061  10.286  0.5316  0.2971 -0.2901
  146SAPE    HX16063   2.652   7.037  10.301  0.2912  0.7200  2.6186
  146SAPE    HY16064   2.542   7.169  10.314  0.3900  0.7535 -1.9462
  146SAPE   O3116065   2.501   7.042  10.149 -0.3733  0.4841 -0.2973
  146SAPE   C3116066   2.571   6.941  10.083 -0.0988  0.2074  0.1176
  146SAPE   O3216067   2.642   6.861  10.135 -0.3217  0.4120 -0.3508
  146SAPE   C3216068   2.515   6.927   9.938 -0.3985 -0.1917  0.0272
  146SAPE   H2X16069   2.526   7.032   9.904  1.4287  0.5211  2.5401
  146SAPE   H2Y16070   2.408   6.899   9.946 -0.3444 -0.2761  0.4323
  146SAPE   C2316071   2.279   6.569  10.263  0.2450  0.1642 -0.4133
  146SAPE   H3R16072   2.173   6.601  10.271  0.6292  1.4809 -0.2923
  146SAPE   H3S16073   2.289   6.461  10.289 -1.6519 -0.4071 -1.8208
  146SAPE   C2416074   2.307   6.584  10.119 -0.4679 -0.4905  0.3400
  146SAPE   H4R16075   2.294   6.693  10.098 -0.1792 -0.7077 -1.0456
  146SAPE   H4S16076   2.238   6.536  10.047  0.9893 -1.5208 -0.4232
  146SAPE   C2516077   2.446   6.536  10.072 -0.1228 -0.1153  0.1527
  146SAPE   H5R16078   2.526   6.607  10.095 -1.3974  1.1130  0.9701
  146SAPE   C2616079   2.469   6.419  10.008 -0.5812  0.0142  0.3124
  146SAPE   H6R16080   2.571   6.387   9.982 -0.4960  1.0139 -0.6398
  146SAPE   C2716081   2.368   6.314   9.971 -0.3633  0.2396  0.2853
  146SAPE   H7R16082   2.367   6.302   9.861 -1.6935 -1.5379  0.4493
  146SAPE   H7S16083   2.264   6.346   9.995 -0.7011 -0.9174  0.4372
  146SAPE   C2816084   2.403   6.178  10.032 -0.2508 -0.4714  0.0387
  146SAPE   H8R16085   2.375   6.153  10.136 -0.7959 -0.7415 -0.1703
  146SAPE   C2916086   2.480   6.079   9.977  0.1036 -0.3889 -0.7137
  146SAPE   H9R16087   2.488   5.983  10.028  2.1093  0.8225  1.4343
  146SAPE  C21016088   2.555   6.090   9.843  0.4171 -0.0147 -0.5967
  146SAPE  H10R16089   2.490   6.137   9.767 -0.3284 -0.7177 -0.4137
  146SAPE  H10S16090   2.582   5.991   9.800 -0.5323  0.7014 -2.9570
  146SAPE  C21116091   2.684   6.162   9.866  0.3977  0.7286  0.4646
  146SAPE  H11R16092   2.723   6.166   9.969 -1.6118  0.2814  1.2929
  146SAPE  C21216093   2.767   6.203   9.766 -0.1337  0.0056  0.5929
  146SAPE  H12R16094   2.865   6.241   9.798 -0.1877 -0.1531  0.9558
  146SAPE  C21316095   2.743   6.194   9.617  0.3998  0.1070  0.4836
  146SAPE  H13R16096   2.685   6.102   9.594  0.5683 -0.1340  0.9921
  146SAPE  H13S16097   2.848   6.188   9.579 -0.1015  1.5121 -1.2585
  146SAPE  C21416098   2.664   6.310   9.547 -0.5850  0.0855 -0.1583
  146SAPE  H14R16099   2.629   6.391   9.613 -0.0176 -1.1563  1.7613
  146SAPE  C21516100   2.624   6.308   9.421 -0.0837 -1.4791  0.5878
  146SAPE  H15R16101   2.559   6.388   9.382  3.5504  1.3229 -0.2614
  146SAPE  C21616102   2.656   6.204   9.315 -0.4015 -0.3712 -0.7943
  146SAPE  H16R16103   2.727   6.128   9.353  2.4303  1.4873 -2.0215
  146SAPE  H16S16104   2.715   6.259   9.239 -2.7784  1.7495 -1.2535
  146SAPE  C21716105   2.544   6.139   9.240 -0.0659  0.1819  0.1666
  146SAPE  H17R16106   2.480   6.221   9.201  0.4463  2.0855  3.0295
  146SAPE  H17S16107   2.483   6.093   9.320 -0.8511  0.7844 -0.0776
  146SAPE  C21816108   2.577   6.046   9.129  0.3270 -0.2295  0.5652
  146SAPE  H18R16109   2.487   6.039   9.065  0.9549  0.9874 -0.4873
  146SAPE  H18S16110   2.593   5.944   9.171 -3.0327 -1.1311 -0.1034
  146SAPE  C21916111   2.693   6.089   9.038  0.0338 -0.1465 -0.4166
  146SAPE  H19R16112   2.706   6.199   9.049 -0.7913  0.2042 -2.4549
  146SAPE  H19S16113   2.651   6.059   8.939 -1.0864  0.9797 -0.3054
  146SAPE  C22016114   2.818   6.021   9.078 -0.4417 -0.2679  0.6506
  146SAPE  H20R16115   2.822   5.912   9.058  1.8736 -0.1462  0.0591
  146SAPE  H20S16116   2.842   6.047   9.183  0.9368  1.1772  0.0233
  146SAPE  H20T16117   2.904   6.054   9.015 -0.3346  0.3904  1.1262
  146SAPE   C3316118   2.570   6.813   9.848  1.1465  0.3201 -0.1075
  146SAPE   H3X16119   2.528   6.717   9.885  0.1316  0.7658 -0.0752
  146SAPE   H3Y16120   2.681   6.810   9.851  1.1399 -0.6754 -0.7653
  146SAPE   C3416121   2.521   6.832   9.707 -0.2814  0.0554  0.1920
  146SAPE   H4X16122   2.575   6.924   9.675 -0.8853 -0.2314 -1.7602
  146SAPE   H4Y16123   2.414   6.862   9.711 -0.2241  0.3572 -0.4144
  146SAPE   C3516124   2.572   6.724   9.613  0.1788  0.1405  0.4642
  146SAPE   H5X16125   2.513   6.631   9.628 -0.5256  0.6711  1.0217
  146SAPE   H5Y16126   2.679   6.696   9.627  0.3423  0.7770  0.5126
  146SAPE   C3616127   2.534   6.776   9.475 -0.5985 -0.4333  0.7214
  146SAPE   H6X16128   2.577   6.875   9.451  0.4857 -1.5473 -2.3663
  146SAPE   H6Y16129   2.425   6.792   9.462 -0.4577 -0.0756 -0.0681
  146SAPE   C3716130   2.568   6.674   9.361  0.2491  0.2066  0.3017
  146SAPE   H7X16131   2.517   6.577   9.382  0.4969 -0.6150 -2.4727
  146SAPE   H7Y16132   2.676   6.652   9.369 -0.3658 -2.8151  2.0538
  146SAPE   C3816133   2.534   6.728   9.222  0.4957 -0.0108 -0.4536
  146SAPE   H8X16134   2.585   6.827   9.210  1.0618 -0.1992  0.3368
  146SAPE   H8Y16135   2.424   6.744   9.227  0.5079 -0.2739  1.5256
  146SAPE   C3916136   2.558   6.623   9.110 -0.6552 -0.0447  0.4162
  146SAPE   H9X16137   2.508   6.529   9.140  0.3288 -0.0284  2.2405
  146SAPE   H9Y16138   2.667   6.603   9.098 -0.3741  1.0049  1.0142
  146SAPE  C31016139   2.485   6.664   8.982 -0.3294 -0.1972 -0.0649
  146SAPE  H10X16140   2.384   6.701   9.011 -0.5027 -0.5671 -0.1818
  146SAPE  H10Y16141   2.474   6.574   8.917 -0.4501 -0.3274  0.1338
  146SAPE  C31116142   2.553   6.773   8.897  0.3800  0.3854 -0.0824
  146SAPE  H11X16143   2.654   6.735   8.869  1.9167  1.6936  3.1167
  146SAPE  H11Y16144   2.570   6.864   8.959 -0.4454 -0.1230  0.9321
  146SAPE  C31216145   2.476   6.828   8.773 -0.0842 -0.0538  0.3341
  146SAPE  H12X16146   2.445   6.743   8.708 -0.7307  0.8080 -0.5085
  146SAPE  H12Y16147   2.552   6.876   8.709 -0.1789 -1.0819 -0.5836
  146SAPE  C31316148   2.359   6.929   8.801 -0.4989  0.5015  0.0772
  146SAPE  H13X16149   2.360   7.016   8.732 -1.7489 -0.9919 -1.9260
  146SAPE  H13Y16150   2.372   6.961   8.906  1.7873 -2.0943  0.7111
  146SAPE  C31416151   2.217   6.870   8.797  0.5633  0.2395 -0.3901
  146SAPE  H14X16152   2.149   6.954   8.825  1.5069 -0.2185  3.9341
  146SAPE  H14Y16153   2.204   6.785   8.867  0.1440 -0.6057 -1.4497
  146SAPE  C31516154   2.170   6.821   8.656 -0.1862 -0.1636 -0.2167
  146SAPE  H15X16155   2.226   6.730   8.625 -0.2101 -0.7299  1.2773
  146SAPE  H15Y16156   2.180   6.899   8.578 -1.7530  0.4391  0.1405
  146SAPE  C31616157   2.028   6.766   8.670 -0.3146 -0.5929 -0.6200
  146SAPE  H16X16158   1.963   6.842   8.718  1.5242  2.7113 -2.9625
  146SAPE  H16Y16159   2.036   6.673   8.731 -1.6567 -0.9447 -0.9354
  146SAPE  C31716160   1.967   6.723   8.539 -0.3972 -0.6106 -0.3519
  146SAPE  H17X16161   2.046   6.671   8.481  1.1593  0.9958  0.2151
  146SAPE  H17Y16162   1.950   6.817   8.483  4.1175  0.1844 -0.8112
  146SAPE  C31816163   1.836   6.647   8.546 -0.1035  0.7603 -0.1298
  146SAPE  H18X16164   1.772   6.698   8.621  0.6409  2.6019 -0.7029
  146SAPE  H18Y16165   1.860   6.546   8.587 -0.7298  0.5101 -0.3749
  146SAPE  H18Z16166   1.794   6.624   8.446 -1.2987 -0.9008  0.7109
  147SAPE     N16167   5.014   0.693  10.924 -0.2293 -0.2786  0.2976
  147SAPE   HN116168   5.055   0.657  11.013  1.8070 -0.2311 -0.5541
  147SAPE   HN216169   4.926   0.744  10.943 -3.0791 -3.3220 -3.2228
  147SAPE   HN316170   4.997   0.616  10.856 -0.2703  1.1311 -1.3386
  147SAPE   C1216171   5.100   0.804  10.869  0.3354  0.3064  0.0677
  147SAPE  H12A16172   5.198   0.768  10.830  0.4639 -1.1055  1.5831
  147SAPE  H12B16173   5.127   0.862  10.959 -1.4730 -1.4284  1.8429
  147SAPE   C1116174   5.026   0.884  10.749 -0.1187  0.5536 -0.8248
  147SAPE  H11A16175   5.000   0.811  10.669  0.2630 -1.0950  0.4952
  147SAPE  H11B16176   5.093   0.968  10.722  0.9460  0.6361  1.7761
  147SAPE     P16177   4.799   1.033  10.728  0.1705 -0.1381  0.2203
  147SAPE   O1316178   4.666   1.011  10.797  0.0335  0.4094 -0.4641
  147SAPE   O1416179   4.840   1.174  10.713  0.1059 -0.3223 -0.1632
  147SAPE   O1216180   4.899   0.938  10.803  0.1590  0.0206  0.3849
  147SAPE   O1116181   4.778   0.978  10.574 -0.5224 -0.1008 -0.3411
  147SAPE    C116182   4.770   0.835  10.557 -0.1644  0.1451  0.4723
  147SAPE    HA16183   4.859   0.807  10.496 -0.9142 -0.0419 -0.5638
  147SAPE    HB16184   4.775   0.775  10.650  2.8819  0.4721  0.6259
  147SAPE    C216185   4.643   0.795  10.483  0.6245  0.4548 -0.0274
  147SAPE    HS16186   4.644   0.684  10.474  2.1145  0.4545 -0.1380
  147SAPE   O2116187   4.642   0.862  10.359 -0.2855  0.6231 -0.3897
  147SAPE   C2116188   4.703   0.805  10.257  0.4603 -0.7118  0.2867
  147SAPE   O2216189   4.757   0.696  10.258 -0.0424  0.4355  0.1061
  147SAPE   C2216190   4.697   0.904  10.139 -0.0509  0.8845 -0.3359
  147SAPE   H2R16191   4.604   0.964  10.152 -2.2623 -2.4575  0.3240
  147SAPE   H2S16192   4.773   0.983  10.157 -0.2919  0.5913  2.3039
  147SAPE    C316193   4.519   0.841  10.567 -0.4243 -0.0813  0.2580
  147SAPE    HX16194   4.530   0.949  10.587 -1.6649  1.2135 -4.7844
  147SAPE    HY16195   4.523   0.790  10.666 -0.0239 -0.2904  0.1386
  147SAPE   O3116196   4.400   0.812  10.505  0.5463 -0.0904 -0.2388
  147SAPE   C3116197   4.338   0.692  10.525  0.6011 -0.1955 -0.1642
  147SAPE   O3216198   4.372   0.614  10.612 -0.1652 -0.4853 -0.1628
  147SAPE   C3216199   4.222   0.693  10.428  0.2657  0.4737 -0.2549
  147SAPE   H2X16200   4.146   0.770  10.458  1.2278  1.3861 -0.0961
  147SAPE   H2Y16201   4.160   0.601  10.426 -1.2643  1.4466 -2.3328
  147SAPE   C2316202   4.711   0.844  10.004 -0.4388 -0.4002 -0.1106
  147SAPE   H3R16203   4.802   0.781  10.003 -0.7694 -0.8762 -0.5194
  147SAPE   H3S16204   4.733   0.924   9.929  0.1991  0.8561  1.3613
  147SAPE   C2416205   4.590   0.762   9.953  0.7235  0.2770 -0.1429
  147SAPE   H4R16206   4.573   0.680  10.026 -4.2906  0.9448 -0.1862
  147SAPE   H4S16207   4.608   0.706   9.859 -0.6540 -2.7368  1.2720
  147SAPE   C2516208   4.464   0.848   9.953  0.5199 -0.1856  0.2656
  147SAPE   H5R16209   4.418   0.884  10.046 -2.4567  2.8006 -2.1202
  147SAPE   C2616210   4.405   0.897   9.839 -0.4927  0.3957  0.1838
  147SAPE   H6R16211   4.310   0.952   9.847 -0.6061 -0.0509  2.5819
  147SAPE   C2716212   4.464   0.869   9.695  0.1703  0.1644  0.0599
  147SAPE   H7R16213   4.572   0.853   9.717  0.0897  0.6924  0.8392
  147SAPE   H7S16214   4.450   0.959   9.632 -1.4404 -2.0018 -2.9659
  147SAPE   C2816215   4.426   0.744   9.627 -0.5483  0.2853  0.2377
  147SAPE   H8R16216   4.477   0.657   9.672  0.3334  1.5209  1.7475
  147SAPE   C2916217   4.337   0.724   9.521  0.5295 -0.0213  0.3782
  147SAPE   H9R16218   4.335   0.624   9.477 -1.4146  0.1287  0.0791
  147SAPE  C21016219   4.267   0.845   9.461  0.3166 -0.2587 -0.0098
  147SAPE  H10R16220   4.324   0.941   9.459 -3.1925  2.0140 -1.0954
  147SAPE  H10S16221   4.184   0.862   9.533  2.2173 -0.7628  2.4442
  147SAPE  C21116222   4.205   0.808   9.328 -0.4681  0.4516 -0.9536
  147SAPE  H11R16223   4.137   0.721   9.332 -0.7767  0.6803 -1.1093
  147SAPE  C21216224   4.218   0.877   9.211 -0.1059  0.1224  0.2566
  147SAPE  H12R16225   4.163   0.836   9.125 -1.1179  0.9114  0.5034
  147SAPE  C21316226   4.291   1.003   9.189  0.3890 -0.6459 -0.0250
  147SAPE  H13R16227   4.306   1.069   9.277  2.5684  0.6507 -1.2532
  147SAPE  H13S16228   4.238   1.064   9.113  2.8959  0.6580 -0.8500
  147SAPE  C21416229   4.432   0.978   9.140 -0.3337 -0.0239  0.4803
  147SAPE  H14R16230   4.478   0.879   9.155  0.8456  0.5047  0.3742
  147SAPE  C21516231   4.500   1.076   9.072  0.2281  0.7928  0.4336
  147SAPE  H15R16232   4.600   1.048   9.035  0.2030 -0.5659  1.3111
  147SAPE  C21616233   4.453   1.220   9.041  0.9447 -0.0176  0.2830
  147SAPE  H16R16234   4.543   1.278   9.013  0.5758  1.0918  1.3152
  147SAPE  H16S16235   4.415   1.266   9.135 -0.2462 -0.0428 -0.1575
  147SAPE  C21716236   4.354   1.237   8.917 -0.3883 -0.0124 -0.6840
  147SAPE  H17R16237   4.259   1.202   8.964 -0.0874 -0.4372 -0.3817
  147SAPE  H17S16238   4.389   1.163   8.842  1.3276 -1.4145  1.3860
  147SAPE  C21816239   4.343   1.385   8.864 -0.8136  0.5830  0.0419
  147SAPE  H18R16240   4.326   1.456   8.947  0.6535 -0.7832  1.5861
  147SAPE  H18S16241   4.254   1.374   8.797 -0.4851 -1.3276 -0.1606
  147SAPE  C21916242   4.457   1.445   8.781  0.2520  0.0771  0.5473
  147SAPE  H19R16243   4.419   1.517   8.706  1.3648 -1.4736 -1.6345
  147SAPE  H19S16244   4.501   1.362   8.720 -1.1495  1.5604 -2.7255
  147SAPE  C22016245   4.569   1.516   8.853  0.3514 -0.4711  0.0638
  147SAPE  H20R16246   4.648   1.555   8.785  0.5974  3.0705  2.1061
  147SAPE  H20S16247   4.622   1.457   8.931 -0.9517 -2.1071 -0.2275
  147SAPE  H20T16248   4.527   1.608   8.900 -1.3863 -2.4412  2.6263
  147SAPE   C3316249   4.263   0.688  10.277 -0.4991 -0.3282 -0.1516
  147SAPE   H3X16250   4.344   0.759  10.250 -3.4307  2.8166 -1.4019
  147SAPE   H3Y16251   4.173   0.733  10.230  2.0812  3.7008 -1.7889
  147SAPE   C3416252   4.296   0.551  10.238  0.3409 -0.2292  0.7152
  147SAPE   H4X16253   4.221   0.470  10.250  0.1786 -0.1238  0.4229
  147SAPE   H4Y16254   4.399   0.516  10.262  1.2274 -0.3767 -2.8192
  147SAPE   C3516255   4.299   0.552  10.075 -0.1614  0.7327  0.1802
  147SAPE   H5X16256   4.383   0.611  10.035  0.1813  0.6015  0.7020
  147SAPE   H5Y16257   4.209   0.602  10.032  0.1383  0.3619 -0.9291
  147SAPE   C3616258   4.305   0.406  10.021 -0.9577  0.6058  0.1174
  147SAPE   H6X16259   4.234   0.340  10.074 -1.9448  1.1817 -0.4538
  147SAPE   H6Y16260   4.401   0.356  10.046 -2.2390 -2.5830 -0.8560
  147SAPE   C3716261   4.272   0.397   9.872 -0.5966 -0.5178 -0.4767
  147SAPE   H7X16262   4.345   0.461   9.818  2.4696 -2.8563  0.5888
  147SAPE   H7Y16263   4.171   0.440   9.858 -1.0325 -0.9431  1.1097
  147SAPE   C3816264   4.279   0.255   9.823  0.2621  0.2113 -0.4828
  147SAPE   H8X16265   4.239   0.180   9.895  1.9742  0.7056  1.0538
  147SAPE   H8Y16266   4.389   0.239   9.821  0.4522  0.9380  1.6925
  147SAPE   C3916267   4.215   0.228   9.688 -0.1875 -0.2497  0.0536
  147SAPE   H9X16268   4.111   0.244   9.722 -0.0920  0.1180  0.1725
  147SAPE   H9Y16269   4.232   0.121   9.662 -0.7201 -0.4603  0.5702
  147SAPE  C31016270   4.253   0.323   9.569  0.3751  0.5780 -0.2409
  147SAPE  H10X16271   4.363   0.307   9.568  0.3771  0.3880  1.1059
  147SAPE  H10Y16272   4.224   0.424   9.603  1.0956 -0.5781  4.5473
  147SAPE  C31116273   4.179   0.296   9.441  0.3291  0.0410 -0.0807
  147SAPE  H11X16274   4.069   0.311   9.454 -0.5774 -2.4378 -3.5409
  147SAPE  H11Y16275   4.195   0.188   9.419  0.8273 -0.3025  1.8160
  147SAPE  C31216276   4.240   0.386   9.333 -0.0844  0.5095  0.7969
  147SAPE  H12X16277   4.350   0.400   9.344 -0.2796  3.2370  0.0206
  147SAPE  H12Y16278   4.194   0.487   9.329  2.1504  1.5658 -0.4302
  147SAPE  C31316279   4.210   0.339   9.188  0.0823  0.4779 -0.0776
  147SAPE  H13X16280   4.099   0.343   9.176 -0.0034  2.2211  0.9316
  147SAPE  H13Y16281   4.246   0.235   9.195  0.2161  0.2715 -2.8294
  147SAPE  C31416282   4.283   0.423   9.078  0.5312  1.4118  0.3233
  147SAPE  H14X16283   4.321   0.360   8.995 -3.2499 -0.0615 -0.5101
  147SAPE  H14Y16284   4.368   0.477   9.125  0.5139  2.2655 -0.6049
  147SAPE  C31516285   4.192   0.527   9.010  0.4112  1.0171 -0.3379
  147SAPE  H15X16286   4.142   0.579   9.095  0.7269 -0.2203  0.6357
  147SAPE  H15Y16287   4.106   0.475   8.964  0.5394  0.1564  0.3569
  147SAPE  C31616288   4.262   0.622   8.917  0.1132  0.6082  0.2800
  147SAPE  H16X16289   4.309   0.555   8.842 -1.7341  0.5243 -0.8602
  147SAPE  H16Y16290   4.345   0.666   8.976  0.8928 -0.1534 -0.2151
  147SAPE  C31716291   4.177   0.729   8.855  0.7493  0.2557  0.7892
  147SAPE  H17X16292   4.129   0.798   8.927 -0.5574  0.2218 -0.0305
  147SAPE  H17Y16293   4.099   0.676   8.796 -0.5881  3.2872 -0.3352
  147SAPE  C31816294   4.251   0.823   8.764  0.3864 -0.3314 -0.6625
  147SAPE  H18X16295   4.308   0.763   8.690  1.1699  0.1637 -0.4831
  147SAPE  H18Y16296   4.323   0.887   8.820  0.3855 -2.0818  1.4851
  147SAPE  H18Z16297   4.186   0.898   8.714  2.1547  0.8260 -1.3419
  148SAPE     N16298   6.742   4.004  10.729  0.8149  0.4044 -0.1054
  148SAPE   HN116299   6.749   3.902  10.749 -2.7920 -0.1068 -0.7531
  148SAPE   HN216300   6.696   4.012  10.636  0.7553  1.1539 -0.0167
  148SAPE   HN316301   6.842   4.034  10.727  1.2534 -0.8919  0.8962
  148SAPE   C1216302   6.669   4.062  10.850 -0.5254  0.0815  0.2856
  148SAPE  H12A16303   6.692   3.993  10.934 -2.0203 -0.2516  0.4489
  148SAPE  H12B16304   6.559   4.058  10.834 -0.3301  0.4834 -1.3646
  148SAPE   C1116305   6.706   4.203  10.875  0.4781 -0.5404 -0.9203
  148SAPE  H11A16306   6.667   4.237  10.973  1.7235 -1.2036 -0.1670
  148SAPE  H11B16307   6.645   4.255  10.798 -1.7280 -2.1763 -0.3626
  148SAPE     P16308   6.899   4.376  10.820  0.1882  0.4233  0.0786
  148SAPE   O1316309   6.835   4.471  10.914 -0.2949 -0.1751  0.0398
  148SAPE   O1416310   7.043   4.381  10.825 -0.1225 -0.1856  0.1386
  148SAPE   O1216311   6.846   4.233  10.862 -0.5035  0.5330 -0.0172
  148SAPE   O1116312   6.849   4.405  10.675  0.0108  0.2388 -0.3127
  148SAPE    C116313   6.906   4.333  10.562  0.0797 -0.0877 -0.1137
  148SAPE    HA16314   6.945   4.233  10.591  0.1097 -0.3735 -1.0970
  148SAPE    HB16315   6.826   4.314  10.487 -0.1804  0.2880  0.0640
  148SAPE    C216316   7.032   4.404  10.495  0.2946 -0.6544  0.0123
  148SAPE    HS16317   7.097   4.445  10.575  0.8905  0.2931 -0.9236
  148SAPE   O2116318   6.982   4.514  10.408  0.5830  0.3201  0.1495
  148SAPE   C2116319   7.059   4.622  10.391 -0.0550  0.0902 -0.0899
  148SAPE   O2216320   7.168   4.648  10.440  0.2029  0.1808 -0.3514
  148SAPE   C2216321   6.980   4.718  10.298 -0.8401  0.1049  0.0239
  148SAPE   H2R16322   6.940   4.647  10.222 -2.9652 -0.3177  1.4695
  148SAPE   H2S16323   6.890   4.758  10.347 -1.2160 -2.6679  1.7942
  148SAPE    C316324   7.119   4.310  10.408  0.0456  0.7246  0.3470
  148SAPE    HX16325   7.143   4.228  10.479 -1.0041  0.8268  0.8322
  148SAPE    HY16326   7.211   4.365  10.379 -0.1782  1.6806  1.4104
  148SAPE   O3116327   7.043   4.249  10.296  0.1497  0.2582  0.0885
  148SAPE   C3116328   7.046   4.315  10.183  0.0813 -0.0008 -1.1586
  148SAPE   O3216329   7.121   4.408  10.161  0.4059 -0.4701 -0.0844
  148SAPE   C3216330   6.936   4.257  10.088 -0.5177 -0.5462  0.1589
  148SAPE   H2X16331   6.841   4.286  10.138 -0.9327  0.1560 -1.0044
  148SAPE   H2Y16332   6.936   4.147  10.074 -0.8000 -0.4107 -0.9735
  148SAPE   C2316333   7.075   4.828  10.244  0.1869 -0.7864  0.5389
  148SAPE   H3R16334   7.173   4.781  10.218  0.2289 -1.1797  1.3833
  148SAPE   H3S16335   7.077   4.903  10.326 -1.6959  1.8543 -1.6751
  148SAPE   C2416336   7.024   4.904  10.122 -0.0489 -0.3704 -0.0324
  148SAPE   H4R16337   7.099   4.983  10.102 -0.6876  0.0162 -0.9965
  148SAPE   H4S16338   6.925   4.949  10.144  0.2957  0.9361 -1.0396
  148SAPE   C2516339   7.010   4.821   9.991  0.0125 -0.1378  0.5975
  148SAPE   H5R16340   7.108   4.793   9.949 -1.1611 -1.1333 -1.6508
  148SAPE   C2616341   6.898   4.770   9.942 -0.3793 -0.0422 -0.2517
  148SAPE   H6R16342   6.907   4.710   9.850  2.3900 -0.0494 -0.0851
  148SAPE   C2716343   6.763   4.777  10.004 -0.3349  0.6419  0.2337
  148SAPE   H7R16344   6.717   4.859   9.945  3.0110  2.0685 -0.5887
  148SAPE   H7S16345   6.759   4.796  10.114 -1.3870 -1.0538  0.5270
  148SAPE   C2816346   6.681   4.648   9.998 -0.6683 -0.2207  0.0709
  148SAPE   H8R16347   6.677   4.586  10.089  0.0772 -2.0343 -1.0727
  148SAPE   C2916348   6.614   4.610   9.896  0.5445  0.4982  0.3787
  148SAPE   H9R16349   6.566   4.512   9.904  2.1642 -0.2354  1.7782
  148SAPE  C21016350   6.596   4.681   9.759 -0.1843  0.2780 -0.4063
  148SAPE  H10R16351   6.654   4.611   9.695 -0.7547 -0.5752 -0.0061
  148SAPE  H10S16352   6.651   4.777   9.752 -0.7334  0.5720 -0.7509
  148SAPE  C21116353   6.459   4.696   9.716 -0.7053  0.2740 -0.5678
  148SAPE  H11R16354   6.390   4.713   9.799 -0.4085 -0.0399 -0.2496
  148SAPE  C21216355   6.408   4.690   9.593  0.5211  0.6743  0.9117
  148SAPE  H12R16356   6.300   4.704   9.579  0.5376 -1.3578 -2.3775
  148SAPE  C21316357   6.482   4.670   9.458 -0.2360 -0.6123  0.0306
  148SAPE  H13R16358   6.405   4.661   9.379  0.8579 -2.9857 -0.8481
  148SAPE  H13S16359   6.533   4.571   9.464  2.5862  0.6859 -0.8370
  148SAPE  C21416360   6.600   4.759   9.417  0.2626  0.0705  0.1710
  148SAPE  H14R16361   6.691   4.728   9.471  0.5130 -0.6225 -0.6255
  148SAPE  C21516362   6.587   4.859   9.327 -0.0288  0.1245 -0.0271
  148SAPE  H15R16363   6.685   4.906   9.306  0.1787  0.6011  1.8300
  148SAPE  C21616364   6.474   4.897   9.242  0.2344 -0.0538  0.1033
  148SAPE  H16R16365   6.479   5.008   9.242 -0.7616  0.0148 -1.1851
  148SAPE  H16S16366   6.377   4.863   9.284  0.2754 -2.3306 -1.5000
  148SAPE  C21716367   6.476   4.842   9.098 -0.2814  1.0818 -0.7876
  148SAPE  H17R16368   6.443   4.737   9.085  0.1619  0.8575 -0.1604
  148SAPE  H17S16369   6.583   4.834   9.069 -0.0194  1.2296  0.1117
  148SAPE  C21816370   6.415   4.934   8.986  0.5458  0.5009 -0.7789
  148SAPE  H18R16371   6.425   4.900   8.881  0.3058  0.5864 -0.8302
  148SAPE  H18S16372   6.459   5.035   8.998  0.3191  0.5708 -0.5186
  148SAPE  C21916373   6.262   4.962   9.018 -0.0556  0.5460 -0.0002
  148SAPE  H19R16374   6.240   4.998   9.121 -2.7597 -0.0229 -0.3058
  148SAPE  H19S16375   6.215   4.862   9.004  0.1559  0.7865 -3.0606
  148SAPE  C22016376   6.185   5.056   8.921  0.2099 -0.3358  0.1826
  148SAPE  H20R16377   6.241   5.152   8.921  0.7645 -0.6439  1.4583
  148SAPE  H20S16378   6.082   5.082   8.953 -0.3441 -1.3965 -0.6734
  148SAPE  H20T16379   6.170   5.012   8.820 -3.3779 -0.9261  0.8511
  148SAPE   C3316380   6.931   4.319   9.949 -0.3958  0.7605  0.4465
  148SAPE   H3X16381   7.025   4.315   9.891  0.2000 -0.1216  1.4490
  148SAPE   H3Y16382   6.902   4.424   9.973 -1.8139  0.4052  0.3801
  148SAPE   C3416383   6.823   4.254   9.864 -0.2426 -0.2606 -0.2582
  148SAPE   H4X16384   6.722   4.265   9.909 -0.9095  2.0837 -2.1138
  148SAPE   H4Y16385   6.840   4.146   9.844 -1.3967 -0.3768 -0.7494
  148SAPE   C3516386   6.810   4.327   9.726 -0.1095 -0.1724  0.5273
  148SAPE   H5X16387   6.900   4.296   9.668  0.4362  0.8320  0.8177
  148SAPE   H5Y16388   6.808   4.436   9.748  0.8242  0.1329 -0.7651
  148SAPE   C3616389   6.687   4.268   9.644 -0.1504 -0.0790 -0.3174
  148SAPE   H6X16390   6.597   4.324   9.677  0.9715  1.9085 -0.4884
  148SAPE   H6Y16391   6.685   4.160   9.670 -1.9535 -1.1315 -4.1454
  148SAPE   C3716392   6.711   4.285   9.496 -0.1574 -0.3932  0.1369
  148SAPE   H7X16393   6.791   4.219   9.454 -0.6405  0.1079 -1.6937
  148SAPE   H7Y16394   6.743   4.390   9.479  0.2690 -0.7266 -1.2672
  148SAPE   C3816395   6.587   4.249   9.417 -0.4625 -0.0498 -0.3559
  148SAPE   H8X16396   6.499   4.308   9.451  1.3959  2.0056  1.2349
  148SAPE   H8Y16397   6.569   4.142   9.438  0.8588 -0.4848 -1.2902
  148SAPE   C3916398   6.611   4.256   9.261  0.2009  0.0656 -0.3125
  148SAPE   H9X16399   6.641   4.152   9.233  0.1910 -0.2173  0.6880
  148SAPE   H9Y16400   6.697   4.321   9.234 -1.2116  2.4625  0.7289
  148SAPE  C31016401   6.485   4.297   9.179 -0.4013  0.2618  0.5045
  148SAPE  H10X16402   6.437   4.391   9.212  0.7894  0.4523  1.8107
  148SAPE  H10Y16403   6.418   4.214   9.211  0.4013 -0.2343  0.9417
  148SAPE  C31116404   6.506   4.304   9.032  0.5691 -0.3580  0.5218
  148SAPE  H11X16405   6.594   4.366   9.006 -1.1743  1.2134 -2.1304
  148SAPE  H11Y16406   6.416   4.352   8.989  2.5449  1.8336 -1.4559
  148SAPE  C31216407   6.514   4.175   8.953  0.8511 -0.5202 -0.7821
  148SAPE  H12X16408   6.600   4.119   8.994  0.1075 -0.2335  1.2790
  148SAPE  H12Y16409   6.534   4.198   8.846  1.8230  1.7389 -0.1597
  148SAPE  C31316410   6.383   4.091   8.967  0.0229  0.4607  0.1849
  148SAPE  H13X16411   6.292   4.149   8.939 -1.0662 -0.3826  1.8354
  148SAPE  H13Y16412   6.359   4.056   9.070  0.3126  1.4025  0.5840
  148SAPE  C31416413   6.383   3.967   8.876  0.8485  0.1893 -1.0121
  148SAPE  H14X16414   6.389   4.007   8.773 -0.1160  1.8053 -0.4833
  148SAPE  H14Y16415   6.288   3.909   8.878  1.9970 -1.7604  1.1976
  148SAPE  C31516416   6.499   3.862   8.904  0.3345  0.0113  0.1712
  148SAPE  H15X16417   6.487   3.841   9.012 -0.8635  0.5697  0.1572
  148SAPE  H15Y16418   6.597   3.914   8.891  0.4481  0.0828  1.2582
  148SAPE  C31616419   6.487   3.738   8.821  0.2429 -0.2824  0.4331
  148SAPE  H16X16420   6.509   3.762   8.714 -1.0558  0.1121  0.2388
  148SAPE  H16Y16421   6.386   3.693   8.812  0.3332 -0.2502 -1.1557
  148SAPE  C31716422   6.591   3.627   8.860  0.0498 -0.7758 -0.2505
  148SAPE  H17X16423   6.568   3.539   8.797  0.2912 -0.3789 -0.9059
  148SAPE  H17Y16424   6.553   3.596   8.959 -1.2181 -2.6430 -1.2642
  148SAPE  C31816425   6.727   3.673   8.861 -0.0397 -0.9645 -0.0090
  148SAPE  H18X16426   6.732   3.741   8.773 -0.8322 -1.5957 -0.5640
  148SAPE  H18Y16427   6.799   3.590   8.849  0.4751 -0.4940 -0.2634
  148SAPE  H18Z16428   6.742   3.733   8.954 -4.4487  0.0507  0.2819
  149SAPE     N16429   0.174   5.592  11.397  0.1337 -0.3315 -0.2513
  149SAPE   HN116430   0.272   5.582  11.365 -0.1363 -0.6045 -1.0186
  149SAPE   HN216431   0.167   5.660  11.475 -2.1659 -0.8444  0.0632
  149SAPE   HN316432   0.125   5.505  11.428 -1.8106 -0.7120 -3.8056
  149SAPE   C1216433   0.092   5.648  11.283 -0.4277  0.0770  0.4580
  149SAPE  H12A16434   0.090   5.574  11.201 -0.0089  1.2647 -0.6586
  149SAPE  H12B16435   0.138   5.738  11.238 -1.7266  0.0287 -1.0593
  149SAPE   C1116436  -0.050   5.673  11.327 -0.9829  0.3336  0.2654
  149SAPE  H11A16437  -0.093   5.727  11.240 -2.0011  0.2007  0.6753
  149SAPE  H11B16438  -0.053   5.737  11.418  0.2300  0.7731  0.0190
  149SAPE     P16439  -0.263   5.551  11.352  0.2208 -0.0906  0.1388
  149SAPE   O1316440  -0.306   5.434  11.431 -0.1827 -0.4250  0.3097
  149SAPE   O1416441  -0.300   5.685  11.410  0.5786 -0.4641  0.0631
  149SAPE   O1216442  -0.104   5.543  11.343  0.0188  0.7197  0.1933
  149SAPE   O1116443  -0.313   5.537  11.208 -0.3961  0.5792  0.1220
  149SAPE    C116444  -0.236   5.515  11.085  0.2581  0.1276 -0.1378
  149SAPE    HA16445  -0.127   5.502  11.100  0.2135  0.1413  0.2205
  149SAPE    HB16446  -0.268   5.415  11.049  1.7443 -2.0970  4.0506
  149SAPE    C216447  -0.276   5.613  10.969  0.4066 -0.2733  0.0062
  149SAPE    HS16448  -0.247   5.714  11.006  0.2953 -0.5723  0.9347
  149SAPE   O2116449  -0.415   5.592  10.933  0.1402  0.2412  0.0974
  149SAPE   C2116450  -0.477   5.707  10.909  0.8409 -0.0579  0.8553
  149SAPE   O2216451  -0.422   5.816  10.896 -0.2127  0.1786  0.3781
  149SAPE   C2216452  -0.623   5.684  10.883 -0.2292  0.7105 -0.4921
  149SAPE   H2R16453  -0.633   5.658  10.776 -0.6770 -3.3541  0.3895
  149SAPE   H2S16454  -0.654   5.595  10.942  0.5884  0.9292  0.2959
  149SAPE    C316455  -0.194   5.579  10.842 -0.7924 -0.7149  0.3472
  149SAPE    HX16456  -0.237   5.493  10.786 -1.3253  0.0125 -0.3803
  149SAPE    HY16457  -0.098   5.543  10.885  0.2616  0.7091 -0.7249
  149SAPE   O3116458  -0.174   5.697  10.757  0.1007 -0.7342  0.7221
  149SAPE   C3116459  -0.084   5.691  10.659  0.3234 -0.1337 -0.0686
  149SAPE   O3216460  -0.011   5.597  10.629 -0.2095 -0.0840  0.1791
  149SAPE   C3216461  -0.094   5.825  10.586  0.0191 -0.3308 -0.0828
  149SAPE   H2X16462  -0.067   5.905  10.658  0.2579  1.9606 -2.5382
  149SAPE   H2Y16463  -0.199   5.842  10.552  0.7917  0.4792 -2.2650
  149SAPE   C2316464  -0.720   5.797  10.922  0.5248 -0.3902 -0.0132
  149SAPE   H3R16465  -0.681   5.899  10.904  0.4271 -0.1368  1.1223
  149SAPE   H3S16466  -0.751   5.795  11.029  2.1600 -0.8979  0.4828
  149SAPE   C2416467  -0.839   5.793  10.834  0.8683 -0.0655 -0.4370
  149SAPE   H4R16468  -0.824   5.799  10.724 -0.2347  0.1127 -0.5917
  149SAPE   H4S16469  -0.895   5.888  10.850 -0.7161 -1.1843  1.0323
  149SAPE   C2516470  -0.936   5.687  10.869  0.4438  0.1467 -0.1459
  149SAPE   H5R16471  -0.987   5.694  10.966  2.3354  0.2615  0.8965
  149SAPE   C2616472  -0.968   5.576  10.798 -0.0547 -0.1217  0.0776
  149SAPE   H6R16473  -1.041   5.505  10.840 -1.3776  0.1002 -1.7165
  149SAPE   C2716474  -0.910   5.544  10.660 -0.1945 -0.1804  0.6200
  149SAPE   H7R16475  -0.822   5.480  10.684 -0.0161  0.3451  1.3788
  149SAPE   H7S16476  -0.879   5.634  10.603  1.0945 -1.1577 -0.2872
  149SAPE   C2816477  -1.016   5.460  10.588 -0.4905  0.2141  0.7181
  149SAPE   H8R16478  -1.049   5.366  10.636 -0.5320  0.1230  0.5102
  149SAPE   C2916479  -1.068   5.493  10.467 -0.4509 -0.2200 -0.5224
  149SAPE   H9R16480  -1.146   5.433  10.417 -1.4764  0.5081  0.1792
  149SAPE  C21016481  -1.038   5.615  10.384 -0.1064 -0.9085 -0.0377
  149SAPE  H10R16482  -0.952   5.599  10.316  1.2439  0.6145  1.2541
  149SAPE  H10S16483  -1.013   5.700  10.451  1.9770 -0.2177 -1.5838
  149SAPE  C21116484  -1.156   5.676  10.317  0.0043  0.4309  0.1695
  149SAPE  H11R16485  -1.214   5.760  10.357  0.0997 -0.5659  2.5950
  149SAPE  C21216486  -1.203   5.620  10.202 -0.0787  0.0780  0.0286
  149SAPE  H12R16487  -1.302   5.659  10.174 -0.2639 -1.1409 -1.1019
  149SAPE  C21316488  -1.156   5.498  10.126 -0.0659  0.2308  0.0848
  149SAPE  H13R16489  -1.226   5.412  10.131  0.8548 -0.5699 -0.3704
  149SAPE  H13S16490  -1.078   5.460  10.196 -0.4025  0.3013  0.5044
  149SAPE  C21416491  -1.067   5.519  10.001 -0.5141  0.0544 -0.5749
  149SAPE  H14R16492  -1.036   5.623   9.985  4.7447 -1.1640 -0.1764
  149SAPE  C21516493  -1.029   5.424   9.909  0.6280  0.2061 -0.1678
  149SAPE  H15R16494  -0.987   5.454   9.812 -2.8785  0.6480 -1.7117
  149SAPE  C21616495  -1.077   5.284   9.930 -0.3130  0.1629 -0.0113
  149SAPE  H16R16496  -1.161   5.258   9.862  2.0428 -1.4272 -2.5933
  149SAPE  H16S16497  -1.115   5.267  10.033 -0.7002  1.9926  0.1690
  149SAPE  C21716498  -0.955   5.191   9.903  0.2699  0.1156 -0.1549
  149SAPE  H17R16499  -0.878   5.185   9.982 -0.7217 -0.3467  0.8025
  149SAPE  H17S16500  -0.894   5.216   9.814  0.2186 -1.4705 -0.6758
  149SAPE  C21816501  -1.009   5.051   9.874 -0.2630 -0.4004 -0.9715
  149SAPE  H18R16502  -1.068   5.028   9.966  1.7112  0.6986  0.6522
  149SAPE  H18S16503  -0.918   4.987   9.879  0.9427  1.3079  2.2088
  149SAPE  C21916504  -1.082   5.015   9.749 -0.6270  0.8935  0.3189
  149SAPE  H19R16505  -1.182   5.063   9.748 -0.0560  2.1426  1.0813
  149SAPE  H19S16506  -1.103   4.907   9.736  1.4514  0.5978 -1.1074
  149SAPE  C22016507  -1.026   5.066   9.615 -0.8182  0.1954 -0.1492
  149SAPE  H20R16508  -0.958   5.151   9.633  0.2259 -0.5151 -0.6428
  149SAPE  H20S16509  -1.116   5.072   9.549 -0.4468 -1.5266 -0.8552
  149SAPE  H20T16510  -0.958   4.985   9.581  0.6777  0.7381  1.4464
  149SAPE   C3316511  -0.012   5.830  10.449  0.3328  0.0333 -1.0173
  149SAPE   H3X16512   0.087   5.780  10.461 -0.1756 -0.6680  0.4879
  149SAPE   H3Y16513   0.017   5.936  10.429  0.8948 -0.1029 -0.9487
  149SAPE   C3416514  -0.084   5.769  10.333  0.1636 -0.2895 -0.6648
  149SAPE   H4X16515  -0.194   5.781  10.344  0.1233 -1.5553  0.5879
  149SAPE   H4Y16516  -0.064   5.660  10.329  1.2513 -0.0848 -1.0021
  149SAPE   C3516517  -0.027   5.811  10.199 -0.5303 -0.6180  0.0091
  149SAPE   H5X16518   0.079   5.783  10.182 -0.9839 -2.2244 -0.3239
  149SAPE   H5Y16519  -0.030   5.922  10.193 -0.6432 -0.7225 -3.0489
  149SAPE   C3616520  -0.111   5.746  10.090 -0.0308  0.6723  0.2807
  149SAPE   H6X16521  -0.214   5.787  10.087 -0.2267  0.2152 -2.5846
  149SAPE   H6Y16522  -0.115   5.637  10.112  0.1477  0.6536  0.2212
  149SAPE   C3716523  -0.049   5.768   9.951 -0.6159 -0.5903  0.7304
  149SAPE   H7X16524   0.061   5.757   9.962 -0.4118  0.4983 -0.1068
  149SAPE   H7Y16525  -0.069   5.865   9.902  0.8660 -0.8936 -0.5197
  149SAPE   C3816526  -0.091   5.664   9.848  0.1899  0.2868  0.8492
  149SAPE   H8X16527  -0.197   5.676   9.818  0.0918  0.2103  1.1618
  149SAPE   H8Y16528  -0.083   5.559   9.885 -0.5966  0.0797  0.4483
  149SAPE   C3916529  -0.013   5.679   9.713  0.2137  0.5927  0.0878
  149SAPE   H9X16530   0.097   5.676   9.727  0.0078  2.1763  3.0203
  149SAPE   H9Y16531  -0.035   5.769   9.651 -1.8015  0.0726 -0.0003
  149SAPE  C31016532  -0.041   5.555   9.624 -0.0810 -1.3209  0.0956
  149SAPE  H10X16533  -0.152   5.541   9.627 -0.3154 -0.3614 -1.9966
  149SAPE  H10Y16534   0.011   5.473   9.677  2.0145  0.3749  0.8052
  149SAPE  C31116535   0.007   5.587   9.478  0.1485 -0.4800  0.1562
  149SAPE  H11X16536   0.107   5.635   9.482 -1.0046  1.9980  1.4469
  149SAPE  H11Y16537  -0.066   5.657   9.432  0.7803  0.9862  1.3349
  149SAPE  C31216538   0.009   5.461   9.388 -0.4198  0.2789 -0.2067
  149SAPE  H12X16539  -0.081   5.398   9.407  0.3586 -1.2104 -1.2371
  149SAPE  H12Y16540   0.100   5.404   9.414  0.8705  1.9093 -0.9585
  149SAPE  C31316541   0.040   5.492   9.239 -0.4274 -1.0088  0.0031
  149SAPE  H13X16542   0.117   5.426   9.191  0.4155 -0.5621  0.7035
  149SAPE  H13Y16543   0.077   5.596   9.225 -1.2512 -0.1275  3.3530
  149SAPE  C31416544  -0.090   5.480   9.159  0.5107 -0.2736  0.8196
  149SAPE  H14X16545  -0.178   5.528   9.206  0.8940  1.0699  0.2388
  149SAPE  H14Y16546  -0.109   5.371   9.159 -0.3874 -0.1222  1.1607
  149SAPE  C31516547  -0.085   5.525   9.009  0.3958 -0.6665  0.2230
  149SAPE  H15X16548  -0.175   5.495   8.952  0.2732  2.1107 -1.2187
  149SAPE  H15Y16549   0.004   5.499   8.948 -0.2297 -2.0464 -0.1394
  149SAPE  C31616550  -0.090   5.684   8.999  0.2541 -0.4416 -1.2650
  149SAPE  H16X16551  -0.019   5.725   9.074 -1.1192  0.0169 -0.1835
  149SAPE  H16Y16552  -0.192   5.714   9.029  1.4185  1.9310  0.7035
  149SAPE  C31716553  -0.061   5.731   8.856 -0.6045  0.4306 -0.5115
  149SAPE  H17X16554  -0.143   5.692   8.792 -1.1226 -0.9331  0.9342
  149SAPE  H17Y16555   0.032   5.688   8.814 -1.6902 -0.0250 -2.5612
  149SAPE  C31816556  -0.051   5.886   8.846  0.2505  0.0730  0.5128
  149SAPE  H18X16557  -0.060   5.910   8.738  1.1804 -1.5601  0.0315
  149SAPE  H18Y16558   0.045   5.928   8.884  0.0875 -1.0361  2.3121
  149SAPE  H18Z16559  -0.134   5.936   8.900 -0.0477  0.0433  0.0827
  150SAPE     N16560   1.942   5.876  10.849  0.7876 -0.3570  0.4748
  150SAPE   HN116561   1.952   5.889  10.747  3.9447  1.7302  0.9146
  150SAPE   HN216562   1.883   5.957  10.877  0.0362 -0.2246 -1.3610
  150SAPE   HN316563   2.039   5.889  10.884  1.1022 -0.7672 -0.2395
  150SAPE   C1216564   1.898   5.742  10.906  0.2659  0.6201 -0.0459
  150SAPE  H12A16565   1.793   5.717  10.881  0.5939 -1.1864  0.2158
  150SAPE  H12B16566   1.903   5.728  11.017 -0.7614 -0.5107 -0.1177
  150SAPE   C1116567   1.971   5.623  10.824 -0.0001 -0.0863 -0.3921
  150SAPE  H11A16568   2.082   5.626  10.828 -0.0346  1.4888 -0.0107
  150SAPE  H11B16569   1.950   5.630  10.715 -0.5826 -1.0816 -0.3558
  150SAPE     P16570   2.013   5.372  10.901  0.1671  0.1702 -0.1159
  150SAPE   O1316571   2.068   5.391  11.033 -0.3941  0.1430  0.4512
  150SAPE   O1416572   1.933   5.246  10.882  0.1621 -0.4511  0.0503
  150SAPE   O1216573   1.916   5.487  10.864  0.4576 -0.4158 -0.0509
  150SAPE   O1116574   2.116   5.379  10.783  0.2689 -0.5655 -0.3651
  150SAPE    C116575   2.086   5.361  10.646  0.0146  0.1138  0.1319
  150SAPE    HA16576   1.999   5.292  10.634 -1.2457  1.8212 -1.0860
  150SAPE    HB16577   2.063   5.456  10.593  1.5685 -0.0197 -0.8610
  150SAPE    C216578   2.209   5.301  10.570 -0.1025  0.1593 -0.2375
  150SAPE    HS16579   2.280   5.386  10.569 -1.4144  1.3643  1.8481
  150SAPE   O2116580   2.159   5.259  10.444  0.4110 -0.2484 -0.1608
  150SAPE   C2116581   2.237   5.274  10.345  0.2496 -0.6865 -0.0080
  150SAPE   O2216582   2.361   5.300  10.359 -0.0398 -0.2504 -0.2538
  150SAPE   C2216583   2.164   5.256  10.213  0.3129  0.4589 -0.9606
  150SAPE   H2R16584   2.121   5.153  10.213 -0.8806  0.9450 -1.2327
  150SAPE   H2S16585   2.084   5.328  10.190  0.6456  1.4938  0.9120
  150SAPE    C316586   2.262   5.179  10.640 -0.8129  0.4420 -0.6606
  150SAPE    HX16587   2.194   5.092  10.626 -2.2549  1.2567  0.9763
  150SAPE    HY16588   2.260   5.194  10.750 -1.7421  1.6485 -0.8181
  150SAPE   O3116589   2.402   5.162  10.609  0.4345  0.3477  0.1879
  150SAPE   C3116590   2.424   5.040  10.547 -0.4756 -0.2201 -0.1365
  150SAPE   O3216591   2.341   4.957  10.522 -0.1464  0.1529  0.1857
  150SAPE   C3216592   2.564   5.040  10.507 -0.9700  0.7640  0.2747
  150SAPE   H2X16593   2.619   4.988  10.589  1.2165 -0.2301 -1.7015
  150SAPE   H2Y16594   2.609   5.141  10.495 -2.4729  1.3655 -0.6563
  150SAPE   C2316595   2.258   5.267  10.097  0.4469 -0.4613  0.3418
  150SAPE   H3R16596   2.304   5.167  10.080 -0.8398 -0.8916 -0.7116
  150SAPE   H3S16597   2.332   5.351  10.102 -1.1944  1.0341  0.3867
  150SAPE   C2416598   2.173   5.287   9.968 -0.2113  0.1268 -0.1672
  150SAPE   H4R16599   2.123   5.386   9.969  0.3004  0.4415 -2.1026
  150SAPE   H4S16600   2.095   5.208   9.974  0.1249 -0.2633 -0.8366
  150SAPE   C2516601   2.260   5.263   9.846 -0.3099  0.4692  0.6591
  150SAPE   H5R16602   2.351   5.202   9.851  0.0790  0.8650 -0.9022
  150SAPE   C2616603   2.248   5.321   9.723  0.5351  0.7432  0.7030
  150SAPE   H6R16604   2.318   5.290   9.644 -0.5217  0.1734 -0.0434
  150SAPE   C2716605   2.141   5.423   9.676 -0.6037  1.0800 -0.0389
  150SAPE   H7R16606   2.204   5.493   9.617  2.5365  0.6792  2.6091
  150SAPE   H7S16607   2.097   5.477   9.762 -0.3510 -1.3316  1.7176
  150SAPE   C2816608   2.033   5.354   9.597 -0.0606  0.8114  0.2036
  150SAPE   H8R16609   1.942   5.340   9.657 -0.3179  0.3209 -0.2944
  150SAPE   C2916610   2.022   5.321   9.468  0.4677 -0.2859  0.4732
  150SAPE   H9R16611   1.939   5.260   9.431  0.8729 -0.5576 -0.0067
  150SAPE  C21016612   2.129   5.340   9.366  0.2987  0.2455 -0.0781
  150SAPE  H10R16613   2.185   5.434   9.383  2.1044 -0.6655 -0.7530
  150SAPE  H10S16614   2.073   5.346   9.270  0.5235  1.9825 -0.1293
  150SAPE  C21116615   2.220   5.223   9.359 -0.4179  0.5278 -0.7840
  150SAPE  H11R16616   2.259   5.186   9.455 -3.0368 -1.1237 -0.2406
  150SAPE  C21216617   2.253   5.155   9.246 -0.1609 -0.5317  0.1273
  150SAPE  H12R16618   2.331   5.077   9.247 -0.2661 -0.6595 -0.8395
  150SAPE  C21316619   2.200   5.186   9.106  0.1995  0.2109  0.0661
  150SAPE  H13R16620   2.215   5.293   9.081 -2.9961  2.0182  4.5134
  150SAPE  H13S16621   2.092   5.161   9.102  0.6390 -1.9061  0.0322
  150SAPE  C21416622   2.253   5.103   8.993 -0.6986 -0.3630  0.3772
  150SAPE  H14R16623   2.292   5.005   9.025 -0.0605  0.1420  1.1986
  150SAPE  C21516624   2.261   5.145   8.861 -0.9142 -0.3417  0.7148
  150SAPE  H15R16625   2.319   5.078   8.795  2.1293 -1.2211  3.9876
  150SAPE  C21616626   2.210   5.272   8.791  0.6170 -0.2353 -0.7651
  150SAPE  H16R16627   2.141   5.322   8.862 -0.2399 -0.1329 -1.6483
  150SAPE  H16S16628   2.152   5.235   8.703 -1.9090  0.8639  0.3342
  150SAPE  C21716629   2.323   5.366   8.732  0.5300  0.4891  0.5562
  150SAPE  H17R16630   2.424   5.319   8.730  0.3791  0.1459  0.8859
  150SAPE  H17S16631   2.331   5.444   8.811  1.4817  1.0123 -0.0377
  150SAPE  C21816632   2.276   5.439   8.606  0.3733  0.6908  0.5197
  150SAPE  H18R16633   2.168   5.462   8.619 -0.2044 -2.5740  2.8648
  150SAPE  H18S16634   2.264   5.362   8.527 -0.1977  0.3460  0.9324
  150SAPE  C21916635   2.347   5.562   8.564  0.5425  0.3836  0.0862
  150SAPE  H19R16636   2.326   5.644   8.636  0.1857 -0.8938  1.4890
  150SAPE  H19S16637   2.313   5.588   8.462 -0.1248  1.1246  0.4848
  150SAPE  C22016638   2.506   5.548   8.549  0.4200 -0.5367 -0.5429
  150SAPE  H20R16639   2.546   5.651   8.530 -1.6627  0.3403 -0.4266
  150SAPE  H20S16640   2.537   5.477   8.470 -0.8501 -0.8296 -0.7901
  150SAPE  H20T16641   2.556   5.507   8.639 -0.7447 -1.6883 -0.3936
  150SAPE   C3316642   2.586   4.959  10.374  0.2437  0.6606 -0.1387
  150SAPE   H3X16643   2.530   4.863  10.375  1.6061 -0.1567  0.0452
  150SAPE   H3Y16644   2.688   4.916  10.367 -0.7444 -1.8936 -0.0585
  150SAPE   C3416645   2.561   5.040  10.247  0.6361  0.2201  0.6939
  150SAPE   H4X16646   2.631   5.126  10.242  0.5775  0.2585  0.5364
  150SAPE   H4Y16647   2.452   5.060  10.240  0.6204  0.0134  0.3057
  150SAPE   C3516648   2.596   4.960  10.117 -0.2992 -0.2880 -0.5268
  150SAPE   H5X16649   2.521   4.886  10.082  0.3762 -2.1279  1.7138
  150SAPE   H5Y16650   2.689   4.903  10.138 -0.7696 -0.9180 -0.1134
  150SAPE   C3616651   2.631   5.058  10.009  0.0272 -0.4735  0.1715
  150SAPE   H6X16652   2.723   5.116  10.033  0.5279 -1.2703  0.2139
  150SAPE   H6Y16653   2.550   5.135  10.010  1.9373  1.6693 -0.9303
  150SAPE   C3716654   2.634   4.988   9.878  0.4425  0.2789 -0.8021
  150SAPE   H7X16655   2.547   4.920   9.866  0.0511  0.4616  0.7842
  150SAPE   H7Y16656   2.720   4.918   9.882 -0.4765 -0.8100  2.1826
  150SAPE   C3816657   2.639   5.087   9.762 -0.3676 -0.2256 -0.3397
  150SAPE   H8X16658   2.737   5.140   9.764 -1.1847  1.4570 -1.8349
  150SAPE   H8Y16659   2.558   5.163   9.759  0.0304  0.1803 -1.1818
  150SAPE   C3916660   2.649   5.020   9.621  0.0293  0.4408  0.2289
  150SAPE   H9X16661   2.551   4.968   9.612  0.5189 -0.8670  1.8811
  150SAPE   H9Y16662   2.733   4.948   9.614  0.0075  0.4155  0.2224
  150SAPE  C31016663   2.668   5.126   9.512 -0.3387 -0.1281  0.0573
  150SAPE  H10X16664   2.773   5.161   9.512  0.6824 -2.8737 -0.3367
  150SAPE  H10Y16665   2.599   5.207   9.542 -0.4116 -1.2867  3.3341
  150SAPE  C31116666   2.646   5.070   9.368 -0.2247 -1.0537 -0.0809
  150SAPE  H11X16667   2.563   4.997   9.379  0.5338 -1.5877  3.1144
  150SAPE  H11Y16668   2.740   5.025   9.328  0.3596 -0.8573  1.0250
  150SAPE  C31216669   2.610   5.184   9.272 -0.6000 -0.9673  0.4417
  150SAPE  H12X16670   2.525   5.246   9.309  0.8517  0.7441  1.0883
  150SAPE  H12Y16671   2.581   5.147   9.171  0.3860 -1.2884  0.2644
  150SAPE  C31316672   2.730   5.278   9.249 -0.3097  0.0579  0.6857
  150SAPE  H13X16673   2.818   5.218   9.219 -1.7826 -1.5584 -0.6938
  150SAPE  H13Y16674   2.756   5.324   9.346 -1.9179  1.0447  0.6799
  150SAPE  C31416675   2.708   5.384   9.140 -0.3573 -0.3190 -1.1940
  150SAPE  H14X16676   2.614   5.436   9.168 -0.7041 -1.6232  0.1907
  150SAPE  H14Y16677   2.714   5.348   9.035  1.4022 -1.5868 -0.7074
  150SAPE  C31516678   2.832   5.479   9.144  0.5426 -0.2728  0.0303
  150SAPE  H15X16679   2.923   5.416   9.149  1.1767  0.6259  0.0562
  150SAPE  H15Y16680   2.833   5.532   9.242  2.7483  0.5371 -0.3698
  150SAPE  C31616681   2.834   5.593   9.035  0.6163  0.4095 -0.2512
  150SAPE  H16X16682   2.906   5.666   9.077  0.6015  0.4129 -0.2329
  150SAPE  H16Y16683   2.731   5.634   9.039  0.7314  0.5860  1.2450
  150SAPE  C31716684   2.874   5.573   8.886  0.1650  0.4913 -0.4708
  150SAPE  H17X16685   2.803   5.510   8.828 -0.2440  2.7402 -2.5561
  150SAPE  H17Y16686   2.975   5.526   8.881 -0.0631  0.1241 -3.1277
  150SAPE  C31816687   2.880   5.709   8.810 -0.0838  0.5114  0.4593
  150SAPE  H18X16688   2.946   5.693   8.722 -1.7633 -2.3308 -0.3805
  150SAPE  H18Y16689   2.925   5.791   8.871 -2.4467  1.2084  1.3733
  150SAPE  H18Z16690   2.784   5.746   8.769  0.7788 -0.0691 -2.3074
  151SAPE     N16691   0.630   1.792  10.780 -0.9014 -0.4527 -0.1791
  151SAPE   HN116692   0.696   1.712  10.773  0.1631 -0.0365  3.2406
  151SAPE   HN216693   0.588   1.805  10.875 -2.9443 -3.5536 -0.4868
  151SAPE   HN316694   0.560   1.762  10.709 -1.0356  1.3616 -0.8667
  151SAPE   C1216695   0.677   1.922  10.716  0.2016  0.7005  0.2891
  151SAPE  H12A16696   0.724   1.900  10.618 -0.6509  1.1944 -0.2428
  151SAPE  H12B16697   0.762   1.977  10.763  0.6014  1.5214 -1.3239
  151SAPE   C1116698   0.560   2.018  10.701  0.6581  0.2004  0.1761
  151SAPE  H11A16699   0.593   2.121  10.675 -2.1206  0.6084 -2.0921
  151SAPE  H11B16700   0.502   2.011  10.795 -2.0280  1.0153 -1.3368
  151SAPE     P16701   0.383   2.045  10.502 -0.1451 -0.0128  0.1682
  151SAPE   O1316702   0.268   2.089  10.574  0.9281  0.0008  0.0043
  151SAPE   O1416703   0.480   2.149  10.442 -0.5234 -0.1128  0.1807
  151SAPE   O1216704   0.478   1.959  10.607  0.2592  0.3935  0.9461
  151SAPE   O1116705   0.343   1.938  10.396  0.1612  0.4798 -0.4228
  151SAPE    C116706   0.290   1.818  10.432  0.2450 -0.5582 -0.4142
  151SAPE    HA16707   0.338   1.771  10.520 -0.2895 -0.4529 -0.0574
  151SAPE    HB16708   0.184   1.823  10.468  1.2577 -1.4414  3.0862
  151SAPE    C216709   0.303   1.718  10.313 -0.1323 -0.3566  0.1018
  151SAPE    HS16710   0.413   1.711  10.300 -0.0224 -2.0203  1.5531
  151SAPE   O2116711   0.236   1.758  10.199  0.5865  0.2476 -0.0369
  151SAPE   C2116712   0.312   1.764  10.092 -1.0026 -0.8040  0.3616
  151SAPE   O2216713   0.436   1.787  10.091  0.3015  0.2593 -0.2949
  151SAPE   C2216714   0.223   1.752   9.971 -1.0965 -0.1048  0.1840
  151SAPE   H2R16715   0.149   1.672   9.989 -1.6850 -0.0686 -1.8374
  151SAPE   H2S16716   0.164   1.847   9.974  0.1606  0.6878  1.7779
  151SAPE    C316717   0.256   1.573  10.341 -0.2671  0.2486 -0.4323
  151SAPE    HX16718   0.149   1.575  10.370  0.1456  1.6950  1.1462
  151SAPE    HY16719   0.313   1.548  10.434  0.0855 -1.6063 -1.0937
  151SAPE   O3116720   0.285   1.483  10.233 -0.0651 -0.5730  0.3874
  151SAPE   C3116721   0.338   1.367  10.268 -0.2476 -0.0226  0.0135
  151SAPE   O3216722   0.354   1.323  10.380 -0.0307  0.3854 -0.1365
  151SAPE   C3216723   0.368   1.281  10.146  0.5179 -0.3343  0.1668
  151SAPE   H2X16724   0.319   1.181  10.148 -2.0005  0.7068 -2.1103
  151SAPE   H2Y16725   0.477   1.283  10.122  0.1203 -1.2551 -1.9642
  151SAPE   C2316726   0.300   1.726   9.836  0.6458 -0.1165  0.3620
  151SAPE   H3R16727   0.320   1.617   9.841 -1.2663 -0.5375 -0.5926
  151SAPE   H3S16728   0.393   1.788   9.830  1.4378 -1.4012 -3.9413
  151SAPE   C2416729   0.212   1.771   9.712 -0.0392  0.9435 -0.4644
  151SAPE   H4R16730   0.266   1.749   9.617  0.7644  0.7515  0.0315
  151SAPE   H4S16731   0.216   1.881   9.704  2.2607  0.9316 -0.2448
  151SAPE   C2516732   0.079   1.706   9.700 -0.1097 -1.5581  0.5960
  151SAPE   H5R16733   0.076   1.605   9.745 -1.0300 -1.1896  1.3835
  151SAPE   C2616734  -0.027   1.759   9.631  1.2872  0.0598 -0.8588
  151SAPE   H6R16735  -0.116   1.695   9.620  1.3435 -0.0890 -0.4650
  151SAPE   C2716736  -0.033   1.890   9.563 -0.2559  0.7716  0.0938
  151SAPE   H7R16737   0.003   1.981   9.616 -2.7806  1.1233  1.3522
  151SAPE   H7S16738  -0.142   1.912   9.552 -0.3055  0.6001  0.2520
  151SAPE   C2816739   0.036   1.877   9.431 -0.0431 -0.4183  0.0994
  151SAPE   H8R16740   0.137   1.920   9.430 -1.1126  2.3008 -1.0428
  151SAPE   C2916741  -0.021   1.836   9.308  1.1943  0.5304 -0.1949
  151SAPE   H9R16742   0.034   1.849   9.213 -0.6371 -1.6404 -1.6687
  151SAPE  C21016743  -0.165   1.793   9.286  0.2701  0.3105  0.0755
  151SAPE  H10R16744  -0.219   1.826   9.377  0.3978  1.7335 -0.3465
  151SAPE  H10S16745  -0.172   1.682   9.281  1.4219  0.2853 -2.3639
  151SAPE  C21116746  -0.235   1.856   9.165 -0.9397  0.3493 -0.4984
  151SAPE  H11R16747  -0.306   1.936   9.190 -3.4176 -1.4229 -1.4747
  151SAPE  C21216748  -0.215   1.816   9.040  0.6184 -0.3744  0.5809
  151SAPE  H12R16749  -0.255   1.879   8.959 -0.6426 -1.6877  0.1394
  151SAPE  C21316750  -0.124   1.704   8.999 -0.8695  0.1648  0.9343
  151SAPE  H13R16751  -0.018   1.712   9.030  0.9012  0.1510 -4.2189
  151SAPE  H13S16752  -0.128   1.701   8.888 -0.8278 -0.7350  0.9498
  151SAPE  C21416753  -0.170   1.568   9.042 -0.1426 -0.0751 -0.1509
  151SAPE  H14R16754  -0.129   1.532   9.137 -0.2925 -0.6103 -0.2857
  151SAPE  C21516755  -0.250   1.481   8.963 -0.1581 -0.2159  0.6348
  151SAPE  H15R16756  -0.282   1.381   8.994 -0.3559 -0.2040  0.4658
  151SAPE  C21616757  -0.299   1.511   8.825  0.2116 -0.0377  0.2513
  151SAPE  H16R16758  -0.248   1.591   8.768  0.8970 -1.0663 -0.6252
  151SAPE  H16S16759  -0.408   1.530   8.831  0.3638  0.5191  1.9434
  151SAPE  C21716760  -0.293   1.392   8.718 -0.1941 -0.7254  0.0678
  151SAPE  H17R16761  -0.360   1.416   8.632  0.7430  0.4402 -0.3737
  151SAPE  H17S16762  -0.336   1.303   8.769 -1.5429  1.0244  2.1986
  151SAPE  C21816763  -0.148   1.368   8.668  0.1349 -0.2516 -0.1509
  151SAPE  H18R16764  -0.078   1.349   8.752 -0.0786  2.3502  0.6811
  151SAPE  H18S16765  -0.117   1.465   8.625 -1.3379  0.7814  1.0297
  151SAPE  C21916766  -0.144   1.245   8.567  0.2524 -0.4918 -0.3369
  151SAPE  H19R16767  -0.220   1.272   8.491 -1.2225  0.0529  1.2723
  151SAPE  H19S16768  -0.190   1.158   8.618 -3.1724  1.0462 -0.5523
  151SAPE  C22016769  -0.014   1.207   8.503 -0.0224 -0.4453 -0.2726
  151SAPE  H20R16770   0.063   1.170   8.574 -1.1376  0.4684  1.4989
  151SAPE  H20S16771   0.029   1.291   8.444  1.2888 -0.7683  0.1910
  151SAPE  H20T16772  -0.038   1.122   8.435  0.4490 -0.3518 -0.5594
  151SAPE   C3316773   0.306   1.343  10.021 -0.0409  0.1211  0.4608
  151SAPE   H3X16774   0.353   1.441  10.000  0.7761 -0.4086 -0.2164
  151SAPE   H3Y16775   0.199   1.365  10.040 -0.0936  1.2749 -1.0411
  151SAPE   C3416776   0.319   1.258   9.893 -0.1631 -0.8823  0.2017
  151SAPE   H4X16777   0.276   1.158   9.917  0.3937 -1.8025 -2.3229
  151SAPE   H4Y16778   0.426   1.240   9.872 -0.0360 -1.0497  0.9598
  151SAPE   C3516779   0.236   1.322   9.778 -0.1042 -0.9711  1.0075
  151SAPE   H5X16780   0.273   1.423   9.750 -0.9273 -1.1161 -0.7137
  151SAPE   H5Y16781   0.133   1.324   9.820  0.4688 -0.0476  2.4493
  151SAPE   C3616782   0.263   1.242   9.649  0.8737 -0.4148  0.7856
  151SAPE   H6X16783   0.223   1.138   9.652 -0.4904  0.0547 -0.1489
  151SAPE   H6Y16784   0.374   1.246   9.634  0.5367  0.2598 -2.2641
  151SAPE   C3716785   0.217   1.310   9.518 -0.2311  0.1553  0.6634
  151SAPE   H7X16786   0.276   1.268   9.434 -0.4176  2.8277 -0.9181
  151SAPE   H7Y16787   0.226   1.420   9.527 -2.0794  0.3386  0.6430
  151SAPE   C3816788   0.070   1.301   9.481 -0.2880 -0.2288 -0.0616
  151SAPE   H8X16789   0.010   1.337   9.567 -1.4042  1.3090 -1.4091
  151SAPE   H8Y16790   0.057   1.193   9.459  1.4131 -0.1567 -1.7172
  151SAPE   C3916791   0.040   1.386   9.355  0.5146 -0.6947 -0.1212
  151SAPE   H9X16792   0.077   1.490   9.361  1.1020 -0.7030 -2.6546
  151SAPE   H9Y16793  -0.070   1.399   9.346  0.8442  0.9185 -2.8953
  151SAPE  C31016794   0.086   1.321   9.222 -0.0018  0.6572 -0.1333
  151SAPE  H10X16795   0.187   1.274   9.232  0.6323  1.8814 -0.6298
  151SAPE  H10Y16796   0.107   1.406   9.154  1.7905  2.6705  2.7330
  151SAPE  C31116797  -0.019   1.238   9.148  0.0490  0.4220  0.3310
  151SAPE  H11X16798  -0.109   1.292   9.111 -0.5169 -1.0369 -0.5227
  151SAPE  H11Y16799  -0.058   1.161   9.218  1.6579 -0.3737  0.3779
  151SAPE  C31216800   0.040   1.172   9.018 -0.5337 -0.2797  0.6358
  151SAPE  H12X16801   0.132   1.111   9.033  0.3717  1.2025  1.5065
  151SAPE  H12Y16802   0.064   1.253   8.945  2.0629 -2.4409 -1.1047
  151SAPE  C31316803  -0.064   1.086   8.955 -0.0952  0.1188  0.7384
  151SAPE  H13X16804  -0.152   1.145   8.921  0.8158  2.6620  2.4494
  151SAPE  H13Y16805  -0.110   1.007   9.018 -0.3905 -0.4153 -0.1336
  151SAPE  C31416806  -0.010   1.008   8.831  0.1414  0.5330  0.1931
  151SAPE  H14X16807   0.079   0.954   8.871  0.9623  1.0662 -0.8505
  151SAPE  H14Y16808   0.023   1.078   8.751  0.5711 -2.4313 -2.4274
  151SAPE  C31516809  -0.109   0.904   8.786 -0.7476  0.0084  0.5341
  151SAPE  H15X16810  -0.194   0.947   8.729 -0.1934  2.4185  1.3984
  151SAPE  H15Y16811  -0.148   0.854   8.877 -1.0815  0.7661  0.8217
  151SAPE  C31616812  -0.049   0.791   8.693  0.7290 -0.3889  0.0808
  151SAPE  H16X16813   0.026   0.736   8.755  1.5335  1.5686  0.9072
  151SAPE  H16Y16814  -0.001   0.836   8.603 -0.5844  0.8716 -0.0058
  151SAPE  C31716815  -0.162   0.690   8.652 -0.9066 -0.1371  0.3207
  151SAPE  H17X16816  -0.236   0.741   8.587 -1.1405 -0.5105  0.2891
  151SAPE  H17Y16817  -0.216   0.657   8.744 -1.5578 -2.0080 -0.6874
  151SAPE  C31816818  -0.101   0.567   8.583 -0.0495  0.2233  0.1158
  151SAPE  H18X16819  -0.172   0.491   8.543 -2.1698  2.4212 -0.5467
  151SAPE  H18Y16820  -0.023   0.526   8.651 -1.6581 -0.7022  1.4802
  151SAPE  H18Z16821  -0.043   0.603   8.495 -1.0015  0.0065 -0.6247
  152SAPE     N16822   1.061   0.497  10.625 -0.1121 -1.0431  0.3836
  152SAPE   HN116823   0.996   0.422  10.657  0.4791 -1.4998  0.5299
  152SAPE   HN216824   1.074   0.564  10.703 -0.5807 -2.7717  2.0163
  152SAPE   HN316825   1.008   0.557  10.558  1.0990 -0.6920 -0.2918
  152SAPE   C1216826   1.190   0.439  10.569 -0.1506 -0.2729 -0.7825
  152SAPE  H12A16827   1.231   0.516  10.500  1.9366 -2.5979 -2.3102
  152SAPE  H12B16828   1.168   0.361  10.494  0.4127 -1.1291 -0.0690
  152SAPE   C1116829   1.300   0.415  10.681  0.3483  0.2070 -0.7166
  152SAPE  H11A16830   1.255   0.351  10.760  2.8106  0.9661  1.4606
  152SAPE  H11B16831   1.321   0.513  10.728 -2.5762  0.5802 -0.0048
  152SAPE     P16832   1.434   0.196  10.609 -0.3756 -0.1980 -0.0019
  152SAPE   O1316833   1.579   0.163  10.621  0.2321 -0.4703 -0.2901
  152SAPE   O1416834   1.328   0.116  10.676 -0.0178  0.3056 -0.4527
  152SAPE   O1216835   1.417   0.347  10.630 -0.1882  0.0055  0.0338
  152SAPE   O1116836   1.406   0.185  10.453 -0.0068  0.0105  0.1973
  152SAPE    C116837   1.471   0.293  10.370  0.1014 -0.1261  0.1670
  152SAPE    HA16838   1.411   0.380  10.337 -0.3362 -0.8963 -1.1595
  152SAPE    HB16839   1.555   0.344  10.422 -1.0357  1.5000  0.4863
  152SAPE    C216840   1.535   0.230  10.245  0.4974 -0.2565 -0.4731
  152SAPE    HS16841   1.563   0.317  10.182 -0.3790  0.0663 -0.4369
  152SAPE   O2116842   1.437   0.152  10.178  0.1311  0.3580  0.1968
  152SAPE   C2116843   1.351   0.232  10.111  0.4906  0.7508  0.2404
  152SAPE   O2216844   1.353   0.353  10.116  0.5450 -0.5437 -0.2902
  152SAPE   C2216845   1.250   0.151  10.035 -0.0149  0.3981  0.1452
  152SAPE   H2R16846   1.312   0.100   9.957 -0.6737  3.0044 -2.2380
  152SAPE   H2S16847   1.211   0.073  10.103 -1.3780  1.2793  0.4110
  152SAPE    C316848   1.652   0.129  10.282  0.1053  0.3011 -0.0456
  152SAPE    HX16849   1.601   0.043  10.333 -0.0786 -0.5077 -1.5488
  152SAPE    HY16850   1.718   0.182  10.353 -0.2693  0.5804  0.0976
  152SAPE   O3116851   1.733   0.073  10.174  0.9936 -0.5697  0.2807
  152SAPE   C3116852   1.860   0.118  10.165  0.1655 -0.4923  0.1640
  152SAPE   O3216853   1.896   0.232  10.201  0.1372  0.3515  0.1732
  152SAPE   C3216854   1.938   0.019  10.079  0.2515 -0.4244 -0.4686
  152SAPE   H2X16855   1.868  -0.062  10.050  0.4922 -1.1597  0.8744
  152SAPE   H2Y16856   2.004  -0.020  10.159 -0.7174  0.9106  1.0505
  152SAPE   C2316857   1.133   0.234   9.976  0.5392  0.1666 -0.4867
  152SAPE   H3R16858   1.155   0.303   9.891 -3.6791  1.4496 -0.7923
  152SAPE   H3S16859   1.095   0.292  10.062  0.7612  0.4169 -0.5561
  152SAPE   C2416860   1.027   0.138   9.919  0.1379 -0.9986 -0.2141
  152SAPE   H4R16861   1.031   0.039   9.971 -2.5040 -0.7354  0.6297
  152SAPE   H4S16862   1.057   0.108   9.816 -0.7876 -1.1450 -0.4499
  152SAPE   C2516863   0.891   0.204   9.924 -0.2576  0.0415  1.0090
  152SAPE   H5R16864   0.845   0.252  10.012  1.9402  3.0353  0.6929
  152SAPE   C2616865   0.820   0.216   9.814 -0.1518 -0.3455  0.2378
  152SAPE   H6R16866   0.723   0.267   9.826  0.8179  1.5076  0.5901
  152SAPE   C2716867   0.852   0.182   9.668  0.6052 -0.1335 -0.7525
  152SAPE   H7R16868   0.955   0.223   9.662  1.6606 -2.5868 -0.4358
  152SAPE   H7S16869   0.784   0.250   9.612 -0.3374  0.0826  0.5968
  152SAPE   C2816870   0.861   0.036   9.628 -0.7674 -0.3098  0.0502
  152SAPE   H8R16871   0.894  -0.029   9.711 -1.1860  1.2019  1.4610
  152SAPE   C2916872   0.835  -0.015   9.505  0.0736  0.8515  0.2341
  152SAPE   H9R16873   0.865  -0.118   9.482 -0.7828  0.6243  0.1227
  152SAPE  C21016874   0.788   0.063   9.388 -0.0951  0.1889  0.1166
  152SAPE  H10R16875   0.876   0.069   9.321  2.6152 -1.6206  3.2014
  152SAPE  H10S16876   0.752   0.163   9.422  0.2950 -0.1041  1.4739
  152SAPE  C21116877   0.666  -0.012   9.333  0.1897 -0.0709  0.1985
  152SAPE  H11R16878   0.612  -0.067   9.411  0.8939  1.1065  1.5619
  152SAPE  C21216879   0.640  -0.022   9.202  0.8358 -0.2744  0.3753
  152SAPE  H12R16880   0.550  -0.075   9.169  0.8718  0.2656 -0.6249
  152SAPE  C21316881   0.708   0.043   9.087 -0.9590 -0.5432 -0.7142
  152SAPE  H13R16882   0.711  -0.029   9.002 -1.0997 -0.2223 -0.9920
  152SAPE  H13S16883   0.813   0.071   9.109 -2.3978  4.3166  1.4563
  152SAPE  C21416884   0.638   0.171   9.045  0.2539 -0.1727  0.5695
  152SAPE  H14R16885   0.636   0.246   9.126  2.2439  1.5580 -0.8707
  152SAPE  C21516886   0.602   0.211   8.915 -0.0555  0.3795 -0.2433
  152SAPE  H15R16887   0.556   0.311   8.918  1.7045  1.2204  0.1004
  152SAPE  C21616888   0.617   0.133   8.789 -0.8895 -0.3051  0.2616
  152SAPE  H16R16889   0.511   0.126   8.757 -0.9641 -2.1716  0.8043
  152SAPE  H16S16890   0.650   0.032   8.820  0.5170  0.2678  0.6998
  152SAPE  C21716891   0.725   0.202   8.708  0.6954  0.4876  0.3761
  152SAPE  H17R16892   0.751   0.143   8.617  0.4498 -0.9858  1.2295
  152SAPE  H17S16893   0.823   0.203   8.760  0.2516 -0.2201  1.2499
  152SAPE  C21816894   0.705   0.347   8.653 -0.4989  0.5831 -0.1874
  152SAPE  H18R16895   0.692   0.426   8.730 -1.7741 -0.2039  0.4418
  152SAPE  H18S16896   0.613   0.347   8.590  0.1455  0.3633 -1.1648
  152SAPE  C21916897   0.823   0.380   8.559 -0.0065  0.1993  0.2250
  152SAPE  H19R16898   0.811   0.325   8.464 -0.6178  3.8345 -2.0168
  152SAPE  H19S16899   0.917   0.346   8.607 -1.4062 -1.6928  1.7639
  152SAPE  C22016900   0.847   0.528   8.539 -0.3458 -0.2491  0.0787
  152SAPE  H20R16901   0.941   0.553   8.485  0.9650 -2.5292  1.1294
  152SAPE  H20S16902   0.851   0.560   8.645  0.8937 -0.9936  0.2846
  152SAPE  H20T16903   0.757   0.576   8.496 -0.1153 -0.6767 -0.9140
  152SAPE   C3316904   2.015   0.079   9.964  0.1275 -0.9243  0.4168
  152SAPE   H3X16905   2.103   0.132  10.006 -0.6258 -0.8682  1.9998
  152SAPE   H3Y16906   1.949   0.147   9.906 -1.3237 -3.1267 -0.6590
  152SAPE   C3416907   2.065  -0.035   9.878 -0.0836  0.0671  0.1529
  152SAPE   H4X16908   1.993  -0.119   9.867  1.5184 -1.1844 -1.3355
  152SAPE   H4Y16909   2.147  -0.091   9.927 -1.2598  0.0926  2.2775
  152SAPE   C3516910   2.114  -0.001   9.733 -0.0502  0.1213 -0.1062
  152SAPE   H5X16911   2.176   0.091   9.724 -1.8514  1.2004 -3.0339
  152SAPE   H5Y16912   2.015   0.013   9.684 -1.4285  0.5865  2.6170
  152SAPE   C3616913   2.205  -0.120   9.675 -0.6251 -0.1462  0.0399
  152SAPE   H6X16914   2.290  -0.139   9.745  0.7556  2.1520 -0.8763
  152SAPE   H6Y16915   2.241  -0.081   9.578 -0.8476 -0.6083 -0.2276
  152SAPE   C3716916   2.119  -0.245   9.661  0.7975 -0.4386  0.0260
  152SAPE   H7X16917   2.032  -0.216   9.598  1.4487  0.8983 -0.2972
  152SAPE   H7Y16918   2.082  -0.279   9.760  2.1415  0.6478  0.9324
  152SAPE   C3816919   2.206  -0.356   9.607 -0.2884  0.3858 -0.0151
  152SAPE   H8X16920   2.158  -0.454   9.624  1.7354 -0.3404  1.9459
  152SAPE   H8Y16921   2.303  -0.357   9.660  0.2169 -1.0929 -0.9096
  152SAPE   C3916922   2.232  -0.339   9.462 -0.0621  0.4792  0.2345
  152SAPE   H9X16923   2.289  -0.430   9.434  1.1872  0.9224  1.1957
  152SAPE   H9Y16924   2.299  -0.256   9.428  0.5626  0.5641  1.6008
  152SAPE  C31016925   2.102  -0.331   9.381 -0.0400  0.4484  0.6022
  152SAPE  H10X16926   2.042  -0.241   9.407  0.2980  0.5595  1.0164
  152SAPE  H10Y16927   2.039  -0.415   9.416  0.7117 -0.5821 -0.4269
  152SAPE  C31116928   2.128  -0.341   9.229  0.1982  0.0718 -0.0244
  152SAPE  H11X16929   2.171  -0.439   9.200 -1.8864  0.0723 -3.8668
  152SAPE  H11Y16930   2.197  -0.256   9.206 -0.7762  1.0990  0.7496
  152SAPE  C31216931   2.006  -0.327   9.138  0.2484  0.2688 -0.0305
  152SAPE  H12X16932   1.951  -0.243   9.186 -0.3184  0.6963 -1.3867
  152SAPE  H12Y16933   1.944  -0.419   9.149  0.6426 -0.0527 -0.4458
  152SAPE  C31316934   2.030  -0.295   8.989 -0.2511 -0.1506 -0.0186
  152SAPE  H13X16935   2.066  -0.190   8.999  0.9795 -0.5951  0.4579
  152SAPE  H13Y16936   1.946  -0.289   8.917  1.0742  0.6732 -1.5690
  152SAPE  C31416937   2.136  -0.379   8.910  0.0686  0.3273  0.0114
  152SAPE  H14X16938   2.233  -0.346   8.952  0.5949  0.8894 -1.5960
  152SAPE  H14Y16939   2.139  -0.343   8.805  0.5018  1.9648  0.5613
  152SAPE  C31516940   2.129  -0.529   8.920  0.2430 -0.1006  0.5108
  152SAPE  H15X16941   2.040  -0.565   8.865  0.9526 -0.6660 -0.2898
  152SAPE  H15Y16942   2.134  -0.562   9.026 -0.1656 -1.0458  0.2522
  152SAPE  C31616943   2.251  -0.599   8.854  0.1756 -1.0565  0.8880
  152SAPE  H16X16944   2.348  -0.554   8.885  1.8242 -4.3788  0.9175
  152SAPE  H16Y16945   2.243  -0.585   8.744  1.5475 -1.8507  0.6752
  152SAPE  C31716946   2.258  -0.751   8.868 -0.6915 -0.9247 -0.2442
  152SAPE  H17X16947   2.258  -0.769   8.978 -0.9651  1.7119  0.2526
  152SAPE  H17Y16948   2.354  -0.792   8.831 -1.7990 -3.2569 -0.7351
  152SAPE  C31816949   2.139  -0.814   8.797 -0.3354  0.2491  0.2470
  152SAPE  H18X16950   2.131  -0.925   8.798 -2.8345  0.3787 -0.3069
  152SAPE  H18Y16951   2.134  -0.778   8.692 -1.6591 -1.2369 -0.2448
  152SAPE  H18Z16952   2.048  -0.783   8.852 -2.0932 -3.1427 -0.4622
  153SAPE     N16953   2.913   2.710  10.886  0.0368 -0.4447 -0.1393
  153SAPE   HN116954   3.014   2.735  10.896 -0.5203  2.7643 -1.5682
  153SAPE   HN216955   2.856   2.795  10.904 -0.4359 -0.3816 -1.7740
  153SAPE   HN316956   2.891   2.640  10.960 -1.7076 -1.0190 -1.1486
  153SAPE   C1216957   2.896   2.641  10.755  0.3027 -0.1075 -0.0136
  153SAPE  H12A16958   2.950   2.698  10.676  0.0803  1.0669  0.6637
  153SAPE  H12B16959   2.786   2.632  10.744  0.2351 -1.0636  1.2612
  153SAPE   C1116960   2.944   2.496  10.764 -0.1280 -0.2538 -0.3621
  153SAPE  H11A16961   2.919   2.437  10.674  1.1097 -0.2468 -0.7254
  153SAPE  H11B16962   2.884   2.451  10.846 -0.0199 -2.0380 -1.2337
  153SAPE     P16963   3.145   2.370  10.853  0.1279 -0.3560  0.2182
  153SAPE   O1316964   3.290   2.365  10.814  0.5542  0.4669  0.4833
  153SAPE   O1416965   3.121   2.370  10.997 -0.4180  0.5938 -0.5282
  153SAPE   O1216966   3.087   2.505  10.795  0.5570 -0.1272  0.5123
  153SAPE   O1116967   3.054   2.262  10.777  0.1223  0.0547  0.0889
  153SAPE    C116968   3.104   2.144  10.723  0.8109  0.2702  0.0627
  153SAPE    HA16969   3.204   2.118  10.764  1.0569  0.6926 -0.2523
  153SAPE    HB16970   3.036   2.063  10.757  0.0940  1.4692  1.5818
  153SAPE    C216971   3.098   2.154  10.568 -0.8882 -0.7354 -0.0353
  153SAPE    HS16972   3.130   2.051  10.539  0.6468 -0.2543 -0.1291
  153SAPE   O2116973   3.192   2.257  10.523 -0.5792  0.1496 -0.0955
  153SAPE   C2116974   3.312   2.214  10.519 -0.3238 -0.2407 -0.1456
  153SAPE   O2216975   3.351   2.098  10.538  0.4760  0.2614  0.2202
  153SAPE   C2216976   3.403   2.329  10.493  0.3904  0.3852 -0.5488
  153SAPE   H2R16977   3.340   2.420  10.483  2.4461  2.1167  1.2876
  153SAPE   H2S16978   3.473   2.332  10.579 -0.5860  0.3103  0.2770
  153SAPE    C316979   2.956   2.175  10.511 -0.2971  0.4262  0.2788
  153SAPE    HX16980   2.936   2.281  10.535  0.2771  0.2298  1.6797
  153SAPE    HY16981   2.888   2.109  10.570  0.7368 -1.9709 -1.0599
  153SAPE   O3116982   2.939   2.157  10.374 -0.0531  0.1155 -0.2098
  153SAPE   C3116983   2.995   2.253  10.296 -0.3728  0.2012  0.1618
  153SAPE   O3216984   3.034   2.362  10.333  0.6736  0.1676 -0.9249
  153SAPE   C3216985   2.982   2.216  10.155 -0.5467 -0.5567 -0.6347
  153SAPE   H2X16986   2.873   2.213  10.132 -1.2485  0.7840  2.1189
  153SAPE   H2Y16987   3.037   2.120  10.146  0.6666  0.0806 -0.2087
  153SAPE   C2316988   3.488   2.305  10.359  0.2031  0.5415 -0.9694
  153SAPE   H3R16989   3.506   2.195  10.357 -0.3142  0.4515 -0.6880
  153SAPE   H3S16990   3.585   2.355  10.376  0.0127  0.3389  0.8848
  153SAPE   C2416991   3.410   2.351  10.233 -1.1419 -0.1775  0.1601
  153SAPE   H4R16992   3.391   2.459  10.250 -0.0187  0.4961 -2.3715
  153SAPE   H4S16993   3.319   2.288  10.223 -1.5308  0.0632  1.9342
  153SAPE   C2516994   3.480   2.326  10.105  0.2627  0.0375  0.1889
  153SAPE   H5R16995   3.503   2.223  10.073 -1.7229 -0.5432  0.5125
  153SAPE   C2616996   3.524   2.427  10.024 -0.2826 -0.4055 -0.6824
  153SAPE   H6R16997   3.576   2.397   9.933 -0.1133  0.4451 -0.8734
  153SAPE   C2716998   3.514   2.571  10.046  0.4017 -0.6710 -0.3260
  153SAPE   H7R16999   3.544   2.595  10.150  0.2157  0.6729 -0.5619
  153SAPE   H7S17000   3.407   2.598  10.035  0.7002  0.0340 -1.8798
  153SAPE   C2817001   3.587   2.658   9.947 -0.3274 -1.0282  0.4681
  153SAPE   H8R17002   3.684   2.694   9.984  1.8083 -2.8380 -2.7561
  153SAPE   C2917003   3.553   2.701   9.823  0.5414 -0.2926  0.0527
  153SAPE   H9R17004   3.620   2.769   9.768  1.6013 -0.8166  0.6532
  153SAPE  C21017005   3.425   2.658   9.744 -0.6880 -0.2069 -0.3225
  153SAPE  H10R17006   3.396   2.749   9.687  4.3370  0.7597 -1.8693
  153SAPE  H10S17007   3.344   2.635   9.817 -0.3923  0.5751  0.2703
  153SAPE  C21117008   3.453   2.534   9.669  0.1114  0.4585 -0.1550
  153SAPE  H11R17009   3.499   2.451   9.724 -0.6710 -0.4906 -0.9108
  153SAPE  C21217010   3.434   2.515   9.538 -0.3523 -0.4333 -0.0574
  153SAPE  H12R17011   3.462   2.422   9.487 -0.5593 -0.9489  0.7503
  153SAPE  C21317012   3.379   2.618   9.441 -0.0403 -0.5759 -1.5605
  153SAPE  H13R17013   3.452   2.702   9.440 -0.1747 -0.4033  0.0832
  153SAPE  H13S17014   3.281   2.651   9.482  0.3932 -0.4794 -0.5758
  153SAPE  C21417015   3.365   2.561   9.303 -0.0223 -0.0076  0.7115
  153SAPE  H14R17016   3.324   2.459   9.305 -0.9460  0.3684  2.0797
  153SAPE  C21517017   3.408   2.624   9.192  0.2705 -0.6856 -0.0404
  153SAPE  H15R17018   3.387   2.584   9.092 -2.4320  1.2007 -0.3457
  153SAPE  C21617019   3.483   2.756   9.182  0.4120  0.2835 -0.6234
  153SAPE  H16R17020   3.466   2.824   9.268 -0.7717 -1.8121  0.8753
  153SAPE  H16S17021   3.451   2.811   9.090  1.5896  0.3710 -1.0059
  153SAPE  C21717022   3.634   2.732   9.147 -0.1395 -0.2927  0.0326
  153SAPE  H17R17023   3.686   2.659   9.213  2.6318  2.4641  1.1170
  153SAPE  H17S17024   3.676   2.829   9.180  0.0167 -0.4113  0.1828
  153SAPE  C21817025   3.665   2.718   8.994  0.0556 -0.3847 -0.5099
  153SAPE  H18R17026   3.619   2.797   8.931  1.7243 -0.1675 -1.5245
  153SAPE  H18S17027   3.619   2.622   8.963 -0.7983  0.2283 -1.1859
  153SAPE  C21917028   3.813   2.720   8.966 -0.3296 -0.1692  0.4151
  153SAPE  H19R17029   3.877   2.668   9.040 -0.4768 -0.7293  0.1485
  153SAPE  H19S17030   3.839   2.827   8.981 -1.4634  0.2652 -0.5300
  153SAPE  C22017031   3.850   2.686   8.818 -0.1741 -0.6299  0.0679
  153SAPE  H20R17032   3.828   2.773   8.752 -0.2667 -0.5584  0.1928
  153SAPE  H20S17033   3.799   2.591   8.790 -0.6930 -0.2249 -0.4013
  153SAPE  H20T17034   3.959   2.672   8.803  0.5222  3.3338  0.5118
  153SAPE   C3317035   3.055   2.321  10.076 -0.2320 -0.1021 -0.3541
  153SAPE   H3X17036   3.160   2.327  10.111 -0.7231 -0.1227  1.2285
  153SAPE   H3Y17037   3.012   2.423  10.084  1.7658  0.7884 -0.3362
  153SAPE   C3417038   3.045   2.286   9.928 -0.1473 -0.0244 -0.0512
  153SAPE   H4X17039   2.948   2.329   9.897 -2.0351 -0.8249  4.0942
  153SAPE   H4Y17040   3.038   2.177   9.905  2.2757 -0.2656  0.0081
  153SAPE   C3517041   3.158   2.349   9.845  0.5427  0.2167 -0.5398
  153SAPE   H5X17042   3.250   2.329   9.904  0.6840  1.6723 -0.2438
  153SAPE   H5Y17043   3.146   2.458   9.861 -3.9476  0.0052 -1.1464
  153SAPE   C3617044   3.171   2.290   9.707 -0.1930 -0.1898 -1.1229
  153SAPE   H6X17045   3.170   2.179   9.716  2.2236 -0.2102 -0.4170
  153SAPE   H6Y17046   3.274   2.317   9.676  0.0346  0.0512 -0.2133
  153SAPE   C3717047   3.072   2.357   9.622 -0.7589 -0.0310  0.2498
  153SAPE   H7X17048   3.075   2.467   9.642 -0.8581 -0.2799  1.7798
  153SAPE   H7Y17049   2.967   2.325   9.634 -1.0422  0.3698 -1.0195
  153SAPE   C3817050   3.113   2.332   9.471 -0.1209 -0.6528 -0.3034
  153SAPE   H8X17051   3.107   2.222   9.456  0.6386 -0.6313 -0.8055
  153SAPE   H8Y17052   3.221   2.348   9.451 -0.0888 -0.7633 -0.2197
  153SAPE   C3917053   3.016   2.398   9.371 -0.5371 -0.0688 -0.1182
  153SAPE   H9X17054   3.032   2.507   9.386  2.7101 -0.5556  0.7628
  153SAPE   H9Y17055   2.910   2.371   9.388 -0.3712  0.2119  1.5268
  153SAPE  C31017056   3.046   2.366   9.229 -0.4228 -0.3425  1.1110
  153SAPE  H10X17057   3.046   2.255   9.220  2.3976 -0.3196 -0.1440
  153SAPE  H10Y17058   3.149   2.402   9.207 -1.1892  0.8918 -0.6431
  153SAPE  C31117059   2.940   2.417   9.132  0.8235 -0.0824 -0.0915
  153SAPE  H11X17060   2.836   2.385   9.156  0.7303 -1.3999 -2.0569
  153SAPE  H11Y17061   2.955   2.368   9.034 -1.4655 -0.9018 -0.1083
  153SAPE  C31217062   2.927   2.573   9.116  0.2774 -0.0577  0.8546
  153SAPE  H12X17063   3.031   2.602   9.092  0.2077 -1.5466 -1.5241
  153SAPE  H12Y17064   2.878   2.632   9.197  0.4040 -0.3272  1.1273
  153SAPE  C31317065   2.843   2.605   8.987 -0.1959  0.2988 -0.4020
  153SAPE  H13X17066   2.742   2.560   9.002  0.1425 -1.5873 -3.0066
  153SAPE  H13Y17067   2.873   2.545   8.898 -2.0678 -1.6072  0.1487
  153SAPE  C31417068   2.850   2.753   8.948  0.3492 -0.4816 -0.3636
  153SAPE  H14X17069   2.958   2.778   8.945 -0.0542  1.6972  0.9558
  153SAPE  H14Y17070   2.809   2.800   9.040 -0.5174 -1.2177 -0.3690
  153SAPE  C31517071   2.786   2.805   8.821  0.2561  0.2968 -0.0614
  153SAPE  H15X17072   2.815   2.740   8.735  1.7495  1.8762 -0.8000
  153SAPE  H15Y17073   2.823   2.907   8.799  1.0739 -0.2013 -1.0684
  153SAPE  C31617074   2.633   2.789   8.811  0.1797  0.1199 -0.0307
  153SAPE  H16X17075   2.581   2.846   8.891  1.9827 -1.1106  2.1202
  153SAPE  H16Y17076   2.615   2.681   8.827  0.1205 -0.2099 -2.0023
  153SAPE  C31717077   2.574   2.836   8.680  0.5900  0.4483 -0.1113
  153SAPE  H17X17078   2.473   2.876   8.704  1.0866  2.6012 -1.3411
  153SAPE  H17Y17079   2.565   2.751   8.609  0.3619 -1.5369  2.1559
  153SAPE  C31817080   2.642   2.962   8.609 -0.3609 -0.4968  0.6085
  153SAPE  H18X17081   2.586   2.997   8.521  3.0836  2.1975 -0.7432
  153SAPE  H18Y17082   2.744   2.921   8.591 -0.6649 -1.9774  1.9765
  153SAPE  H18Z17083   2.649   3.053   8.672 -0.1952 -0.4231  0.4847
  154SAPE     N17084   1.989   0.702  10.550  0.7148  0.3733 -0.4389
  154SAPE   HN117085   2.055   0.776  10.517 -0.3944  1.0552 -1.1799
  154SAPE   HN217086   1.927   0.660  10.478  0.6805 -1.6592  0.7050
  154SAPE   HN317087   1.935   0.753  10.623 -0.0083 -1.1665  0.1359
  154SAPE   C1217088   2.068   0.590  10.616 -0.5686 -0.4266 -0.1425
  154SAPE  H12A17089   2.157   0.572  10.551  0.1473  1.0521  0.3954
  154SAPE  H12B17090   2.001   0.501  10.614 -0.3105 -0.6158 -0.5736
  154SAPE   C1117091   2.118   0.628  10.756  0.2892 -0.0843  0.7966
  154SAPE  H11A17092   2.168   0.538  10.797 -1.8866 -1.5853  0.3468
  154SAPE  H11B17093   2.021   0.643  10.808  0.6534  2.8723  0.8140
  154SAPE     P17094   2.340   0.771  10.817  0.3613  0.3513  0.2631
  154SAPE   O1317095   2.361   0.921  10.836 -0.1592 -0.2034 -0.0444
  154SAPE   O1417096   2.345   0.694  10.943 -0.6305  0.3128 -0.1877
  154SAPE   O1217097   2.198   0.748  10.751 -0.0532  0.0745 -0.4256
  154SAPE   O1117098   2.437   0.709  10.710 -0.5597 -0.0036  0.2485
  154SAPE    C117099   2.546   0.613  10.724  0.0440 -0.2822 -0.1520
  154SAPE    HA17100   2.527   0.536  10.802  1.3964  0.5298  1.0521
  154SAPE    HB17101   2.566   0.564  10.626  0.9432 -1.4665  0.5962
  154SAPE    C217102   2.674   0.684  10.763  0.4965 -0.2191  0.6290
  154SAPE    HS17103   2.651   0.748  10.850 -0.6099  0.9920 -0.5035
  154SAPE   O2117104   2.715   0.756  10.646 -0.7375 -0.3927 -0.1645
  154SAPE   C2117105   2.786   0.855  10.672  0.3803 -0.2360  0.7010
  154SAPE   O2217106   2.817   0.894  10.783 -0.1947 -0.5044 -0.2767
  154SAPE   C2217107   2.834   0.926  10.553 -0.1814 -0.3947  0.7459
  154SAPE   H2R17108   2.936   0.890  10.525  0.2191  0.5115  0.9966
  154SAPE   H2S17109   2.768   0.906  10.466 -0.0602  1.2268  0.2465
  154SAPE    C317110   2.782   0.585  10.821 -0.1496  0.3896  0.5868
  154SAPE    HX17111   2.725   0.532  10.900 -0.9640  0.5422  0.1054
  154SAPE    HY17112   2.864   0.654  10.850 -1.0734  1.5763  0.4518
  154SAPE   O3117113   2.823   0.485  10.721 -0.4652  0.1608  0.2834
  154SAPE   C3117114   2.910   0.390  10.767  0.3707 -0.6229 -0.1897
  154SAPE   O3217115   2.976   0.413  10.865 -0.1213 -0.1528  0.0402
  154SAPE   C3217116   2.925   0.272  10.664 -0.0368 -0.7122 -0.3892
  154SAPE   H2X17117   2.841   0.202  10.684 -0.2801 -0.8329 -1.7612
  154SAPE   H2Y17118   3.028   0.231  10.674 -0.4819 -1.3642  2.1406
  154SAPE   C2317119   2.852   1.077  10.577  0.3416 -0.9056 -1.0845
  154SAPE   H3R17120   2.935   1.104  10.645  0.4881  3.0088 -2.5388
  154SAPE   H3S17121   2.763   1.128  10.621  2.1184  0.8125  0.7210
  154SAPE   C2417122   2.891   1.143  10.442  0.4026 -0.1120  0.0440
  154SAPE   H4R17123   2.855   1.248  10.448  1.4561  0.2029  1.3440
  154SAPE   H4S17124   2.825   1.096  10.366 -0.1420  0.3633  0.2101
  154SAPE   C2517125   3.044   1.138  10.419  0.6783  0.5200  0.9423
  154SAPE   H5R17126   3.106   1.186  10.496 -0.1002 -0.3822  2.1695
  154SAPE   C2617127   3.096   1.070  10.314  0.9236 -0.1993 -0.3838
  154SAPE   H6R17128   3.205   1.069  10.299  0.7916 -0.9252 -1.4682
  154SAPE   C2717129   3.027   0.990  10.210 -0.0896  0.3241  0.6129
  154SAPE   H7R17130   2.936   1.042  10.173 -0.1704 -1.3435 -1.7524
  154SAPE   H7S17131   2.988   0.901  10.263 -0.1824  0.3899  0.6549
  154SAPE   C2817132   3.124   0.932  10.102 -0.3225  0.7760 -0.3922
  154SAPE   H8R17133   3.143   0.824  10.113 -1.2305  0.6144 -0.3697
  154SAPE   C2917134   3.167   0.992   9.994 -0.4052  0.4487  0.6588
  154SAPE   H9R17135   3.218   0.928   9.921  0.8984  0.8859  1.1630
  154SAPE  C21017136   3.134   1.137   9.959  0.5097  0.3893 -0.3364
  154SAPE  H10R17137   3.095   1.184  10.052  2.4798  1.7387 -0.1173
  154SAPE  H10S17138   3.069   1.147   9.869  0.6636 -2.0684 -0.7806
  154SAPE  C21117139   3.270   1.190   9.929  0.8279 -0.3022  0.2258
  154SAPE  H11R17140   3.338   1.179  10.015  2.6395  2.6301 -0.6945
  154SAPE  C21217141   3.313   1.269   9.828  0.0756 -0.2663  0.2566
  154SAPE  H12R17142   3.422   1.279   9.820 -0.0141 -0.3398 -1.1725
  154SAPE  C21317143   3.222   1.311   9.713  0.0468  0.2214  0.9573
  154SAPE  H13R17144   3.250   1.414   9.684  1.0235 -0.2771  0.0894
  154SAPE  H13S17145   3.116   1.315   9.746  0.3755 -1.0723  2.3137
  154SAPE  C21417146   3.230   1.207   9.602  0.3391  0.5357 -0.8791
  154SAPE  H14R17147   3.238   1.100   9.626 -1.3358  0.9377  1.8925
  154SAPE  C21517148   3.221   1.245   9.475  0.8654  0.8631  0.1604
  154SAPE  H15R17149   3.230   1.167   9.397  0.7361  0.4520  0.5517
  154SAPE  C21617150   3.186   1.378   9.415  0.1150 -0.2060 -0.1769
  154SAPE  H16R17151   3.274   1.444   9.409  0.1471 -0.2419 -0.1038
  154SAPE  H16S17152   3.106   1.419   9.481  0.5980 -0.5268  0.6338
  154SAPE  C21717153   3.124   1.380   9.277 -0.6343 -0.0478 -0.5547
  154SAPE  H17R17154   3.120   1.488   9.252  2.0242  0.3523  0.4771
  154SAPE  H17S17155   3.028   1.324   9.283 -1.4191  1.2181 -0.6940
  154SAPE  C21817156   3.201   1.322   9.158  0.8473  0.0025 -0.5514
  154SAPE  H18R17157   3.264   1.236   9.188  0.1445 -1.1619 -2.2070
  154SAPE  H18S17158   3.271   1.400   9.121  0.6097 -0.5344 -2.2156
  154SAPE  C21917159   3.107   1.284   9.049 -0.2445 -0.3534  0.4535
  154SAPE  H19R17160   3.059   1.381   9.024  0.7779  1.0752  3.4213
  154SAPE  H19S17161   3.033   1.207   9.081 -0.3481 -0.3233  0.2861
  154SAPE  C22017162   3.182   1.235   8.924  0.5715 -0.3083 -0.8753
  154SAPE  H20R17163   3.120   1.227   8.832  0.8886 -0.8109 -1.0525
  154SAPE  H20S17164   3.244   1.144   8.943  0.7761  0.1310  0.6766
  154SAPE  H20T17165   3.264   1.308   8.904  0.5309  0.0209  0.1116
  154SAPE   C3317166   2.910   0.316  10.516 -0.3689 -0.2005 -0.0852
  154SAPE   H3X17167   2.993   0.390  10.511 -0.8919  0.3481 -1.0053
  154SAPE   H3Y17168   2.815   0.361  10.481 -1.4091 -1.5938  0.8202
  154SAPE   C3417169   2.938   0.199  10.423 -0.0754 -0.0526  0.4920
  154SAPE   H4X17170   2.858   0.123  10.416 -1.6413  1.5619  0.0057
  154SAPE   H4Y17171   3.032   0.142  10.442  0.3056 -0.2861 -1.8115
  154SAPE   C3517172   2.947   0.253  10.278  0.6257  0.8499 -0.8891
  154SAPE   H5X17173   3.016   0.339  10.275 -0.6660  1.9358 -0.3058
  154SAPE   H5Y17174   2.852   0.310  10.266  1.4345  2.1046 -1.5036
  154SAPE   C3617175   2.971   0.157  10.162 -0.5202  0.1086  0.5329
  154SAPE   H6X17176   2.891   0.080  10.177 -0.1869  0.1650  2.9803
  154SAPE   H6Y17177   3.070   0.114  10.188  0.1484  0.2275 -1.6236
  154SAPE   C3717178   2.968   0.228  10.032 -0.2962  0.0635 -0.4790
  154SAPE   H7X17179   3.047   0.306  10.025  1.8621 -1.7306  2.0324
  154SAPE   H7Y17180   2.877   0.293  10.038  0.2156  0.6262  2.4744
  154SAPE   C3817181   2.981   0.150   9.903 -0.5932 -0.3623  0.9236
  154SAPE   H8X17182   2.927   0.054   9.915 -1.6143  0.1422  0.5527
  154SAPE   H8Y17183   3.090   0.128   9.904 -0.0415  2.0380  2.6001
  154SAPE   C3917184   2.919   0.231   9.782  0.1584  0.2134 -0.9486
  154SAPE   H9X17185   2.983   0.318   9.757  1.9411 -0.4009  1.1860
  154SAPE   H9Y17186   2.818   0.258   9.818 -0.5004 -2.3460 -0.7238
  154SAPE  C31017187   2.915   0.134   9.663  0.2804  0.1176  0.3097
  154SAPE  H10X17188   2.837   0.058   9.685 -1.6996  1.9444 -0.0447
  154SAPE  H10Y17189   3.015   0.087   9.658 -0.0579 -0.9898  2.6173
  154SAPE  C31117190   2.868   0.204   9.539  0.7508  0.3317  0.1171
  154SAPE  H11X17191   2.916   0.304   9.541 -0.3846  0.8756  1.8190
  154SAPE  H11Y17192   2.758   0.209   9.536  0.5405 -1.0645  2.6491
  154SAPE  C31217193   2.904   0.124   9.409 -0.0405 -0.9641  1.0311
  154SAPE  H12X17194   2.844   0.032   9.391 -2.8793  0.6506  1.4943
  154SAPE  H12Y17195   3.004   0.078   9.424  0.2448 -0.9704 -0.6760
  154SAPE  C31317196   2.892   0.218   9.286 -0.5142 -0.4253 -0.0527
  154SAPE  H13X17197   2.966   0.301   9.280 -2.0483  1.0265  0.5505
  154SAPE  H13Y17198   2.788   0.255   9.288 -0.7483 -1.0670  2.0419
  154SAPE  C31417199   2.913   0.137   9.148  0.7351 -0.0759 -0.0250
  154SAPE  H14X17200   2.842   0.052   9.138  0.0854  0.6499 -1.8804
  154SAPE  H14Y17201   3.015   0.093   9.152  0.1243 -1.8654 -2.1528
  154SAPE  C31517202   2.904   0.226   9.019  0.8182  0.1040 -0.5919
  154SAPE  H15X17203   2.955   0.319   9.052 -2.0920  0.8150  2.4467
  154SAPE  H15Y17204   2.801   0.262   8.996 -0.4784 -3.9398 -1.9854
  154SAPE  C31617205   2.955   0.144   8.899  0.2081 -0.2043  0.0311
  154SAPE  H16X17206   2.877   0.068   8.877  0.3896  0.5571 -4.0696
  154SAPE  H16Y17207   3.049   0.086   8.911 -0.6314 -1.7306 -0.4576
  154SAPE  C31717208   2.965   0.238   8.771 -0.5212 -0.2321  0.3684
  154SAPE  H17X17209   3.023   0.327   8.806 -1.4080 -0.3059  2.1224
  154SAPE  H17Y17210   2.860   0.263   8.745 -0.3471 -0.2829 -0.4089
  154SAPE  C31817211   3.049   0.178   8.653  0.2639  0.0281 -0.3092
  154SAPE  H18X17212   3.132   0.124   8.704 -0.8893 -0.3063  1.2732
  154SAPE  H18Y17213   3.096   0.258   8.591  1.7660  0.4106  1.2392
  154SAPE  H18Z17214   2.989   0.108   8.592 -2.7110  0.1834  2.1696
  155SAPE     N17215   3.510   1.501  10.632  0.3587 -0.0157  0.0572
  155SAPE   HN117216   3.434   1.481  10.565 -1.5604  2.4148  1.3394
  155SAPE   HN217217   3.514   1.605  10.641 -2.3230  0.1038  0.4876
  155SAPE   HN317218   3.600   1.474  10.587 -0.1147  0.0893 -0.9928
  155SAPE   C1217219   3.492   1.434  10.764 -0.7928 -0.1928 -0.5651
  155SAPE  H12A17220   3.485   1.327  10.735  0.4395  0.1039 -2.1372
  155SAPE  H12B17221   3.401   1.476  10.812 -0.3067  0.2335  0.0018
  155SAPE   C1117222   3.620   1.449  10.857 -0.5583 -0.0190 -0.0909
  155SAPE  H11A17223   3.707   1.393  10.817 -0.9879 -0.6592 -0.1348
  155SAPE  H11B17224   3.595   1.404  10.955 -2.3232  0.7509 -0.1323
  155SAPE     P17225   3.780   1.600  10.985  0.2865 -0.1264 -0.1229
  155SAPE   O1317226   3.746   1.718  11.072 -0.2541 -0.9702  1.1194
  155SAPE   O1417227   3.810   1.474  11.061  0.4938 -0.0195  0.5395
  155SAPE   O1217228   3.656   1.583  10.888 -0.0895 -0.1002 -0.1923
  155SAPE   O1117229   3.897   1.636  10.882  0.3861  0.3134 -0.1254
  155SAPE    C117230   3.881   1.733  10.786 -0.0227 -0.2185  0.3263
  155SAPE    HA17231   3.807   1.810  10.814 -0.2621 -0.3268 -0.0031
  155SAPE    HB17232   3.982   1.780  10.778  1.6379 -3.6942 -1.7377
  155SAPE    C217233   3.841   1.698  10.643  0.7106  0.8838 -0.2004
  155SAPE    HS17234   3.735   1.663  10.644  0.5394  1.4184  1.2904
  155SAPE   O2117235   3.931   1.590  10.602 -0.0659 -0.4988 -0.1068
  155SAPE   C2117236   3.870   1.489  10.540  0.1523 -0.2029  0.1079
  155SAPE   O2217237   3.748   1.470  10.546  0.3616  0.5573  0.8206
  155SAPE   C2217238   3.970   1.397  10.470 -0.1218 -0.4001 -0.0941
  155SAPE   H2R17239   4.074   1.433  10.487  0.1022 -1.7371  1.6674
  155SAPE   H2S17240   3.954   1.298  10.518 -1.0022 -1.8059 -3.0476
  155SAPE    C317241   3.858   1.819  10.541 -0.2235  0.2828  0.0844
  155SAPE    HX17242   3.965   1.847  10.546 -0.2527  0.2412  1.1430
  155SAPE    HY17243   3.793   1.900  10.581 -0.5898 -0.6596  1.4580
  155SAPE   O3117244   3.824   1.782  10.406 -0.3540  0.0238 -0.5095
  155SAPE   C3117245   3.722   1.845  10.353  0.2146 -0.2703  0.4640
  155SAPE   O3217246   3.641   1.920  10.412 -0.6045 -0.2359 -0.2864
  155SAPE   C3217247   3.723   1.830  10.198  0.1139  0.7769  0.3778
  155SAPE   H2X17248   3.650   1.749  10.177  0.4417  0.1294  1.6274
  155SAPE   H2Y17249   3.822   1.793  10.163 -1.1387 -1.3176 -1.2308
  155SAPE   C2317250   3.915   1.382  10.329 -0.6377 -0.5023  0.6826
  155SAPE   H3R17251   3.808   1.352  10.336 -0.7966 -0.1492 -0.1073
  155SAPE   H3S17252   3.976   1.304  10.278 -0.2884  0.5485 -0.5543
  155SAPE   C2417253   3.925   1.516  10.243 -0.1253 -1.1752 -0.0638
  155SAPE   H4R17254   3.829   1.565  10.269 -1.3028 -3.2082 -0.3241
  155SAPE   H4S17255   3.917   1.492  10.134  1.3693  1.4470 -0.8384
  155SAPE   C2517256   4.044   1.605  10.269 -0.3733 -0.3099 -0.4601
  155SAPE   H5R17257   4.072   1.631  10.372  0.2391 -0.3528 -0.6117
  155SAPE   C2617258   4.134   1.630  10.174  0.1582  0.4611  0.2036
  155SAPE   H6R17259   4.226   1.683  10.203  0.6509 -1.2270  1.9122
  155SAPE   C2717260   4.132   1.584  10.031 -0.5335  0.9831 -0.0562
  155SAPE   H7R17261   4.203   1.650   9.976  1.1727  0.3033  1.2314
  155SAPE   H7S17262   4.030   1.597   9.988 -1.1888  0.8077  1.3733
  155SAPE   C2817263   4.186   1.442   9.998  0.0709 -0.2439 -0.1741
  155SAPE   H8R17264   4.249   1.395  10.075 -1.3188 -1.2393  0.3976
  155SAPE   C2917265   4.162   1.357   9.900 -0.8912 -0.0227 -0.4880
  155SAPE   H9R17266   4.224   1.267   9.897  1.4163  1.4957 -1.4160
  155SAPE  C21017267   4.067   1.382   9.788  0.5954  0.1789  0.1968
  155SAPE  H10R17268   4.121   1.417   9.698  0.0175 -1.2088 -0.7234
  155SAPE  H10S17269   3.992   1.461   9.804 -0.3213 -0.6557  0.1046
  155SAPE  C21117270   3.989   1.253   9.746 -0.7277 -0.7884 -0.6843
  155SAPE  H11R17271   3.907   1.228   9.815  0.6765 -0.9234  0.9794
  155SAPE  C21217272   4.019   1.177   9.644 -0.3674  0.1956 -0.1359
  155SAPE  H12R17273   3.946   1.097   9.623 -1.2438  1.1650 -0.8158
  155SAPE  C21317274   4.131   1.196   9.541  0.2919  0.8573 -0.3503
  155SAPE  H13R17275   4.207   1.116   9.553 -0.0350  0.5596 -0.2504
  155SAPE  H13S17276   4.187   1.290   9.559 -1.2312  2.1123 -1.8507
  155SAPE  C21417277   4.092   1.188   9.400  0.0446 -0.6221  0.3090
  155SAPE  H14R17278   4.075   1.083   9.372 -0.1617 -0.8809  1.3892
  155SAPE  C21517279   4.069   1.285   9.304 -0.2980  0.3475  0.3122
  155SAPE  H15R17280   4.061   1.250   9.200 -0.1698 -1.0495  0.7461
  155SAPE  C21617281   4.074   1.434   9.334  0.0979  0.1273  0.1902
  155SAPE  H16R17282   4.069   1.450   9.443 -1.2590  1.8203 -0.0789
  155SAPE  H16S17283   3.978   1.481   9.302  0.0172 -0.5179 -0.5552
  155SAPE  C21717284   4.179   1.508   9.254 -0.2895 -0.4281  0.0590
  155SAPE  H17R17285   4.162   1.618   9.245  0.1761 -0.1467  2.2562
  155SAPE  H17S17286   4.170   1.466   9.151  1.0508 -0.0331 -0.2308
  155SAPE  C21817287   4.320   1.478   9.301  0.1773 -0.4676  0.0512
  155SAPE  H18R17288   4.343   1.369   9.293  1.4215 -0.1268 -1.8190
  155SAPE  H18S17289   4.316   1.499   9.410 -1.6240  1.2179 -0.2895
  155SAPE  C21917290   4.432   1.553   9.232  0.0310  0.8184 -0.0470
  155SAPE  H19R17291   4.421   1.662   9.247 -0.4534  0.6110  1.2731
  155SAPE  H19S17292   4.421   1.525   9.125  2.1680  2.7003 -0.8451
  155SAPE  C22017293   4.573   1.511   9.271  0.2713 -0.2520  0.5096
  155SAPE  H20R17294   4.584   1.409   9.228 -1.8646 -0.0173 -0.7559
  155SAPE  H20S17295   4.587   1.495   9.380 -2.5400 -0.5995  0.8861
  155SAPE  H20T17296   4.640   1.590   9.229 -2.0625  1.1838 -0.7920
  155SAPE   C3317297   3.665   1.950  10.121 -0.7419 -0.8363  0.1774
  155SAPE   H3X17298   3.714   2.049  10.139 -0.9953 -0.3753 -1.4723
  155SAPE   H3Y17299   3.558   1.957  10.151 -1.6725 -0.3395 -2.9613
  155SAPE   C3417300   3.662   1.934   9.972 -0.4881 -0.7443  0.5877
  155SAPE   H4X17301   3.601   1.843   9.951 -2.6896  0.4266  1.6825
  155SAPE   H4Y17302   3.765   1.902   9.942 -0.9183 -0.4261 -1.3654
  155SAPE   C3517303   3.617   2.053   9.878  0.5153 -0.5758  0.3544
  155SAPE   H5X17304   3.695   2.132   9.876  1.6704 -1.6233  1.6057
  155SAPE   H5Y17305   3.517   2.085   9.914  0.2660 -0.6964 -0.2210
  155SAPE   C3617306   3.604   2.009   9.731 -0.4340  0.9026  0.2962
  155SAPE   H6X17307   3.531   1.926   9.729  1.0766 -0.4721  0.0725
  155SAPE   H6Y17308   3.700   1.958   9.707 -0.4241  1.4813 -0.9922
  155SAPE   C3717309   3.566   2.121   9.629  0.1581 -0.1083 -0.3800
  155SAPE   H7X17310   3.625   2.212   9.649  0.3224 -0.5701  1.5119
  155SAPE   H7Y17311   3.456   2.140   9.637 -0.2470 -2.5847  1.5735
  155SAPE   C3817312   3.586   2.068   9.483  0.1311  0.1528  0.4279
  155SAPE   H8X17313   3.528   1.975   9.463 -0.3777  0.6710 -0.5888
  155SAPE   H8Y17314   3.693   2.041   9.480 -0.4074 -2.0715 -0.6933
  155SAPE   C3917315   3.556   2.177   9.380  0.2638  0.9047  1.1068
  155SAPE   H9X17316   3.631   2.256   9.402  0.2700  1.3997 -0.5880
  155SAPE   H9Y17317   3.456   2.222   9.392 -1.3803 -1.8932 -0.9882
  155SAPE  C31017318   3.570   2.132   9.233 -0.0565  0.5142  0.0723
  155SAPE  H10X17319   3.483   2.064   9.223  0.7468 -0.4429 -0.5288
  155SAPE  H10Y17320   3.660   2.067   9.238 -1.0050 -0.7687  1.1653
  155SAPE  C31117321   3.576   2.234   9.116 -0.8095  0.1764 -0.4061
  155SAPE  H11X17322   3.651   2.313   9.138  0.7324 -0.9776 -1.2960
  155SAPE  H11Y17323   3.471   2.267   9.104 -0.4498  2.4993  2.0347
  155SAPE  C31217324   3.633   2.171   8.989  0.7326  0.8355 -0.2551
  155SAPE  H12X17325   3.576   2.082   8.953  1.3578  0.5661 -0.6079
  155SAPE  H12Y17326   3.730   2.133   9.027  0.2650  1.1729  1.3437
  155SAPE  C31317327   3.655   2.268   8.869  0.6480 -0.2139  0.3816
  155SAPE  H13X17328   3.727   2.230   8.792 -0.7593 -0.1411 -1.0101
  155SAPE  H13Y17329   3.674   2.370   8.908  0.0263  0.5293 -1.1576
  155SAPE  C31417330   3.521   2.294   8.789 -0.5505  0.2923  0.0218
  155SAPE  H14X17331   3.441   2.304   8.866 -0.4660  1.8626 -0.0500
  155SAPE  H14Y17332   3.491   2.214   8.718  2.3013 -0.1756 -0.7506
  155SAPE  C31517333   3.526   2.421   8.706  0.7188  0.3149 -0.3363
  155SAPE  H15X17334   3.543   2.509   8.771  0.3891  0.1893 -0.0762
  155SAPE  H15Y17335   3.424   2.447   8.669  1.5895  2.6653 -1.2726
  155SAPE  C31617336   3.628   2.421   8.595 -0.0002 -0.7165 -0.0957
  155SAPE  H16X17337   3.620   2.324   8.542 -2.3124 -1.1589  0.9495
  155SAPE  H16Y17338   3.728   2.421   8.645 -1.2707 -0.4921  2.6134
  155SAPE  C31717339   3.632   2.545   8.495  0.4905 -0.0065 -0.3048
  155SAPE  H17X17340   3.639   2.640   8.551  1.6165 -0.1054 -0.2630
  155SAPE  H17Y17341   3.538   2.539   8.436 -0.3258  1.8441  0.7271
  155SAPE  C31817342   3.749   2.529   8.399 -0.5135 -0.9111 -0.3774
  155SAPE  H18X17343   3.757   2.622   8.339 -0.0473  0.0374  1.1036
  155SAPE  H18Y17344   3.734   2.445   8.328 -4.4017  0.3278 -1.2641
  155SAPE  H18Z17345   3.845   2.532   8.454 -1.3492  3.0849  1.1805
  156SAPE     N17346   0.392   0.205  10.721 -0.5707 -0.2486  0.1913
  156SAPE   HN117347   0.289   0.194  10.719 -0.6659  0.5987 -0.1271
  156SAPE   HN217348   0.422   0.192  10.820  0.9540 -2.0960 -0.4635
  156SAPE   HN317349   0.428   0.302  10.708  1.1311 -0.9527 -0.7582
  156SAPE   C1217350   0.450   0.100  10.636  0.0980  0.0670 -0.2443
  156SAPE  H12A17351   0.385   0.071  10.552  0.4025 -2.8320  0.4125
  156SAPE  H12B17352   0.459   0.012  10.704  0.9265  0.1094 -0.2903
  156SAPE   C1117353   0.592   0.139  10.583 -0.0543  0.0032  0.7528
  156SAPE  H11A17354   0.585   0.229  10.519  1.3857 -0.8478 -0.6933
  156SAPE  H11B17355   0.643   0.051  10.538  1.9399 -0.7313  4.1259
  156SAPE     P17356   0.831   0.171  10.689 -0.1427  0.1995  0.4730
  156SAPE   O1317357   0.862   0.301  10.632  0.1797 -0.2627  0.2603
  156SAPE   O1417358   0.882   0.152  10.824 -0.6268 -0.1690  1.0583
  156SAPE   O1217359   0.674   0.172  10.695 -0.9230  0.1743 -0.1293
  156SAPE   O1117360   0.870   0.049  10.589 -0.2970 -0.3743 -0.1412
  156SAPE    C117361   0.970   0.072  10.478 -0.2443 -0.2828  0.1318
  156SAPE    HA17362   1.033   0.162  10.492 -0.5089 -0.4468  2.9442
  156SAPE    HB17363   1.041  -0.014  10.478 -1.0133 -0.9323  0.4135
  156SAPE    C217364   0.913   0.069  10.338  0.7624  0.2467  0.1548
  156SAPE    HS17365   0.998   0.092  10.270  0.8142 -3.4484 -1.2637
  156SAPE   O2117366   0.810   0.161  10.326  0.0792  0.1239 -0.1948
  156SAPE   C2117367   0.835   0.292  10.334 -0.6269 -0.0005  0.3321
  156SAPE   O2217368   0.947   0.348  10.338 -0.2959 -0.0628 -0.3096
  156SAPE   C2217369   0.708   0.365  10.306  0.0425  0.0006 -0.2475
  156SAPE   H2R17370   0.637   0.295  10.255  0.4758  0.1437 -1.0713
  156SAPE   H2S17371   0.666   0.405  10.401 -0.8491 -0.1096 -0.5795
  156SAPE    C317372   0.848  -0.070  10.309 -0.1248 -0.5973 -0.1285
  156SAPE    HX17373   0.758  -0.067  10.374 -0.3604  1.5333 -0.4954
  156SAPE    HY17374   0.931  -0.126  10.358  3.1387  3.4388 -0.4533
  156SAPE   O3117375   0.834  -0.099  10.165  0.5711  0.2461 -0.0488
  156SAPE   C3117376   0.780  -0.222  10.156  0.3039 -0.7249  0.1116
  156SAPE   O3217377   0.737  -0.282  10.256  0.2564 -0.0981  0.1037
  156SAPE   C3217378   0.762  -0.267  10.013 -0.8361  0.6225 -0.0544
  156SAPE   H2X17379   0.856  -0.262   9.955 -0.9193  0.5220 -0.1972
  156SAPE   H2Y17380   0.687  -0.203   9.963 -1.0419 -0.1225 -0.7198
  156SAPE   C2317381   0.741   0.480  10.207 -0.9564  0.1009  0.1325
  156SAPE   H3R17382   0.788   0.444  10.113 -0.3462 -1.1429  0.8975
  156SAPE   H3S17383   0.804   0.546  10.270 -1.4547  0.3239  0.4008
  156SAPE   C2417384   0.617   0.556  10.161  0.8185 -0.3452 -0.7173
  156SAPE   H4R17385   0.660   0.638  10.100 -0.5158  0.5367 -0.5092
  156SAPE   H4S17386   0.572   0.602  10.251 -0.1019  0.1992 -1.4408
  156SAPE   C2517387   0.519   0.471  10.086 -0.8398  0.6868 -0.5962
  156SAPE   H5R17388   0.486   0.385  10.146  2.1319 -0.1122  0.0676
  156SAPE   C2617389   0.500   0.476   9.954  0.3757  0.0614 -0.1660
  156SAPE   H6R17390   0.416   0.417   9.913 -1.9430  2.2054  1.2343
  156SAPE   C2717391   0.573   0.566   9.860 -0.0036 -0.9850 -0.3929
  156SAPE   H7R17392   0.630   0.498   9.793 -0.1174  0.7716 -2.3501
  156SAPE   H7S17393   0.640   0.638   9.912 -0.0835  1.1836 -3.1257
  156SAPE   C2817394   0.478   0.654   9.784  0.0766  0.3568 -0.2891
  156SAPE   H8R17395   0.466   0.748   9.841 -0.9561  0.5312 -0.7768
  156SAPE   C2917396   0.410   0.628   9.675  1.3458  0.0000  0.0804
  156SAPE   H9R17397   0.351   0.714   9.639 -3.3301 -1.7449  2.7511
  156SAPE  C21017398   0.410   0.495   9.599 -0.7009  0.7271 -0.1934
  156SAPE  H10R17399   0.370   0.416   9.666  1.6819 -0.9838 -0.6884
  156SAPE  H10S17400   0.513   0.464   9.574 -1.5596 -2.3195 -0.3839
  156SAPE  C21117401   0.333   0.474   9.470  0.0084 -0.1438  0.4616
  156SAPE  H11R17402   0.294   0.571   9.435  0.6355  0.4966  1.4653
  156SAPE  C21217403   0.334   0.364   9.393 -0.1803  0.6705 -0.4645
  156SAPE  H12R17404   0.278   0.376   9.299 -2.0549  0.5369  0.5858
  156SAPE  C21317405   0.403   0.235   9.422  0.0574  0.1415  0.2114
  156SAPE  H13R17406   0.468   0.237   9.513  0.7324 -0.6083 -0.2407
  156SAPE  H13S17407   0.478   0.207   9.344 -1.0201  0.7379 -1.0683
  156SAPE  C21417408   0.312   0.113   9.438 -0.1652  0.7683  0.7256
  156SAPE  H14R17409   0.288   0.077   9.539 -1.6639  1.5654  0.6884
  156SAPE  C21517410   0.251   0.043   9.338  0.4189 -0.2190  0.0096
  156SAPE  H15R17411   0.192  -0.048   9.353  0.4361 -0.0553  1.2091
  156SAPE  C21617412   0.262   0.079   9.189  0.8316  0.0103  0.5239
  156SAPE  H16R17413   0.332   0.016   9.130  1.1624  1.7454 -1.0144
  156SAPE  H16S17414   0.285   0.183   9.159 -0.1510 -0.4516 -2.1270
  156SAPE  C21717415   0.130   0.041   9.119  0.3386 -0.3412 -0.1045
  156SAPE  H17R17416   0.044   0.104   9.150  0.8355 -0.8266  2.5868
  156SAPE  H17S17417   0.106  -0.064   9.148 -0.1191 -0.4655 -0.9145
  156SAPE  C21817418   0.130   0.053   8.967 -0.0892 -0.3983  0.6471
  156SAPE  H18R17419   0.220   0.003   8.926  1.4366  2.6823 -0.0975
  156SAPE  H18S17420   0.140   0.158   8.931  0.4677  0.5805  3.3675
  156SAPE  C21917421   0.003  -0.003   8.901  0.5765  0.2421  0.6397
  156SAPE  H19R17422  -0.087   0.054   8.931 -0.0677 -1.4462  2.1151
  156SAPE  H19S17423  -0.009  -0.108   8.936 -1.1154 -0.0133 -0.5942
  156SAPE  C22017424   0.005  -0.007   8.749  0.2253  0.1121 -0.5944
  156SAPE  H20R17425  -0.071  -0.076   8.707  0.6983  0.6945 -2.5495
  156SAPE  H20S17426   0.105  -0.040   8.714  0.3775 -0.7073  0.5791
  156SAPE  H20T17427  -0.006   0.095   8.706  2.0359  0.7352  0.3214
  156SAPE   C3317428   0.704  -0.410   9.996  0.0380 -0.0314 -0.3781
  156SAPE   H3X17429   0.608  -0.417  10.052 -0.8566  1.0066 -1.7277
  156SAPE   H3Y17430   0.766  -0.491  10.039 -0.4089  0.1401  0.6311
  156SAPE   C3417431   0.666  -0.440   9.853 -0.4430 -0.2858 -0.1113
  156SAPE   H4X17432   0.574  -0.384   9.824 -0.5356 -0.9489 -1.1331
  156SAPE   H4Y17433   0.640  -0.547   9.843  3.6536 -1.3235 -1.4386
  156SAPE   C3517434   0.775  -0.403   9.749 -0.6054  0.3260  0.3021
  156SAPE   H5X17435   0.868  -0.451   9.785 -0.2945 -0.9518 -1.9923
  156SAPE   H5Y17436   0.799  -0.296   9.735  1.0153 -0.0649 -0.1117
  156SAPE   C3617437   0.725  -0.460   9.616 -0.0682 -0.6877  0.5863
  156SAPE   H6X17438   0.632  -0.417   9.574  0.2987 -1.0535 -0.6421
  156SAPE   H6Y17439   0.684  -0.563   9.628 -2.4548  0.2427  0.8328
  156SAPE   C3717440   0.847  -0.465   9.515  0.5281 -0.6816 -0.0614
  156SAPE   H7X17441   0.901  -0.544   9.572 -2.9857  0.0911  5.0523
  156SAPE   H7Y17442   0.910  -0.374   9.510  2.2396 -1.8797 -1.5401
  156SAPE   C3817443   0.797  -0.514   9.375  0.2853 -0.3134 -0.2670
  156SAPE   H8X17444   0.723  -0.594   9.394 -1.3704  0.5308 -2.5762
  156SAPE   H8Y17445   0.883  -0.555   9.319  0.0566 -1.4331  0.1778
  156SAPE   C3917446   0.730  -0.403   9.297 -0.0900 -0.4058  0.5562
  156SAPE   H9X17447   0.785  -0.307   9.290 -3.7490  1.7909 -0.2309
  156SAPE   H9Y17448   0.631  -0.375   9.339 -0.2832 -1.1432  0.6057
  156SAPE  C31017449   0.695  -0.431   9.146 -0.2478  0.4415  0.3128
  156SAPE  H10X17450   0.641  -0.337   9.118  0.1071  0.6875  0.4537
  156SAPE  H10Y17451   0.622  -0.514   9.133  0.4894 -0.1791  0.0819
  156SAPE  C31117452   0.815  -0.446   9.052  0.6174 -0.5689  0.0684
  156SAPE  H11X17453   0.872  -0.541   9.064 -0.9120 -1.9402 -2.6180
  156SAPE  H11Y17454   0.876  -0.355   9.068 -1.9578  0.8689  2.4822
  156SAPE  C31217455   0.777  -0.443   8.907 -0.4453 -0.6791  0.2796
  156SAPE  H12X17456   0.865  -0.430   8.841 -0.9811  2.0366  0.0151
  156SAPE  H12Y17457   0.718  -0.353   8.882  0.9919 -0.2214 -1.6790
  156SAPE  C31317458   0.700  -0.563   8.863  0.4884  0.4641  1.0013
  156SAPE  H13X17459   0.596  -0.559   8.902 -0.4509  1.7494 -1.3629
  156SAPE  H13Y17460   0.745  -0.662   8.884  0.9387 -0.2618 -2.6008
  156SAPE  C31417461   0.685  -0.555   8.708  0.2141  0.1975 -0.1000
  156SAPE  H14X17462   0.662  -0.451   8.675 -1.0118 -1.0007 -3.4240
  156SAPE  H14Y17463   0.597  -0.615   8.675  0.4191 -0.3379  0.3114
  156SAPE  C31517464   0.806  -0.593   8.626  0.3216  0.4948 -0.0403
  156SAPE  H15X17465   0.843  -0.695   8.649  1.7953  1.6210  3.0364
  156SAPE  H15Y17466   0.897  -0.532   8.645 -0.1938  1.2454  0.0872
  156SAPE  C31617467   0.766  -0.593   8.474 -0.1070 -0.4188 -0.5426
  156SAPE  H16X17468   0.728  -0.492   8.447  0.4526 -0.1883 -0.4850
  156SAPE  H16Y17469   0.685  -0.669   8.463  0.1479 -0.8111  0.2171
  156SAPE  C31717470   0.894  -0.618   8.392  0.5075  0.5364 -0.6330
  156SAPE  H17X17471   0.958  -0.690   8.447 -0.5012  1.7811  2.3311
  156SAPE  H17Y17472   0.958  -0.528   8.386  1.1489  0.1324  0.0715
  156SAPE  C31817473   0.867  -0.690   8.260  0.2145 -0.1474 -0.0854
  156SAPE  H18X17474   0.814  -0.786   8.277 -0.8601  0.2400 -1.0295
  156SAPE  H18Y17475   0.957  -0.717   8.202 -0.4043 -0.1972 -1.0515
  156SAPE  H18Z17476   0.807  -0.622   8.195  2.3827 -1.3272 -3.6506
  157SAPE     N17477   4.117   0.913  10.933  0.2771 -0.2637 -0.1815
  157SAPE   HN117478   4.154   0.829  10.983 -0.9396 -0.9661 -0.4083
  157SAPE   HN217479   4.171   0.998  10.957  0.7183  0.0445 -2.1433
  157SAPE   HN317480   4.019   0.928  10.966  0.5468  2.1223 -0.3284
  157SAPE   C1217481   4.124   0.875  10.790  0.3950 -0.2181 -0.4419
  157SAPE  H12A17482   4.228   0.839  10.781  1.0899 -0.3718  4.8927
  157SAPE  H12B17483   4.099   0.962  10.726 -1.3928 -0.1775  0.2449
  157SAPE   C1117484   4.024   0.765  10.769 -0.6248  0.6201 -0.6195
  157SAPE  H11A17485   4.014   0.754  10.659 -1.5671  3.2295 -0.8631
  157SAPE  H11B17486   3.925   0.798  10.806 -0.2136  0.8564  0.3134
  157SAPE     P17487   3.992   0.512  10.817  0.1802 -0.1293 -0.2481
  157SAPE   O1317488   4.019   0.417  10.928 -0.0921  0.0121  0.4190
  157SAPE   O1417489   3.852   0.549  10.784  0.0915 -0.3372  0.4385
  157SAPE   O1217490   4.077   0.641  10.834 -0.4378  0.0002 -0.3703
  157SAPE   O1117491   4.047   0.448  10.685 -0.1672 -0.1851 -0.0791
  157SAPE    C117492   3.972   0.419  10.573  0.2556  0.0294  0.1232
  157SAPE    HA17493   3.876   0.366  10.592 -0.7078  1.7460  0.2573
  157SAPE    HB17494   3.954   0.515  10.521 -0.7143  0.0015  0.3822
  157SAPE    C217495   4.056   0.329  10.479  0.4577  0.0610  0.1045
  157SAPE    HS17496   4.145   0.391  10.452  1.8238  0.3487  4.4031
  157SAPE   O2117497   3.982   0.282  10.368  0.6400  0.5219 -0.2676
  157SAPE   C2117498   3.938   0.372  10.289 -0.4732 -0.3528 -0.3539
  157SAPE   O2217499   3.946   0.495  10.303  0.0181  0.1535 -0.4034
  157SAPE   C2217500   3.854   0.305  10.181  0.3297  0.6721 -0.1417
  157SAPE   H2R17501   3.756   0.290  10.231  0.7657 -0.8704  0.2825
  157SAPE   H2S17502   3.824   0.385  10.109 -0.8253  1.8283  1.5536
  157SAPE    C317503   4.107   0.205  10.560 -0.1462  0.6172 -0.5261
  157SAPE    HX17504   4.024   0.153  10.611  3.2927 -4.1409  0.9722
  157SAPE    HY17505   4.175   0.240  10.640  0.5913 -0.8557 -0.4590
  157SAPE   O3117506   4.187   0.112  10.478 -0.2314  0.7230  0.3490
  157SAPE   C3117507   4.136   0.024  10.398 -0.3168 -0.3494 -0.8503
  157SAPE   O3217508   4.011   0.002  10.389  0.2857 -0.2021 -0.8818
  157SAPE   C3217509   4.232  -0.056  10.322  0.1191 -0.3729 -0.0726
  157SAPE   H2X17510   4.182  -0.147  10.281 -3.1219  1.4366 -0.4647
  157SAPE   H2Y17511   4.314  -0.082  10.393  1.5609 -1.3703 -2.0027
  157SAPE   C2317512   3.905   0.178  10.115  0.6071 -0.2629 -0.8009
  157SAPE   H3R17513   3.877   0.098  10.187  0.9819 -1.1526 -1.6333
  157SAPE   H3S17514   4.015   0.172  10.105  0.4955 -0.1675 -2.2253
  157SAPE   C2417515   3.840   0.136   9.984 -0.0860  0.1876  0.2230
  157SAPE   H4R17516   3.858   0.227   9.923 -2.3586  0.7971  0.3857
  157SAPE   H4S17517   3.734   0.127  10.014 -0.4024  3.5009  0.4333
  157SAPE   C2517518   3.905   0.009   9.935  0.2991  0.4492 -0.4492
  157SAPE   H5R17519   3.934  -0.063  10.013 -0.3853  0.6544  0.0085
  157SAPE   C2617520   3.908  -0.026   9.809 -0.3219  0.3063 -0.2850
  157SAPE   H6R17521   3.960  -0.120   9.786 -1.2760 -0.7723  1.7219
  157SAPE   C2717522   3.843   0.046   9.691 -0.7562  0.1644 -0.2212
  157SAPE   H7R17523   3.853   0.155   9.710  1.9751  0.1905 -1.2683
  157SAPE   H7S17524   3.744  -0.004   9.681 -0.8459  0.5099 -1.1379
  157SAPE   C2817525   3.937   0.032   9.572 -0.2439 -1.0450  0.6891
  157SAPE   H8R17526   4.042   0.031   9.606  0.1661  0.0551 -0.4907
  157SAPE   C2917527   3.907   0.025   9.439 -0.4323 -0.5158  0.5155
  157SAPE   H9R17528   3.988   0.022   9.365  0.7072  0.5882  1.6576
  157SAPE  C21017529   3.774   0.028   9.378  0.4435  0.6616 -0.2566
  157SAPE  H10R17530   3.691   0.044   9.450 -0.2239  1.7618 -1.2277
  157SAPE  H10S17531   3.739  -0.059   9.318 -1.5201  0.9409  0.3944
  157SAPE  C21117532   3.756   0.150   9.297 -0.0094 -1.0110  0.4758
  157SAPE  H11R17533   3.707   0.227   9.359  1.4725 -0.0260  0.4824
  157SAPE  C21217534   3.789   0.170   9.167  0.2793  0.4018  0.3703
  157SAPE  H12R17535   3.784   0.271   9.124 -1.0306 -0.2752 -1.1511
  157SAPE  C21317536   3.859   0.071   9.074 -0.6648 -0.3455  0.1421
  157SAPE  H13R17537   3.830   0.061   8.967  2.7370 -0.6029 -0.8766
  157SAPE  H13S17538   3.836  -0.029   9.116  1.6426 -0.8828  0.2356
  157SAPE  C21417539   4.013   0.097   9.074 -0.7391 -0.3314 -0.3573
  157SAPE  H14R17540   4.053   0.132   9.170 -0.7578 -1.3846  0.0550
  157SAPE  C21517541   4.110   0.074   8.976 -0.3880 -0.6964 -1.1604
  157SAPE  H15R17542   4.215   0.083   9.007 -0.4421 -0.4596 -1.0396
  157SAPE  C21617543   4.093   0.025   8.833 -0.2474  0.4930 -0.1593
  157SAPE  H16R17544   3.985   0.010   8.813 -0.0768  1.2539 -1.8547
  157SAPE  H16S17545   4.146  -0.072   8.826  1.1164  1.1217  0.9810
  157SAPE  C21717546   4.145   0.120   8.731 -0.6261  0.0630  0.3606
  157SAPE  H17R17547   4.255   0.137   8.741 -0.6777  1.8534 -1.4764
  157SAPE  H17S17548   4.103   0.218   8.759  2.5581  2.0829 -1.2918
  157SAPE  C21817549   4.135   0.070   8.587  0.8743 -0.3742  0.0495
  157SAPE  H18R17550   4.136   0.165   8.529 -0.0714 -1.5622 -2.0378
  157SAPE  H18S17551   4.041   0.016   8.563  0.8003  0.3514 -1.4262
  157SAPE  C21917552   4.249  -0.021   8.555  0.0913 -0.5336  0.5193
  157SAPE  H19R17553   4.226  -0.120   8.601 -2.2255 -0.4007 -0.2017
  157SAPE  H19S17554   4.343   0.019   8.598 -0.1078  0.0154  0.4485
  157SAPE  C22017555   4.247  -0.048   8.400 -0.0039 -0.3446 -0.2299
  157SAPE  H20R17556   4.228   0.047   8.346  2.1400  0.4945  0.4040
  157SAPE  H20S17557   4.168  -0.124   8.383 -0.8112  0.7289 -1.4234
  157SAPE  H20T17558   4.341  -0.097   8.367 -0.1653 -1.1534  0.4633
  157SAPE   C3317559   4.314   0.036  10.222  0.1055  0.2108  0.6178
  157SAPE   H3X17560   4.367   0.114  10.281 -1.2177  0.2732  1.7824
  157SAPE   H3Y17561   4.237   0.085  10.159  1.8127  1.2093 -0.8135
  157SAPE   C3417562   4.416  -0.025  10.128  0.2848 -0.8265  0.5876
  157SAPE   H4X17563   4.490  -0.092  10.176  1.1577 -0.3573 -0.0767
  157SAPE   H4Y17564   4.469   0.065  10.091  1.8519 -2.1775 -0.5825
  157SAPE   C3517565   4.339  -0.087  10.012 -0.0283  0.1904 -0.4563
  157SAPE   H5X17566   4.251  -0.025   9.987  0.5413  1.2016 -0.0101
  157SAPE   H5Y17567   4.295  -0.178  10.057  0.2337  0.4179  0.2760
  157SAPE   C3617568   4.424  -0.113   9.888  0.1808  0.5877  0.0273
  157SAPE   H6X17569   4.507  -0.185   9.904 -0.4360 -0.3189 -0.7887
  157SAPE   H6Y17570   4.464  -0.015   9.854  0.0826  0.7076  0.2521
  157SAPE   C3717571   4.348  -0.167   9.760 -0.1524  0.1773  0.1018
  157SAPE   H7X17572   4.261  -0.105   9.727  0.0628 -0.6638 -2.2341
  157SAPE   H7Y17573   4.291  -0.260   9.783  1.3874 -0.4021  1.8224
  157SAPE   C3817574   4.440  -0.196   9.644  0.0228 -0.1727 -0.6262
  157SAPE   H8X17575   4.406  -0.278   9.578 -0.9456 -0.8245  0.6402
  157SAPE   H8Y17576   4.536  -0.235   9.685  0.7374  0.5510 -1.5555
  157SAPE   C3917577   4.475  -0.069   9.560 -0.6122  0.2873  0.0322
  157SAPE   H9X17578   4.576  -0.088   9.517 -1.2721 -3.0553 -0.3819
  157SAPE   H9Y17579   4.479   0.018   9.628  1.6405 -0.0396  0.3874
  157SAPE  C31017580   4.369  -0.052   9.444  0.4827 -0.1016  0.1369
  157SAPE  H10X17581   4.390   0.047   9.398  0.7271 -0.6919 -1.0595
  157SAPE  H10Y17582   4.268  -0.054   9.491  0.2326 -1.9864 -0.3987
  157SAPE  C31117583   4.377  -0.160   9.333 -0.4869 -0.0875  0.0311
  157SAPE  H11X17584   4.372  -0.259   9.382  0.8885 -0.2786 -0.1692
  157SAPE  H11Y17585   4.484  -0.156   9.302 -0.5092  0.0910 -0.0260
  157SAPE  C31217586   4.273  -0.151   9.223 -0.3151 -0.6760  0.3307
  157SAPE  H12X17587   4.275  -0.046   9.187  3.0258 -0.2758  1.3116
  157SAPE  H12Y17588   4.171  -0.179   9.258 -0.7061 -0.6036 -0.7063
  157SAPE  C31317589   4.305  -0.248   9.106  0.3260  0.0268  1.0740
  157SAPE  H13X17590   4.225  -0.223   9.033  1.3982  2.3738  0.5891
  157SAPE  H13Y17591   4.299  -0.356   9.129  0.6912 -0.4294 -0.8103
  157SAPE  C31417592   4.440  -0.225   9.030 -0.1173  0.5439 -0.5647
  157SAPE  H14X17593   4.522  -0.222   9.106 -1.5170  0.1641  1.0292
  157SAPE  H14Y17594   4.434  -0.123   8.985 -0.5946 -1.4340 -5.6179
  157SAPE  C31517595   4.484  -0.326   8.917 -0.0762  0.9729  0.1821
  157SAPE  H15X17596   4.394  -0.386   8.893 -1.1894  2.5859  0.1721
  157SAPE  H15Y17597   4.558  -0.395   8.962  1.3982  3.0432  1.1110
  157SAPE  C31617598   4.543  -0.269   8.789 -0.6273  0.6046  0.1163
  157SAPE  H16X17599   4.639  -0.232   8.831  0.0771  0.8863 -1.6759
  157SAPE  H16Y17600   4.486  -0.185   8.745  1.2834  1.2244 -1.3146
  157SAPE  C31717601   4.580  -0.365   8.683  0.5881  0.0968  0.0398
  157SAPE  H17X17602   4.488  -0.419   8.653 -1.8409  3.9523 -0.1579
  157SAPE  H17Y17603   4.648  -0.440   8.729  0.2737 -0.9299 -1.1133
  157SAPE  C31817604   4.647  -0.304   8.563 -0.2478  0.1996 -0.1705
  157SAPE  H18X17605   4.709  -0.386   8.520 -0.5592 -0.3968  0.5066
  157SAPE  H18Y17606   4.719  -0.227   8.600  0.8127 -2.1997  3.2911
  157SAPE  H18Z17607   4.567  -0.264   8.497 -0.4133  0.3822  0.1391
  158SAPE     N17608   0.080   6.734  11.070  0.2514  0.0811 -0.2331
  158SAPE   HN117609   0.055   6.833  11.049 -0.6613 -0.0564  0.1425
  158SAPE   HN217610   0.060   6.717  11.171  1.0045 -0.5742 -0.1839
  158SAPE   HN317611   0.177   6.716  11.037 -0.4434 -1.9105 -1.3723
  158SAPE   C1217612  -0.001   6.642  10.988  0.4007 -0.7089 -0.2402
  158SAPE  H12A17613  -0.102   6.648  11.033  0.2631 -1.1812 -0.4768
  158SAPE  H12B17614   0.053   6.545  10.992  0.7640 -0.4664  1.5706
  158SAPE   C1117615  -0.010   6.690  10.839  0.9253 -0.4723 -0.0245
  158SAPE  H11A17616  -0.067   6.609  10.788  0.2704  0.4009 -0.7135
  158SAPE  H11B17617   0.091   6.699  10.793  0.9753 -3.3347 -0.6390
  158SAPE     P17618  -0.018   6.963  10.838  0.2783  0.5520  0.3018
  158SAPE   O1317619   0.005   6.977  10.981  0.1421  0.2658 -0.0645
  158SAPE   O1417620   0.103   6.981  10.757  0.5484 -0.1607 -0.1475
  158SAPE   O1217621  -0.084   6.817  10.832 -0.0818 -0.1408  0.5305
  158SAPE   O1117622  -0.131   7.068  10.801 -0.8520 -0.5395  0.2102
  158SAPE    C117623  -0.250   7.054  10.738  0.6784  0.3730 -0.3671
  158SAPE    HA17624  -0.311   6.963  10.760 -0.3595  0.6930 -1.8073
  158SAPE    HB17625  -0.314   7.133  10.783  0.9894 -0.7464  2.2433
  158SAPE    C217626  -0.250   7.082  10.590 -0.3443  0.2844 -0.1250
  158SAPE    HS17627  -0.359   7.086  10.567 -0.4796  3.2268  0.6518
  158SAPE   O2117628  -0.178   6.984  10.518  0.4710  0.0385  0.2823
  158SAPE   C2117629  -0.225   6.857  10.515 -0.3910 -0.2023 -0.1097
  158SAPE   O2217630  -0.336   6.818  10.552 -0.2550 -0.9857  0.0855
  158SAPE   C2217631  -0.116   6.764  10.459  0.4734 -1.1525 -0.8493
  158SAPE   H2R17632  -0.045   6.744  10.542 -1.7263 -1.5973  1.0483
  158SAPE   H2S17633  -0.170   6.667  10.452 -1.9477  0.1796 -2.1941
  158SAPE    C317634  -0.201   7.227  10.556 -0.5244  0.0840 -0.1299
  158SAPE    HX17635  -0.091   7.223  10.545 -0.4680  2.5581 -1.3448
  158SAPE    HY17636  -0.223   7.299  10.638 -1.1026 -2.0575  1.6902
  158SAPE   O3117637  -0.251   7.261  10.427 -0.1232  0.9458  0.6730
  158SAPE   C3117638  -0.347   7.354  10.419 -1.1101 -0.3447  1.1491
  158SAPE   O3217639  -0.402   7.408  10.511 -0.0118  0.0076 -0.9683
  158SAPE   C3217640  -0.390   7.373  10.271 -0.0448  0.4543  0.1415
  158SAPE   H2X17641  -0.467   7.454  10.269  1.0155  1.4960 -0.8116
  158SAPE   H2Y17642  -0.430   7.276  10.236 -1.1333  0.3098  1.7061
  158SAPE   C2317643  -0.065   6.792  10.317 -0.0631  0.3859 -0.0393
  158SAPE   H3R17644   0.027   6.735  10.293 -0.3829 -1.4059  2.6144
  158SAPE   H3S17645  -0.038   6.899  10.305  1.3287  0.1086  0.4475
  158SAPE   C2417646  -0.171   6.771  10.211 -0.0871 -0.2412  0.5897
  158SAPE   H4R17647  -0.128   6.801  10.114 -1.6105  0.4203  0.0934
  158SAPE   H4S17648  -0.260   6.834  10.230 -1.2219 -1.9529  1.1843
  158SAPE   C2517649  -0.228   6.636  10.198 -0.1102 -0.4581 -0.8591
  158SAPE   H5R17650  -0.295   6.606  10.280 -1.3242  0.2675 -1.5537
  158SAPE   C2617651  -0.209   6.553  10.098 -0.1191 -0.5846  0.6643
  158SAPE   H6R17652  -0.253   6.453  10.108 -1.6652 -0.5878 -3.9274
  158SAPE   C2717653  -0.118   6.580   9.973 -0.0774 -0.0507  0.5207
  158SAPE   H7R17654  -0.028   6.628  10.018  1.2130 -1.0568 -0.8484
  158SAPE   H7S17655  -0.165   6.655   9.906 -1.9266  0.4964  2.3355
  158SAPE   C2817656  -0.084   6.447   9.917  0.2362  0.5571  0.1370
  158SAPE   H8R17657  -0.080   6.366   9.991  2.4629  1.1445  0.7350
  158SAPE   C2917658  -0.070   6.417   9.792  0.1752  0.0248  0.8970
  158SAPE   H9R17659  -0.058   6.315   9.751  1.2764  1.2572 -2.0777
  158SAPE  C21017660  -0.082   6.512   9.673  0.5221 -0.0965  0.4001
  158SAPE  H10R17661  -0.062   6.617   9.706 -1.8313  1.3097 -2.3087
  158SAPE  H10S17662  -0.184   6.504   9.631  0.4170  0.6549  0.4907
  158SAPE  C21117663   0.017   6.486   9.555 -0.1317 -0.1360 -0.2844
  158SAPE  H11R17664  -0.045   6.453   9.470 -1.4332  1.2432  0.0901
  158SAPE  C21217665   0.154   6.493   9.555  0.7785 -0.4912  0.3156
  158SAPE  H12R17666   0.208   6.470   9.462  0.6454  2.5014 -0.6029
  158SAPE  C21317667   0.246   6.516   9.669 -0.3753  0.0908  0.3369
  158SAPE  H13R17668   0.264   6.421   9.723 -0.6275  0.4389  1.0447
  158SAPE  H13S17669   0.206   6.570   9.758  2.5164  0.9628  1.2269
  158SAPE  C21417670   0.375   6.578   9.624 -0.3961  0.4470 -0.4216
  158SAPE  H14R17671   0.403   6.542   9.524  0.0857 -1.2321  0.2900
  158SAPE  C21517672   0.460   6.658   9.698  0.0786  0.1585  0.0410
  158SAPE  H15R17673   0.546   6.707   9.649  1.3290 -0.6751  1.3079
  158SAPE  C21617674   0.431   6.700   9.838  0.4284 -0.2704 -0.2888
  158SAPE  H16R17675   0.459   6.630   9.920 -1.7090  0.0404  0.7727
  158SAPE  H16S17676   0.324   6.715   9.862  1.0233  0.3999  2.2697
  158SAPE  C21717677   0.493   6.839   9.879 -0.5607 -0.2460  0.1663
  158SAPE  H17R17678   0.444   6.906   9.806  0.4394 -0.2917 -0.5773
  158SAPE  H17S17679   0.601   6.840   9.852 -0.8014  0.9419 -0.8352
  158SAPE  C21817680   0.480   6.880  10.023 -0.0654 -0.0898 -0.2539
  158SAPE  H18R17681   0.477   6.991  10.024  1.5213 -0.0189  0.1896
  158SAPE  H18S17682   0.579   6.867  10.072 -1.3774 -0.7613  2.3954
  158SAPE  C21917683   0.376   6.818  10.111  0.4951  0.0410 -0.0384
  158SAPE  H19R17684   0.388   6.710  10.137 -3.2830 -0.3714  0.4263
  158SAPE  H19S17685   0.284   6.829  10.051  1.2383  2.1976 -0.8822
  158SAPE  C22017686   0.357   6.897  10.241 -0.4033  0.4145 -0.5962
  158SAPE  H20R17687   0.345   7.005  10.221  0.1382  0.5804 -0.0270
  158SAPE  H20S17688   0.442   6.880  10.310  0.6744 -0.4083 -2.0806
  158SAPE  H20T17689   0.276   6.853  10.304  0.9710 -1.1565  0.1718
  158SAPE   C3317690  -0.272   7.418  10.182 -0.7341  0.3145  0.0606
  158SAPE   H3X17691  -0.185   7.350  10.187 -0.9510  0.0080 -0.3052
  158SAPE   H3Y17692  -0.237   7.521  10.205 -1.8912  0.8106 -0.3198
  158SAPE   C3417693  -0.309   7.415  10.031 -0.7233 -0.4876 -0.8703
  158SAPE   H4X17694  -0.353   7.320   9.994 -2.0908  0.8059 -2.7230
  158SAPE   H4Y17695  -0.210   7.420   9.982  0.7433 -1.2274  1.7985
  158SAPE   C3517696  -0.383   7.543   9.986  0.4609 -0.3802  0.7465
  158SAPE   H5X17697  -0.331   7.632  10.028 -1.8077  0.9437  0.9101
  158SAPE   H5Y17698  -0.487   7.540  10.026 -0.0669  1.5696 -0.3812
  158SAPE   C3617699  -0.391   7.551   9.836 -0.6340 -0.3300 -0.4554
  158SAPE   H6X17700  -0.292   7.513   9.802 -0.6431 -2.7645  1.8901
  158SAPE   H6Y17701  -0.409   7.657   9.808  3.7000  0.1747 -2.0576
  158SAPE   C3717702  -0.491   7.452   9.781  0.3653  0.4469 -0.8158
  158SAPE   H7X17703  -0.582   7.459   9.843  0.1832 -1.4613 -0.8252
  158SAPE   H7Y17704  -0.451   7.349   9.789  0.3587  0.4999 -0.0446
  158SAPE   C3817705  -0.542   7.493   9.640  0.3438  0.3073 -0.0113
  158SAPE   H8X17706  -0.451   7.509   9.578  1.2925 -3.0289  0.3269
  158SAPE   H8Y17707  -0.605   7.584   9.639 -1.6540 -0.9957  0.9601
  158SAPE   C3917708  -0.629   7.384   9.581 -0.3479 -0.1424 -0.8003
  158SAPE   H9X17709  -0.696   7.343   9.659 -0.7611  0.7756 -0.6647
  158SAPE   H9Y17710  -0.562   7.297   9.561 -0.1596 -0.1745 -0.0660
  158SAPE  C31017711  -0.710   7.427   9.454 -0.6576  0.6538 -0.0132
  158SAPE  H10X17712  -0.628   7.473   9.396 -0.6948  1.6692  0.7121
  158SAPE  H10Y17713  -0.781   7.512   9.471 -0.6104  0.5072  1.0078
  158SAPE  C31117714  -0.766   7.303   9.377  0.7456 -0.2686 -0.3193
  158SAPE  H11X17715  -0.862   7.272   9.423  0.3773  0.2005 -0.7702
  158SAPE  H11Y17716  -0.707   7.215   9.411 -0.6452 -0.6988  1.0980
  158SAPE  C31217717  -0.770   7.319   9.229 -0.2036 -1.0223 -0.0494
  158SAPE  H12X17718  -0.684   7.380   9.194 -1.9581  0.3148 -2.3151
  158SAPE  H12Y17719  -0.855   7.385   9.202  0.6413 -0.4978 -1.5220
  158SAPE  C31317720  -0.774   7.182   9.165 -0.6215 -0.8141 -0.1197
  158SAPE  H13X17721  -0.857   7.127   9.214  1.9980 -3.6575  1.4273
  158SAPE  H13Y17722  -0.681   7.125   9.186  0.5040  1.3629  1.1968
  158SAPE  C31417723  -0.799   7.187   9.013 -0.4516 -0.1797  0.4747
  158SAPE  H14X17724  -0.769   7.087   8.974 -0.8268 -0.0394 -0.1777
  158SAPE  H14Y17725  -0.728   7.254   8.960  0.8752 -1.2929  0.8037
  158SAPE  C31517726  -0.942   7.203   8.969  0.0433  0.0768  0.1782
  158SAPE  H15X17727  -0.969   7.305   9.001 -2.9546 -0.5870  0.1064
  158SAPE  H15Y17728  -1.016   7.136   9.018  0.2878 -0.1021  0.2979
  158SAPE  C31617729  -0.964   7.206   8.816 -0.2403  0.4895  0.3912
  158SAPE  H16X17730  -0.926   7.114   8.768 -2.9184 -1.1377  1.1925
  158SAPE  H16Y17731  -0.917   7.290   8.761  0.5756 -1.0819 -1.4250
  158SAPE  C31717732  -1.114   7.208   8.802 -0.1609  0.0507  0.1975
  158SAPE  H17X17733  -1.157   7.302   8.842 -0.7560  0.0525 -0.4278
  158SAPE  H17Y17734  -1.157   7.123   8.860 -1.9767  0.7907  0.0005
  158SAPE  C31817735  -1.155   7.202   8.658 -0.3037  0.4149 -0.1576
  158SAPE  H18X17736  -1.260   7.232   8.640 -1.0347 -1.4752  0.6684
  158SAPE  H18Y17737  -1.138   7.103   8.611  0.8948  0.2953  0.4747
  158SAPE  H18Z17738  -1.086   7.273   8.607  1.1556 -0.5730  0.3564
  159SAPE     N17739   5.067   0.495   6.348  0.2293  0.1301 -0.0006
  159SAPE   HN117740   5.018   0.554   6.278 -0.0938  0.8183  0.7961
  159SAPE   HN217741   5.080   0.545   6.438  0.3981  0.0381  0.0282
  159SAPE   HN317742   5.159   0.472   6.304  0.2617 -1.1893  0.7022
  159SAPE   C1217743   4.979   0.377   6.366 -0.3152  0.1658  0.1594
  159SAPE  H12A17744   5.006   0.324   6.460 -0.9200 -0.8221 -0.2062
  159SAPE  H12B17745   4.989   0.316   6.274 -0.3411 -0.4973  0.5877
  159SAPE   C1117746   4.832   0.412   6.374  0.6072 -0.1789  0.1442
  159SAPE  H11A17747   4.793   0.313   6.409  1.4639 -0.3508  0.6489
  159SAPE  H11B17748   4.787   0.437   6.276 -1.0739  1.2251  1.2093
  159SAPE     P17749   4.791   0.665   6.435 -0.0395  0.2088 -0.0089
  159SAPE   O1317750   4.879   0.682   6.316 -0.5709  0.1235  0.1622
  159SAPE   O1417751   4.647   0.690   6.406  0.0678 -0.0898  0.1431
  159SAPE   O1217752   4.811   0.511   6.472  0.4718 -0.0668  0.7050
  159SAPE   O1117753   4.843   0.752   6.551 -0.2734 -0.3897  0.1833
  159SAPE    C117754   4.840   0.724   6.691 -0.2672 -0.6468  0.4336
  159SAPE    HA17755   4.895   0.628   6.705 -1.6029 -1.5359 -0.1856
  159SAPE    HB17756   4.886   0.811   6.742  0.9888 -1.3345  0.5127
  159SAPE    C217757   4.697   0.727   6.748  0.4207 -0.1977  0.6219
  159SAPE    HS17758   4.697   0.735   6.859  0.1991 -1.0637  0.6961
  159SAPE   O2117759   4.638   0.605   6.705  0.5958  0.8236 -0.2775
  159SAPE   C2117760   4.672   0.496   6.774 -0.8874 -0.5460 -0.3924
  159SAPE   O2217761   4.752   0.495   6.867 -0.0165  0.2215 -0.4546
  159SAPE   C2217762   4.600   0.377   6.719  0.7145 -0.4647  0.0085
  159SAPE   H2R17763   4.491   0.396   6.705  0.3848 -1.4838  1.0033
  159SAPE   H2S17764   4.652   0.345   6.627  1.5577 -0.4192  0.4642
  159SAPE    C317765   4.615   0.850   6.703  0.0050  0.4310 -1.2057
  159SAPE    HX17766   4.592   0.829   6.596  0.9320 -0.0223 -1.3238
  159SAPE    HY17767   4.677   0.942   6.703  0.9916 -0.2086  0.0768
  159SAPE   O3117768   4.481   0.874   6.768  0.3482  0.0203 -0.0792
  159SAPE   C3117769   4.489   0.959   6.868  0.6123  0.1784 -1.2268
  159SAPE   O3217770   4.585   1.015   6.911 -0.4908  0.5685 -0.1845
  159SAPE   C3217771   4.351   0.978   6.938 -0.6005  0.1617  0.3806
  159SAPE   H2X17772   4.275   0.995   6.858 -2.9671  0.5532  2.5835
  159SAPE   H2Y17773   4.372   1.074   6.990 -0.5878  0.3777 -0.0139
  159SAPE   C2317774   4.586   0.258   6.811  0.4171 -0.2271  0.1041
  159SAPE   H3R17775   4.688   0.224   6.837  0.3335 -2.5272 -2.0951
  159SAPE   H3S17776   4.530   0.171   6.769  1.4900 -2.0779  2.2672
  159SAPE   C2417777   4.521   0.290   6.945  0.1789 -0.7941 -0.2617
  159SAPE   H4R17778   4.426   0.347   6.932  0.2605 -0.4632  0.4934
  159SAPE   H4S17779   4.600   0.349   6.997  0.4613 -0.5424 -0.9741
  159SAPE   C2517780   4.484   0.170   7.028  0.1922  0.2689  0.4218
  159SAPE   H5R17781   4.423   0.098   6.972  0.7927  1.2678 -1.5828
  159SAPE   C2617782   4.523   0.152   7.155  0.1571  0.3318 -0.4108
  159SAPE   H6R17783   4.488   0.062   7.207  0.9334 -0.6927 -1.6068
  159SAPE   C2717784   4.598   0.239   7.251 -0.3968 -0.2170 -0.5534
  159SAPE   H7R17785   4.700   0.266   7.217  0.9001 -2.0810  1.5349
  159SAPE   H7S17786   4.630   0.171   7.334  0.6511 -0.0706 -0.8231
  159SAPE   C2817787   4.522   0.360   7.312 -0.2191 -0.2698 -0.7106
  159SAPE   H8R17788   4.510   0.446   7.244  0.0387  1.2771  1.1324
  159SAPE   C2917789   4.486   0.365   7.440 -0.5732 -0.7297  0.2901
  159SAPE   H9R17790   4.434   0.454   7.478  3.2245  2.5964 -1.5768
  159SAPE  C21017791   4.517   0.261   7.547  0.2278 -0.1041 -0.6071
  159SAPE  H10R17792   4.500   0.157   7.511  0.2250  0.1080 -1.2460
  159SAPE  H10S17793   4.448   0.274   7.633  0.6002 -0.8195 -0.1875
  159SAPE  C21117794   4.660   0.264   7.595  0.4454  0.4181  0.1126
  159SAPE  H11R17795   4.735   0.298   7.523  1.7973 -0.3860  1.1040
  159SAPE  C21217796   4.683   0.258   7.728 -0.3440 -0.1513  0.4980
  159SAPE  H12R17797   4.787   0.271   7.761  0.1739 -0.1100 -1.0634
  159SAPE  C21317798   4.594   0.255   7.847  0.0529  0.1258  0.2980
  159SAPE  H13R17799   4.646   0.196   7.925  0.8205  3.1434  2.2334
  159SAPE  H13S17800   4.509   0.187   7.825  1.8238 -1.5078 -2.0770
  159SAPE  C21417801   4.542   0.388   7.889 -0.1786  0.0875 -0.0810
  159SAPE  H14R17802   4.497   0.442   7.804  2.4441 -0.5364 -2.0108
  159SAPE  C21517803   4.564   0.441   8.018  0.5046  0.0326 -0.0802
  159SAPE  H15R17804   4.530   0.542   8.044  2.2149  0.6500 -0.0690
  159SAPE  C21617805   4.630   0.377   8.137  0.2311  0.5446  0.4119
  159SAPE  H16R17806   4.679   0.455   8.199  0.8831  0.6536 -0.2244
  159SAPE  H16S17807   4.710   0.317   8.089  2.2076  1.9201  1.8403
  159SAPE  C21717808   4.537   0.297   8.225  0.0153 -0.3833  0.2030
  159SAPE  H17R17809   4.592   0.246   8.307  0.2502  1.0760  0.9805
  159SAPE  H17S17810   4.495   0.207   8.175 -0.4491  0.4490 -0.9609
  159SAPE  C21817811   4.423   0.379   8.284  0.1514  1.1005 -0.4746
  159SAPE  H18R17812   4.351   0.317   8.341  2.0102  0.7988  1.6786
  159SAPE  H18S17813   4.360   0.412   8.198 -1.9385 -0.1760  0.4771
  159SAPE  C21917814   4.465   0.495   8.377  0.5860 -0.5863 -0.3722
  159SAPE  H19R17815   4.476   0.587   8.316  1.0964 -0.5471 -0.2300
  159SAPE  H19S17816   4.560   0.474   8.431 -0.4777  0.6218  2.1420
  159SAPE  C22017817   4.366   0.506   8.492 -0.1188  0.2987  0.5180
  159SAPE  H20R17818   4.262   0.527   8.458 -0.4663 -1.8899  0.0908
  159SAPE  H20S17819   4.398   0.591   8.557 -1.0918 -0.6903  2.3973
  159SAPE  H20T17820   4.360   0.410   8.549 -0.0442 -0.8671 -1.3574
  159SAPE   C3317821   4.324   0.853   7.026  0.0720 -0.5335  0.3468
  159SAPE   H3X17822   4.353   0.761   6.971  2.3399  0.8000 -0.8557
  159SAPE   H3Y17823   4.217   0.851   7.056  0.0072  0.3980  0.2125
  159SAPE   C3417824   4.395   0.867   7.160 -0.2656 -0.0670 -0.1276
  159SAPE   H4X17825   4.384   0.973   7.193 -2.5378 -0.8551  1.9681
  159SAPE   H4Y17826   4.502   0.839   7.147  0.9877  3.8071  0.5227
  159SAPE   C3517827   4.332   0.776   7.272  0.4735  0.4508  0.1098
  159SAPE   H5X17828   4.363   0.670   7.257 -0.5966  0.2287 -0.6179
  159SAPE   H5Y17829   4.222   0.780   7.261  0.6716  2.3666 -1.6801
  159SAPE   C3617830   4.378   0.839   7.409  0.0409  0.3793 -0.0724
  159SAPE   H6X17831   4.332   0.939   7.425 -1.3582 -0.5582  2.2261
  159SAPE   H6Y17832   4.486   0.858   7.392  0.6518 -3.2606 -1.1923
  159SAPE   C3717833   4.351   0.750   7.526  0.3495  0.4156 -0.0565
  159SAPE   H7X17834   4.439   0.686   7.549 -1.2444 -1.9507 -0.1778
  159SAPE   H7Y17835   4.270   0.676   7.504  0.4302  0.2048  0.3379
  159SAPE   C3817836   4.313   0.819   7.660 -0.4142  0.2457  0.1865
  159SAPE   H8X17837   4.224   0.879   7.635 -1.0805 -0.2700  1.2278
  159SAPE   H8Y17838   4.387   0.896   7.692 -2.5640  2.7700 -0.5592
  159SAPE   C3917839   4.274   0.729   7.777  0.0882  0.0949 -0.2192
  159SAPE   H9X17840   4.358   0.661   7.804  1.3346  2.3167  1.8347
  159SAPE   H9Y17841   4.198   0.657   7.739 -2.2025  1.7203  1.0474
  159SAPE  C31017842   4.224   0.804   7.896 -0.3858  0.5981  0.1560
  159SAPE  H10X17843   4.133   0.865   7.876 -0.1852  0.0419 -2.8219
  159SAPE  H10Y17844   4.303   0.871   7.936 -0.7871  1.2760 -0.1704
  159SAPE  C31117845   4.192   0.717   8.017  0.0617  0.1476 -0.2005
  159SAPE  H11X17846   4.274   0.657   8.062 -2.7554 -3.5617  0.5395
  159SAPE  H11Y17847   4.120   0.641   7.978  0.4553 -1.6884  2.4226
  159SAPE  C31217848   4.111   0.787   8.131  0.5542 -0.1950  0.0153
  159SAPE  H12X17849   4.013   0.833   8.104  0.1075 -0.2997  1.3446
  159SAPE  H12Y17850   4.173   0.875   8.162  2.0464 -0.9933 -0.6241
  159SAPE  C31317851   4.095   0.697   8.252 -0.4145  0.0637  0.0721
  159SAPE  H13X17852   4.193   0.654   8.282 -0.7626 -0.7192  0.1033
  159SAPE  H13Y17853   4.024   0.618   8.220 -0.7323 -0.3054  1.6094
  159SAPE  C31417854   4.028   0.769   8.368 -0.3639 -0.1385  0.3728
  159SAPE  H14X17855   4.104   0.814   8.435 -0.9392  0.9761  0.2991
  159SAPE  H14Y17856   3.973   0.688   8.421 -3.7172 -0.3082 -2.9720
  159SAPE  C31517857   3.908   0.860   8.328  0.2259 -0.3545 -0.3791
  159SAPE  H15X17858   3.834   0.812   8.260 -2.3315  3.0452 -0.2964
  159SAPE  H15Y17859   3.949   0.954   8.284  0.0071 -0.1945 -0.2449
  159SAPE  C31617860   3.828   0.904   8.453 -0.3143 -0.3336  0.0338
  159SAPE  H16X17861   3.810   0.819   8.522  1.6452  0.1484  1.2135
  159SAPE  H16Y17862   3.736   0.958   8.421  0.1069  0.0835 -0.4949
  159SAPE  C31717863   3.919   1.002   8.536  0.0290 -0.3031 -0.1122
  159SAPE  H17X17864   3.973   1.070   8.466  0.4282 -1.1870 -0.6829
  159SAPE  H17Y17865   3.995   0.930   8.573 -2.3745 -2.5956  0.6381
  159SAPE  C31817866   3.851   1.073   8.657  0.0345 -0.1134  0.3224
  159SAPE  H18X17867   3.749   1.105   8.625  0.6837  2.9304  0.9709
  159SAPE  H18Y17868   3.890   1.172   8.689 -1.6287  0.7824 -0.2670
  159SAPE  H18Z17869   3.833   1.005   8.743 -1.3966  0.5731  0.6060
  160SAPE     N17870   6.233   6.402   6.320  0.4848  0.3945 -0.3122
  160SAPE   HN117871   6.334   6.421   6.303  0.2947  0.1617 -1.8743
  160SAPE   HN217872   6.184   6.484   6.280  0.5816  0.5698 -0.0758
  160SAPE   HN317873   6.214   6.407   6.422 -1.6355  0.8560 -0.7045
  160SAPE   C1217874   6.191   6.263   6.277 -0.0023  0.4509 -0.0047
  160SAPE  H12A17875   6.264   6.240   6.196  1.6629  0.6187  1.3763
  160SAPE  H12B17876   6.087   6.270   6.241 -0.5209 -0.2048  1.3037
  160SAPE   C1117877   6.203   6.158   6.386 -0.5014  0.4384  0.2261
  160SAPE  H11A17878   6.308   6.164   6.421 -0.5941  0.3464  0.5179
  160SAPE  H11B17879   6.186   6.055   6.350  1.3891  0.2329 -0.1726
  160SAPE     P17880   5.972   6.178   6.516 -0.0284  0.0564  0.5010
  160SAPE   O1317881   5.905   6.264   6.418  0.4272 -0.5433  0.2230
  160SAPE   O1417882   5.921   6.038   6.515 -0.6224 -0.2191  0.1057
  160SAPE   O1217883   6.126   6.185   6.497  0.2410  0.0906  0.0059
  160SAPE   O1117884   5.971   6.237   6.659  0.0728 -0.8263 -0.4466
  160SAPE    C117885   6.065   6.324   6.719 -0.7946 -0.4211 -0.6350
  160SAPE    HA17886   6.145   6.263   6.766 -0.4153 -0.3433 -1.1737
  160SAPE    HB17887   6.112   6.391   6.645 -2.9294  0.1125 -1.5924
  160SAPE    C217888   5.999   6.417   6.826  0.1397 -0.0477  0.1022
  160SAPE    HS17889   6.079   6.493   6.838  3.1785 -2.8956 -0.6402
  160SAPE   O2117890   5.973   6.348   6.944  0.6244  0.1582  0.1262
  160SAPE   C2117891   6.068   6.347   7.039 -0.1401  0.0915  0.3751
  160SAPE   O2217892   6.181   6.388   7.030 -0.1919  0.3145  0.7782
  160SAPE   C2217893   6.013   6.284   7.170 -0.9722 -0.1651  0.0162
  160SAPE   H2R17894   5.919   6.339   7.193  0.6685  3.0661 -0.3273
  160SAPE   H2S17895   5.988   6.176   7.161  0.8026 -0.5520 -0.6115
  160SAPE    C317896   5.874   6.482   6.769 -0.3978  0.3590 -0.6990
  160SAPE    HX17897   5.806   6.401   6.736 -0.1946 -0.8605  1.6254
  160SAPE    HY17898   5.885   6.548   6.680  2.2189 -0.0093 -0.7131
  160SAPE   O3117899   5.794   6.550   6.866  0.3489 -0.2016 -0.0594
  160SAPE   C3117900   5.803   6.677   6.874  0.3054 -0.0841 -0.0226
  160SAPE   O3217901   5.868   6.757   6.806  0.1680  0.2684 -0.2524
  160SAPE   C3217902   5.701   6.724   6.984 -0.4428  0.4296 -0.0117
  160SAPE   H2X17903   5.661   6.635   7.039 -1.3799  1.5263  1.1387
  160SAPE   H2Y17904   5.608   6.764   6.937 -0.4963  0.0416 -0.2429
  160SAPE   C2317905   6.113   6.300   7.280  0.2005 -0.1392  0.1948
  160SAPE   H3R17906   6.152   6.404   7.280  1.7808 -0.6966 -0.1446
  160SAPE   H3S17907   6.202   6.236   7.262  1.5702  2.3654 -2.8188
  160SAPE   C2417908   6.058   6.264   7.419  0.3756 -0.2196  0.9494
  160SAPE   H4R17909   6.034   6.156   7.422 -1.2975  0.1136  0.5498
  160SAPE   H4S17910   5.961   6.317   7.428  0.2882 -0.4444  1.3555
  160SAPE   C2517911   6.139   6.305   7.537  0.0028 -0.3801  0.2202
  160SAPE   H5R17912   6.172   6.409   7.530 -3.8064  1.0203  0.6047
  160SAPE   C2617913   6.175   6.217   7.642 -0.0713 -0.2907  1.1786
  160SAPE   H6R17914   6.233   6.255   7.727 -1.1962  0.5275  1.6102
  160SAPE   C2717915   6.144   6.071   7.664 -0.6411 -0.3649  0.3520
  160SAPE   H7R17916   6.043   6.049   7.623 -0.1242 -2.4678  0.1187
  160SAPE   H7S17917   6.146   6.042   7.771  2.1917  0.0153  0.4877
  160SAPE   C2817918   6.250   5.989   7.596  0.6271 -0.0451 -0.1541
  160SAPE   H8R17919   6.246   5.980   7.486  0.6048 -0.1724 -0.1432
  160SAPE   C2917920   6.347   5.912   7.652  0.2705  0.0309 -0.4364
  160SAPE   H9R17921   6.415   5.860   7.582 -2.4309 -1.6487 -2.0010
  160SAPE  C21017922   6.371   5.893   7.805  0.2788 -0.2787  0.4498
  160SAPE  H10R17923   6.277   5.863   7.855 -3.0547  1.6871 -3.8740
  160SAPE  H10S17924   6.406   5.991   7.843  0.6443 -0.3025  0.1850
  160SAPE  C21117925   6.478   5.788   7.839  0.1384  0.0252  0.3861
  160SAPE  H11R17926   6.539   5.755   7.754 -0.1027  2.6191 -0.8863
  160SAPE  C21217927   6.512   5.740   7.962 -0.2202  0.3160 -0.2924
  160SAPE  H12R17928   6.591   5.666   7.980 -0.6905  0.3000  2.0034
  160SAPE  C21317929   6.452   5.801   8.088  1.2534 -0.0650 -0.7211
  160SAPE  H13R17930   6.347   5.831   8.067  1.0635 -0.7387 -0.7602
  160SAPE  H13S17931   6.517   5.883   8.123  0.1453  0.9081 -0.8828
  160SAPE  C21417932   6.436   5.697   8.210 -0.8452  0.0784  0.6630
  160SAPE  H14R17933   6.351   5.627   8.208 -0.3042 -0.6200  1.3158
  160SAPE  C21517934   6.498   5.702   8.329 -0.3558  0.0789 -0.0872
  160SAPE  H15R17935   6.473   5.628   8.406  0.7416 -0.3323 -0.1068
  160SAPE  C21617936   6.616   5.795   8.371  0.0587  0.1534  0.5362
  160SAPE  H16R17937   6.580   5.861   8.452 -1.4005 -2.3743  2.0733
  160SAPE  H16S17938   6.643   5.868   8.292 -0.1559 -0.7319 -0.3816
  160SAPE  C21717939   6.741   5.713   8.418  0.1022  0.5489 -0.1514
  160SAPE  H17R17940   6.720   5.629   8.488  4.1085 -0.2105  0.3744
  160SAPE  H17S17941   6.806   5.787   8.468  0.8332 -2.1712  3.3344
  160SAPE  C21817942   6.823   5.639   8.300 -0.1635  0.4316 -0.3195
  160SAPE  H18R17943   6.762   5.560   8.251  2.6186 -1.4860 -0.9301
  160SAPE  H18S17944   6.913   5.588   8.341  0.1968  1.5864  0.3992
  160SAPE  C21917945   6.857   5.737   8.191 -0.1855 -0.4504  0.9077
  160SAPE  H19R17946   6.874   5.840   8.228  0.0022 -0.0812 -0.1788
  160SAPE  H19S17947   6.769   5.744   8.124  0.6252  0.7887 -0.0653
  160SAPE  C22017948   6.972   5.681   8.104  0.7567 -0.0596 -0.2879
  160SAPE  H20R17949   7.063   5.660   8.165  0.3245 -0.8709  0.0875
  160SAPE  H20S17950   7.012   5.761   8.038  2.6205  1.5024  2.5146
  160SAPE  H20T17951   6.940   5.592   8.047  2.4347 -1.3854  0.7204
  160SAPE   C3317952   5.752   6.834   7.072  0.2169  0.1026  0.5301
  160SAPE   H3X17953   5.672   6.846   7.147  0.6116  1.1290  0.7968
  160SAPE   H3Y17954   5.767   6.922   7.006 -1.4564 -0.5157 -0.7266
  160SAPE   C3417955   5.892   6.815   7.141 -0.5201  0.5199 -0.1076
  160SAPE   H4X17956   5.926   6.917   7.167  0.9554 -0.0895  0.4843
  160SAPE   H4Y17957   5.959   6.773   7.062 -0.9658 -0.3420 -0.0353
  160SAPE   C3517958   5.905   6.731   7.267  0.3481 -0.2470  0.7246
  160SAPE   H5X17959   6.010   6.722   7.300  0.3244 -0.5531  0.7272
  160SAPE   H5Y17960   5.873   6.631   7.230 -0.0672 -0.9863  2.9601
  160SAPE   C3617961   5.831   6.793   7.386 -0.8761  0.4833  0.4019
  160SAPE   H6X17962   5.722   6.794   7.362 -0.3253  0.7299 -2.3565
  160SAPE   H6Y17963   5.868   6.895   7.408  0.0572  0.1177  0.5950
  160SAPE   C3717964   5.861   6.707   7.509  0.6628 -0.0301 -0.2391
  160SAPE   H7X17965   5.849   6.598   7.492  2.4990 -0.1614 -0.9615
  160SAPE   H7Y17966   5.776   6.731   7.577  0.2233 -0.3147 -0.6790
  160SAPE   C3817967   5.984   6.741   7.594 -0.1575 -0.2709  0.3689
  160SAPE   H8X17968   5.989   6.851   7.613 -2.8854  0.7765 -3.5891
  160SAPE   H8Y17969   6.068   6.727   7.522 -0.1702 -0.3454  0.3674
  160SAPE   C3917970   5.997   6.660   7.722 -0.9208 -0.9725 -0.0048
  160SAPE   H9X17971   6.028   6.554   7.704  1.2847 -0.7927  2.3024
  160SAPE   H9Y17972   5.902   6.655   7.780 -0.8276 -0.3712  0.2062
  160SAPE  C31017973   6.107   6.712   7.818  0.5710  0.0916  0.6499
  160SAPE  H10X17974   6.085   6.821   7.826 -0.0962 -0.0556  0.8443
  160SAPE  H10Y17975   6.201   6.706   7.758 -0.4345  1.7052 -1.2369
  160SAPE  C31117976   6.130   6.655   7.964 -0.3990  1.2264  0.1079
  160SAPE  H11X17977   6.200   6.728   8.011 -2.2435  3.8266 -0.9740
  160SAPE  H11Y17978   6.175   6.554   7.954  1.0354  1.8757 -0.1648
  160SAPE  C31217979   5.999   6.640   8.046  0.0206 -0.1913 -0.7404
  160SAPE  H12X17980   5.933   6.566   7.996 -5.0506  2.7722  0.8571
  160SAPE  H12Y17981   5.941   6.734   8.038  0.3268  0.1304  0.5681
  160SAPE  C31317982   6.035   6.605   8.189 -0.1039 -0.1901  0.1234
  160SAPE  H13X17983   6.069   6.695   8.245  2.5130 -1.8033  1.3070
  160SAPE  H13Y17984   6.120   6.534   8.180  1.9930  2.2147 -0.3730
  160SAPE  C31417985   5.913   6.540   8.263  0.2165  0.9004  0.0692
  160SAPE  H14X17986   5.888   6.452   8.200  2.5519  2.1605 -2.8552
  160SAPE  H14Y17987   5.830   6.614   8.267 -0.9863 -0.3712 -0.2989
  160SAPE  C31517988   5.964   6.478   8.394  0.6168  0.0386  0.7339
  160SAPE  H15X17989   5.984   6.553   8.474 -2.7373 -1.1151  2.8927
  160SAPE  H15Y17990   6.052   6.413   8.375 -2.0174 -3.1212 -1.8265
  160SAPE  C31617991   5.859   6.385   8.457 -0.4522  0.1949 -0.1168
  160SAPE  H16X17992   5.834   6.300   8.391  0.8963  0.0157 -0.4206
  160SAPE  H16Y17993   5.777   6.460   8.464  0.3969  1.1234  0.2489
  160SAPE  C31717994   5.887   6.325   8.597 -0.3902 -0.4187  0.0074
  160SAPE  H17X17995   5.794   6.274   8.628 -0.9584 -0.0692 -1.0610
  160SAPE  H17Y17996   5.915   6.396   8.677  0.5738 -0.3908 -0.3402
  160SAPE  C31817997   6.009   6.233   8.587  0.0304 -0.4407 -0.0574
  160SAPE  H18X17998   6.106   6.278   8.556  2.0650 -2.6285  2.7238
  160SAPE  H18Y17999   5.984   6.148   8.520 -0.1030  0.6595 -1.4798
  160SAPE  H18Z18000   6.038   6.193   8.686 -1.6027 -0.0147  0.6185
  161SAPE     N18001   5.875   2.317   6.598  0.0716  0.0436  0.1991
  161SAPE   HN118002   5.907   2.399   6.542  0.8924 -0.9304 -0.8295
  161SAPE   HN218003   5.946   2.246   6.570  0.2620  0.2234  0.2250
  161SAPE   HN318004   5.783   2.279   6.568 -1.4056  1.8743  2.1400
  161SAPE   C1218005   5.873   2.341   6.747 -1.2508 -0.9059 -0.2778
  161SAPE  H12A18006   5.841   2.246   6.795  0.9634 -0.9080  1.3048
  161SAPE  H12B18007   5.792   2.416   6.764 -2.2478 -1.5873 -1.7563
  161SAPE   C1118008   6.013   2.384   6.801 -0.2398 -0.2931  0.4074
  161SAPE  H11A18009   6.071   2.289   6.799  1.3730  0.6274  1.2776
  161SAPE  H11B18010   6.017   2.408   6.909  0.9509 -0.6307  0.4513
  161SAPE     P18011   6.056   2.639   6.749 -0.2677  0.0826  0.0186
  161SAPE   O1318012   6.115   2.710   6.636 -0.5878 -0.3794 -0.2510
  161SAPE   O1418013   5.916   2.675   6.772 -0.0894  0.3397  0.4015
  161SAPE   O1218014   6.077   2.485   6.717 -0.0715 -0.2423  0.5519
  161SAPE   O1118015   6.137   2.671   6.880  0.3652 -0.5654 -0.2408
  161SAPE    C118016   6.272   2.631   6.876 -0.3872  0.2241  0.6917
  161SAPE    HA18017   6.299   2.542   6.815 -0.6611 -1.0578  2.3806
  161SAPE    HB18018   6.329   2.715   6.831 -0.6863  0.8983  1.5420
  161SAPE    C218019   6.322   2.604   7.021  0.4623  0.1616  0.6050
  161SAPE    HS18020   6.426   2.565   7.012  1.1949  1.7843  1.5511
  161SAPE   O2118021   6.244   2.504   7.080  0.1838  0.6186  0.1855
  161SAPE   C2118022   6.253   2.377   7.044  0.0830 -0.1632  0.7441
  161SAPE   O2218023   6.323   2.332   6.954 -0.2471 -0.1268  0.2710
  161SAPE   C2218024   6.144   2.293   7.115  0.3536  0.6795  0.1205
  161SAPE   H2R18025   6.086   2.368   7.174 -1.9811  0.1901 -1.4105
  161SAPE   H2S18026   6.089   2.253   7.027  1.5915 -0.0049 -0.3661
  161SAPE    C318027   6.326   2.733   7.112 -0.1209 -0.3152  0.0183
  161SAPE    HX18028   6.221   2.769   7.123 -0.2090 -0.4159 -0.4840
  161SAPE    HY18029   6.384   2.805   7.050 -0.2712 -0.0971  0.1258
  161SAPE   O3118030   6.383   2.703   7.242  0.5413 -0.3357  0.0505
  161SAPE   C3118031   6.293   2.696   7.340 -0.1232 -0.0299  0.0559
  161SAPE   O3218032   6.178   2.682   7.325  0.2753 -0.9618  0.0270
  161SAPE   C3218033   6.373   2.701   7.466 -0.5599 -0.5954  0.0395
  161SAPE   H2X18034   6.410   2.806   7.468  2.4067 -1.4655 -2.1493
  161SAPE   H2Y18035   6.456   2.631   7.446 -0.4472  0.2625 -2.9834
  161SAPE   C2318036   6.184   2.176   7.201  0.0103  0.3916  0.3365
  161SAPE   H3R18037   6.290   2.157   7.172 -0.4152 -0.8019 -0.4877
  161SAPE   H3S18038   6.113   2.095   7.175  0.4302 -0.0388  0.5196
  161SAPE   C2418039   6.157   2.205   7.347  0.2555 -0.0041  0.1131
  161SAPE   H4R18040   6.158   2.106   7.397  3.0065  0.5661  1.3681
  161SAPE   H4S18041   6.048   2.229   7.352 -0.0412 -1.4582  1.7810
  161SAPE   C2518042   6.245   2.314   7.400  0.4972  0.5545 -0.5270
  161SAPE   H5R18043   6.199   2.412   7.417 -0.5492  0.2835 -1.6368
  161SAPE   C2618044   6.376   2.303   7.432  0.6421 -0.0989  0.4501
  161SAPE   H6R18045   6.436   2.390   7.461 -1.5248  2.5412 -2.3446
  161SAPE   C2718046   6.461   2.174   7.422  0.2963 -0.7339  0.4164
  161SAPE   H7R18047   6.390   2.091   7.400 -0.3922 -0.6635  2.2266
  161SAPE   H7S18048   6.497   2.146   7.524 -0.7960  0.8826  1.2830
  161SAPE   C2818049   6.575   2.171   7.322  0.5001 -0.3796 -0.2478
  161SAPE   H8R18050   6.557   2.107   7.235  0.2890 -0.6874  0.0180
  161SAPE   C2918051   6.684   2.248   7.328 -0.0261  0.3232  0.1080
  161SAPE   H9R18052   6.764   2.226   7.255 -0.2544 -2.8716  0.6764
  161SAPE  C21018053   6.717   2.353   7.437 -0.8686  0.4886  0.0554
  161SAPE  H10R18054   6.816   2.324   7.477 -1.3142  0.0161  0.8561
  161SAPE  H10S18055   6.657   2.353   7.531  1.8507 -0.1173  1.9253
  161SAPE  C21118056   6.707   2.495   7.399  0.1332 -0.3446 -0.5014
  161SAPE  H11R18057   6.631   2.515   7.322 -2.5014  0.4248  2.1239
  161SAPE  C21218058   6.771   2.607   7.453 -0.1207  0.9680 -0.3636
  161SAPE  H12R18059   6.758   2.698   7.394 -1.2227  1.8589  1.1941
  161SAPE  C21318060   6.870   2.604   7.573  0.6694 -0.9710 -0.2645
  161SAPE  H13R18061   6.977   2.604   7.540  0.9921 -1.1825  0.7513
  161SAPE  H13S18062   6.862   2.500   7.612 -1.1119 -0.6844  0.2169
  161SAPE  C21418063   6.830   2.723   7.665  0.1343 -0.2529  0.2785
  161SAPE  H14R18064   6.736   2.777   7.650 -0.2186 -0.5947  1.1680
  161SAPE  C21518065   6.889   2.743   7.781  0.0980 -0.7093  0.4253
  161SAPE  H15R18066   6.855   2.827   7.844  3.2882  0.6841  0.4931
  161SAPE  C21618067   6.997   2.658   7.829 -0.3093 -0.1799 -0.1848
  161SAPE  H16R18068   7.090   2.699   7.786 -0.7755  1.3947  0.2415
  161SAPE  H16S18069   6.978   2.551   7.806 -0.8593 -0.1310  0.0283
  161SAPE  C21718070   7.002   2.665   7.978  0.2472 -0.0568 -0.0312
  161SAPE  H17R18071   6.914   2.627   8.033  1.4224  0.9495  2.7530
  161SAPE  H17S18072   7.030   2.766   8.016  2.6929 -1.4580  2.2665
  161SAPE  C21818073   7.117   2.581   8.030  0.0850  0.1724 -0.4915
  161SAPE  H18R18074   7.211   2.631   8.000  0.4120 -0.0640  0.1055
  161SAPE  H18S18075   7.108   2.477   7.991  1.6892  0.5353 -1.9333
  161SAPE  C21918076   7.107   2.586   8.186  0.4587  0.1778 -0.4435
  161SAPE  H19R18077   7.115   2.684   8.237 -3.2132  1.0901 -1.3938
  161SAPE  H19S18078   7.199   2.527   8.210  1.3122  1.3626 -0.7019
  161SAPE  C22018079   6.976   2.516   8.257 -0.9313 -0.4064  0.7000
  161SAPE  H20R18080   6.883   2.567   8.223 -0.6404 -0.3858 -0.0869
  161SAPE  H20S18081   6.993   2.523   8.366  2.5819  0.7631  0.1933
  161SAPE  H20T18082   6.972   2.409   8.226  2.6364  0.7087 -5.2990
  161SAPE   C3318083   6.287   2.668   7.587 -0.0839 -0.2049 -0.4178
  161SAPE   H3X18084   6.254   2.563   7.570 -4.3385  0.8627  0.2050
  161SAPE   H3Y18085   6.195   2.729   7.596  0.8850  1.3979 -1.0321
  161SAPE   C3418086   6.374   2.679   7.713 -0.2453 -0.0071 -0.6283
  161SAPE   H4X18087   6.405   2.785   7.713  1.0877 -0.2862 -3.8423
  161SAPE   H4Y18088   6.463   2.615   7.694  1.4055  2.0147 -0.0673
  161SAPE   C3518089   6.289   2.637   7.835  0.5510 -0.1308 -0.2245
  161SAPE   H5X18090   6.265   2.528   7.837 -0.8511  0.1462 -0.4960
  161SAPE   H5Y18091   6.185   2.673   7.821 -0.3784 -1.2214  3.0062
  161SAPE   C3618092   6.345   2.678   7.967  0.1390  0.1280 -0.4114
  161SAPE   H6X18093   6.374   2.785   7.968  2.2443 -0.3708  1.6666
  161SAPE   H6Y18094   6.439   2.621   7.986  1.0247  0.8196 -2.4832
  161SAPE   C3718095   6.248   2.658   8.082  0.4047 -0.2153  0.5783
  161SAPE   H7X18096   6.242   2.547   8.091 -1.0423 -0.0571  2.0855
  161SAPE   H7Y18097   6.150   2.704   8.059  0.8521  0.6051  0.2484
  161SAPE   C3818098   6.300   2.712   8.218  0.0844 -0.0326  0.1523
  161SAPE   H8X18099   6.224   2.695   8.297 -1.8831  2.5192 -1.0584
  161SAPE   H8Y18100   6.307   2.821   8.202  0.5021 -0.1307 -0.3623
  161SAPE   C3918101   6.442   2.667   8.258 -0.7576  1.0314  0.1369
  161SAPE   H9X18102   6.481   2.739   8.333 -2.1375  1.1741  0.7481
  161SAPE   H9Y18103   6.507   2.664   8.168 -2.6268 -0.8596 -1.2423
  161SAPE  C31018104   6.442   2.530   8.339 -0.0212  0.3899 -0.6530
  161SAPE  H10X18105   6.389   2.463   8.267 -0.2939 -1.1633  0.9365
  161SAPE  H10Y18106   6.372   2.524   8.425 -0.3100 -1.3426 -0.9682
  161SAPE  C31118107   6.579   2.483   8.382 -0.0414 -0.3986 -0.3329
  161SAPE  H11X18108   6.627   2.559   8.446  0.5101 -0.2590 -0.8997
  161SAPE  H11Y18109   6.645   2.480   8.292  0.1208 -0.3347 -0.2161
  161SAPE  C31218110   6.591   2.353   8.458  0.3447  0.0270 -0.7340
  161SAPE  H12X18111   6.532   2.353   8.552  3.0225 -0.6861  1.0880
  161SAPE  H12Y18112   6.692   2.357   8.505 -0.3868 -1.2933  1.0813
  161SAPE  C31318113   6.572   2.232   8.362 -0.6254 -0.3174 -0.6178
  161SAPE  H13X18114   6.653   2.240   8.287 -3.1436  2.3050 -3.3377
  161SAPE  H13Y18115   6.475   2.228   8.306 -1.1845  0.8025  0.2390
  161SAPE  C31418116   6.603   2.101   8.435 -0.1174 -0.4538 -0.4252
  161SAPE  H14X18117   6.680   2.113   8.513 -1.6549  0.5291  1.0172
  161SAPE  H14Y18118   6.655   2.026   8.372 -0.4404  0.6289 -2.0456
  161SAPE  C31518119   6.483   2.045   8.505  0.5449 -0.0009 -0.0985
  161SAPE  H15X18120   6.413   1.998   8.433 -1.0919  2.1782 -0.0389
  161SAPE  H15Y18121   6.429   2.131   8.550 -2.3108 -1.8213  0.2098
  161SAPE  C31618122   6.520   1.946   8.614 -0.3622  0.2310  0.0286
  161SAPE  H16X18123   6.561   2.010   8.695 -2.4220  0.5551  0.8730
  161SAPE  H16Y18124   6.598   1.881   8.568 -0.0330 -0.6963  1.8152
  161SAPE  C31718125   6.399   1.870   8.670  0.4722  0.0230 -0.3570
  161SAPE  H17X18126   6.322   1.950   8.681  0.3483 -0.1910  0.3749
  161SAPE  H17Y18127   6.433   1.827   8.766  0.9767 -0.6320 -0.8166
  161SAPE  C31818128   6.351   1.759   8.568  0.5470 -0.1616  0.0384
  161SAPE  H18X18129   6.441   1.699   8.545  0.0436 -0.4436 -1.3106
  161SAPE  H18Y18130   6.315   1.812   8.476  2.0412  1.5862  0.3867
  161SAPE  H18Z18131   6.272   1.694   8.609 -0.3311  1.8503  1.7235
  162SAPE     N18132   0.085   0.438   6.242  0.7144  0.7287  0.4395
  162SAPE   HN118133   0.165   0.451   6.308  0.5265 -0.5484  0.9516
  162SAPE   HN218134   0.010   0.509   6.259 -2.0642 -1.6518 -1.0800
  162SAPE   HN318135   0.045   0.345   6.265  0.4101  0.5889 -0.6089
  162SAPE   C1218136   0.139   0.448   6.101 -0.3631 -0.5776  0.1196
  162SAPE  H12A18137   0.201   0.540   6.091  0.6933 -1.2870 -0.0628
  162SAPE  H12B18138   0.057   0.462   6.027 -0.3580  0.4288  0.3007
  162SAPE   C1118139   0.232   0.323   6.063  0.2365 -0.1280  0.0027
  162SAPE  H11A18140   0.256   0.336   5.956  2.8790 -0.9276  0.4273
  162SAPE  H11B18141   0.172   0.234   6.090  0.5097 -0.7697 -1.4338
  162SAPE     P18142   0.487   0.346   6.080 -0.8350  0.2157 -0.2538
  162SAPE   O1318143   0.507   0.242   5.971  0.1228 -0.1338 -0.1908
  162SAPE   O1418144   0.513   0.487   6.050 -0.2438 -0.2098 -0.5492
  162SAPE   O1218145   0.349   0.320   6.142 -0.0603 -0.6667 -0.0464
  162SAPE   O1118146   0.592   0.308   6.195  0.4658  0.5108  0.5914
  162SAPE    C118147   0.572   0.206   6.290 -0.5787  0.0228 -0.2517
  162SAPE    HA18148   0.529   0.112   6.249 -0.2219 -0.1575 -0.2199
  162SAPE    HB18149   0.674   0.183   6.330 -0.1735  0.9355 -0.7397
  162SAPE    C218150   0.476   0.247   6.402  0.1384 -0.2109 -0.4608
  162SAPE    HS18151   0.382   0.246   6.343 -0.3009  1.9518  0.1007
  162SAPE   O2118152   0.503   0.385   6.432  0.1549  0.0625 -0.4007
  162SAPE   C2118153   0.397   0.459   6.467 -1.3775  0.3178  0.3654
  162SAPE   O2218154   0.283   0.433   6.442  0.2393 -0.1588  0.2913
  162SAPE   C2218155   0.442   0.594   6.519 -0.5953  0.7379  0.0647
  162SAPE   H2R18156   0.492   0.637   6.429  0.8742 -0.4940  0.2517
  162SAPE   H2S18157   0.362   0.653   6.568  1.8253  1.4674  3.5526
  162SAPE    C318158   0.472   0.158   6.519 -0.2829  0.5148  0.0382
  162SAPE    HX18159   0.573   0.170   6.563  0.0908  1.6157 -1.0642
  162SAPE    HY18160   0.473   0.050   6.492  2.8360  0.2007  1.0843
  162SAPE   O3118161   0.364   0.182   6.610 -0.4788  0.0629  0.5282
  162SAPE   C3118162   0.248   0.123   6.583 -0.1577 -0.3701  0.0269
  162SAPE   O3218163   0.225   0.049   6.484  0.1914 -0.6879  0.2846
  162SAPE   C3218164   0.163   0.132   6.707  0.3616 -0.5088  0.7277
  162SAPE   H2X18165   0.117   0.031   6.712  0.3439 -0.5954 -0.6506
  162SAPE   H2Y18166   0.086   0.209   6.685  0.7547  0.2412  1.9069
  162SAPE   C2318167   0.564   0.584   6.625  0.3416  0.0393  0.0488
  162SAPE   H3R18168   0.607   0.687   6.633 -0.7177  0.4877  0.1072
  162SAPE   H3S18169   0.652   0.524   6.592  0.4460  0.2259 -0.0204
  162SAPE   C2418170   0.526   0.565   6.775  0.3666 -0.1667  0.1492
  162SAPE   H4R18171   0.456   0.479   6.781  0.3327 -0.0624  1.7481
  162SAPE   H4S18172   0.478   0.656   6.818  0.3531  0.1342 -0.4886
  162SAPE   C2518173   0.648   0.546   6.866  0.6512 -0.6866  0.2262
  162SAPE   H5R18174   0.742   0.530   6.811  0.6845 -2.6807  0.7605
  162SAPE   C2618175   0.644   0.557   7.003  0.3230  0.1141 -0.1501
  162SAPE   H6R18176   0.730   0.533   7.068 -1.4128 -1.3848  1.7398
  162SAPE   C2718177   0.518   0.589   7.089  0.0748 -0.5420 -0.6373
  162SAPE   H7R18178   0.427   0.616   7.031 -0.4306 -1.7226 -0.4153
  162SAPE   H7S18179   0.550   0.679   7.146  0.1391 -1.6449  1.1179
  162SAPE   C2818180   0.478   0.479   7.181 -0.7002  0.2643 -0.3639
  162SAPE   H8R18181   0.405   0.412   7.134 -1.2171  0.1573  0.5645
  162SAPE   C2918182   0.522   0.457   7.312  0.4074 -0.8332  0.8479
  162SAPE   H9R18183   0.474   0.379   7.374  0.5440 -0.4487  1.4373
  162SAPE  C21018184   0.605   0.542   7.402  0.6292  0.5299 -0.3950
  162SAPE  H10R18185   0.660   0.611   7.335 -0.4753 -0.7008 -2.6613
  162SAPE  H10S18186   0.682   0.475   7.445  0.5218 -0.3847 -1.6025
  162SAPE  C21118187   0.532   0.625   7.509  0.6024  0.0622 -0.8622
  162SAPE  H11R18188   0.487   0.720   7.478  0.0430 -0.2443 -1.0120
  162SAPE  C21218189   0.519   0.593   7.642 -0.2394 -0.2002 -0.1874
  162SAPE  H12R18190   0.473   0.661   7.716 -1.6638 -2.0309  0.6767
  162SAPE  C21318191   0.565   0.470   7.709 -0.6787 -0.0388  0.2191
  162SAPE  H13R18192   0.670   0.481   7.744 -0.6806  1.4880 -0.1809
  162SAPE  H13S18193   0.576   0.382   7.642 -0.2163  0.4436 -0.3602
  162SAPE  C21418194   0.480   0.423   7.828 -0.1614 -0.4108  0.6896
  162SAPE  H14R18195   0.391   0.371   7.790 -0.2977 -1.2957  2.1437
  162SAPE  C21518196   0.509   0.447   7.957 -0.0054 -0.2321  0.0681
  162SAPE  H15R18197   0.438   0.401   8.028 -1.1356  0.7016 -0.4171
  162SAPE  C21618198   0.627   0.526   8.009  0.0739 -0.1053 -0.4080
  162SAPE  H16R18199   0.611   0.635   7.993  2.9211 -0.0205 -3.9903
  162SAPE  H16S18200   0.723   0.504   7.957 -0.9108 -2.0494 -1.4988
  162SAPE  C21718201   0.650   0.494   8.154  0.1514  0.1057 -1.0383
  162SAPE  H17R18202   0.745   0.547   8.179  0.6938 -1.6331  0.8713
  162SAPE  H17S18203   0.677   0.387   8.155 -2.1767 -0.5667  1.5742
  162SAPE  C21818204   0.542   0.534   8.261 -0.8032 -0.1379  0.6861
  162SAPE  H18R18205   0.588   0.494   8.354 -0.1102  1.2384  0.9692
  162SAPE  H18S18206   0.454   0.472   8.235 -0.2049 -0.9116  0.4706
  162SAPE  C21918207   0.495   0.683   8.271 -0.3379  0.5246  0.1953
  162SAPE  H19R18208   0.453   0.725   8.177  1.1963  0.6457 -0.4847
  162SAPE  H19S18209   0.584   0.742   8.304 -0.3098  0.9152 -0.5408
  162SAPE  C22018210   0.395   0.696   8.389 -0.0756  0.1913 -0.3983
  162SAPE  H20R18211   0.293   0.652   8.379 -0.7590  1.4168  0.8279
  162SAPE  H20S18212   0.366   0.801   8.414 -0.6493 -0.8626  4.3078
  162SAPE  H20T18213   0.432   0.654   8.485  0.6783 -1.2315 -1.2902
  162SAPE   C3318214   0.234   0.169   6.837  0.1750  0.1926  0.2790
  162SAPE   H3X18215   0.290   0.263   6.817 -0.6152  0.3502 -1.2709
  162SAPE   H3Y18216   0.305   0.084   6.850 -0.0346  0.0684  0.6271
  162SAPE   C3418217   0.143   0.180   6.955 -0.1485 -0.6448 -0.0799
  162SAPE   H4X18218   0.080   0.088   6.958 -0.8285 -0.1690  0.8925
  162SAPE   H4Y18219   0.060   0.252   6.942 -0.1391 -0.7182 -0.5496
  162SAPE   C3518220   0.219   0.199   7.083 -0.3662  1.1210 -0.1883
  162SAPE   H5X18221   0.258   0.303   7.087  2.3408  0.1496  3.1028
  162SAPE   H5Y18222   0.311   0.137   7.084 -1.1470 -0.0653  0.2919
  162SAPE   C3618223   0.137   0.162   7.217  0.4549 -0.1607  0.0066
  162SAPE   H6X18224   0.085   0.070   7.180 -1.6056  1.0025 -0.1532
  162SAPE   H6Y18225   0.081   0.255   7.238  0.8322  0.0728 -0.0173
  162SAPE   C3718226   0.230   0.139   7.333 -0.0869  0.0399 -0.4066
  162SAPE   H7X18227   0.281   0.234   7.360 -0.4156  0.2361 -0.4729
  162SAPE   H7Y18228   0.316   0.075   7.303 -0.4375 -0.9429  0.6001
  162SAPE   C3818229   0.175   0.081   7.466  0.0908  0.7019  0.4559
  162SAPE   H8X18230   0.109  -0.007   7.450 -0.9066  1.6702 -1.0890
  162SAPE   H8Y18231   0.107   0.163   7.500 -0.4404  0.6880 -0.5200
  162SAPE   C3918232   0.285   0.061   7.561 -0.3642  0.0844  0.8436
  162SAPE   H9X18233   0.371   0.124   7.530 -1.7032  0.9404 -1.3272
  162SAPE   H9Y18234   0.311  -0.046   7.546 -0.4473  0.0415  1.0028
  162SAPE  C31018235   0.257   0.094   7.708  0.5278  0.5707  0.3116
  162SAPE  H10X18236   0.158   0.048   7.724 -0.2177  2.1444  0.3915
  162SAPE  H10Y18237   0.251   0.203   7.728 -2.3752  0.1724  2.1146
  162SAPE  C31118238   0.352   0.033   7.810 -0.7795  0.2400  0.2235
  162SAPE  H11X18239   0.449   0.087   7.806  0.5290 -1.9483  0.5992
  162SAPE  H11Y18240   0.372  -0.074   7.786 -0.7479  0.1013  0.8443
  162SAPE  C31218241   0.291   0.038   7.954  0.1040  0.3067  0.1554
  162SAPE  H12X18242   0.190  -0.005   7.966  1.3768 -2.2945  2.5776
  162SAPE  H12Y18243   0.270   0.141   7.992  1.6739  0.4276  0.7923
  162SAPE  C31318244   0.385  -0.035   8.046 -0.6980  0.4981 -0.9890
  162SAPE  H13X18245   0.490  -0.001   8.034 -0.1743 -0.8828 -0.4880
  162SAPE  H13Y18246   0.381  -0.146   8.035 -3.4563  0.5794 -1.4466
  162SAPE  C31418247   0.358   0.001   8.197  0.4899 -0.6963  0.3218
  162SAPE  H14X18248   0.249  -0.004   8.219  0.3081 -0.9222 -0.5684
  162SAPE  H14Y18249   0.384   0.107   8.217  1.3690 -0.8214 -0.1357
  162SAPE  C31518250   0.433  -0.096   8.294 -0.8175  0.1602 -0.4982
  162SAPE  H15X18251   0.452  -0.035   8.384 -1.7218 -1.7829  1.0933
  162SAPE  H15Y18252   0.531  -0.118   8.246 -0.7987 -1.6872  0.3102
  162SAPE  C31618253   0.344  -0.214   8.334  0.3143  0.8415  0.5579
  162SAPE  H16X18254   0.316  -0.275   8.246  1.9159 -2.6126  2.2251
  162SAPE  H16Y18255   0.248  -0.187   8.385 -1.3635 -0.6450 -1.6209
  162SAPE  C31718256   0.423  -0.317   8.426  0.0774 -0.9667 -0.0013
  162SAPE  H17X18257   0.508  -0.361   8.371  0.5244  0.2473 -0.3148
  162SAPE  H17Y18258   0.351  -0.398   8.448  0.1372 -1.1051 -0.3165
  162SAPE  C31818259   0.468  -0.242   8.555 -0.5702  0.1006 -0.5311
  162SAPE  H18X18260   0.527  -0.316   8.614  1.6792  1.4775 -0.9375
  162SAPE  H18Y18261   0.388  -0.204   8.623 -1.0203 -0.3132 -0.8228
  162SAPE  H18Z18262   0.532  -0.155   8.529  0.2892 -0.8579 -1.7072
  163SAPE     N18263   4.700   3.989   6.177  0.4193 -0.4617 -0.4970
  163SAPE   HN118264   4.788   3.953   6.134  0.5997  0.0022 -0.5212
  163SAPE   HN218265   4.631   4.026   6.109 -1.0176  1.4034  1.8038
  163SAPE   HN318266   4.740   4.056   6.245  4.0373 -3.4562  0.6654
  163SAPE   C1218267   4.655   3.883   6.279 -0.2035  0.8226 -0.4867
  163SAPE  H12A18268   4.749   3.861   6.334  1.0207  0.6309 -2.5486
  163SAPE  H12B18269   4.628   3.790   6.225 -0.9634  1.2584 -0.8672
  163SAPE   C1118270   4.540   3.925   6.378  0.2857 -0.0767 -0.0062
  163SAPE  H11A18271   4.541   3.869   6.474  0.9144  1.8626  1.1925
  163SAPE  H11B18272   4.451   3.889   6.323  0.8232  0.3957 -1.2119
  163SAPE     P18273   4.437   4.150   6.476 -0.0814 -0.4037 -0.1818
  163SAPE   O1318274   4.496   4.288   6.472 -0.7289  0.4131  0.5641
  163SAPE   O1418275   4.303   4.123   6.418 -0.0373 -0.7257  0.4364
  163SAPE   O1218276   4.544   4.063   6.398 -0.1457 -0.3326  0.3322
  163SAPE   O1118277   4.431   4.092   6.624  0.3787 -0.3812  0.0922
  163SAPE    C118278   4.527   4.114   6.720 -1.0244  0.2177  0.5269
  163SAPE    HA18279   4.631   4.128   6.683 -1.0859 -1.7131 -0.5230
  163SAPE    HB18280   4.508   4.208   6.776  2.6703  1.0060  0.6965
  163SAPE    C218281   4.530   4.001   6.826  0.3522 -0.3653  0.2411
  163SAPE    HS18282   4.520   3.914   6.758 -1.0873  0.4659 -0.6723
  163SAPE   O2118283   4.413   4.026   6.911 -0.3533 -0.4120  0.7410
  163SAPE   C2118284   4.337   3.919   6.925  0.1185 -0.9218 -0.1866
  163SAPE   O2218285   4.352   3.815   6.864  0.5599  0.3013  0.8077
  163SAPE   C2218286   4.216   3.965   7.018 -0.8911  0.3444 -0.4160
  163SAPE   H2R18287   4.250   4.000   7.118 -0.4102 -0.8958 -0.1154
  163SAPE   H2S18288   4.185   4.055   6.961  0.3207  1.0500  0.0147
  163SAPE    C318289   4.656   4.018   6.911  0.5392  0.6356 -0.4213
  163SAPE    HX18290   4.690   4.124   6.914  1.0316  0.4801 -0.3380
  163SAPE    HY18291   4.734   3.965   6.853  0.2371  0.1019 -0.3525
  163SAPE   O3118292   4.645   3.953   7.045  0.2578  0.5225  0.3581
  163SAPE   C3118293   4.681   3.821   7.054  0.0663  0.0521 -0.3026
  163SAPE   O3218294   4.744   3.759   6.971  0.1694  0.1629 -0.5029
  163SAPE   C3218295   4.633   3.755   7.182 -0.6388  0.1367 -0.2276
  163SAPE   H2X18296   4.590   3.655   7.166 -0.2802 -0.0586 -0.0030
  163SAPE   H2Y18297   4.555   3.822   7.225 -1.1580 -0.9023  0.4718
  163SAPE   C2318298   4.092   3.880   7.025  0.5061 -0.1734  0.4307
  163SAPE   H3R18299   4.061   3.831   6.930  0.9652 -0.0447  0.2128
  163SAPE   H3S18300   4.007   3.949   7.048  2.6282  2.4770  0.8180
  163SAPE   C2418301   4.110   3.775   7.134  0.2311 -0.2407 -0.2207
  163SAPE   H4R18302   4.011   3.730   7.158 -0.4944  1.0296 -0.7866
  163SAPE   H4S18303   4.141   3.817   7.232 -0.2832  0.0252 -0.1712
  163SAPE   C2518304   4.202   3.660   7.106  0.1704 -0.0473 -0.4543
  163SAPE   H5R18305   4.218   3.636   7.000 -0.0048 -0.0373 -0.4821
  163SAPE   C2618306   4.257   3.578   7.199 -0.6508  0.0406  0.1256
  163SAPE   H6R18307   4.309   3.490   7.159 -3.0890 -1.8457  0.8823
  163SAPE   C2718308   4.251   3.586   7.352  0.4386 -0.0555  0.3368
  163SAPE   H7R18309   4.211   3.683   7.387  0.6809 -0.5751  2.1258
  163SAPE   H7S18310   4.348   3.576   7.405 -0.2629  0.0478  1.6753
  163SAPE   C2818311   4.153   3.485   7.399 -0.6916 -0.4748  0.5366
  163SAPE   H8R18312   4.128   3.414   7.320 -0.8398  1.8353 -1.6085
  163SAPE   C2918313   4.112   3.472   7.526 -0.1880  0.1956  0.2514
  163SAPE   H9R18314   4.055   3.382   7.551  0.1174 -0.3089 -0.8080
  163SAPE  C21018315   4.142   3.575   7.626  0.0909 -0.1335  0.1518
  163SAPE  H10R18316   4.177   3.673   7.588  0.8055  0.1608  1.5010
  163SAPE  H10S18317   4.227   3.532   7.683  0.1386 -0.7287 -0.3575
  163SAPE  C21118318   4.018   3.594   7.715  0.4861 -0.6361  0.5522
  163SAPE  H11R18319   3.935   3.653   7.673  0.4073  0.1534  1.7666
  163SAPE  C21218320   4.002   3.554   7.839 -0.8663 -0.5137  0.0647
  163SAPE  H12R18321   3.901   3.573   7.878 -2.8726 -1.0861 -4.1896
  163SAPE  C21318322   4.096   3.480   7.928 -0.5196 -0.0002 -0.3799
  163SAPE  H13R18323   4.164   3.553   7.977  0.4118 -1.4381  0.5675
  163SAPE  H13S18324   4.165   3.411   7.875  1.8776  1.5377  0.5827
  163SAPE  C21418325   4.027   3.399   8.033 -0.0850  0.4796 -0.1406
  163SAPE  H14R18326   3.927   3.362   8.006 -1.2131  2.6104  0.9044
  163SAPE  C21518327   4.070   3.393   8.167 -0.6287  0.2363  0.0918
  163SAPE  H15R18328   4.009   3.349   8.246  0.6530 -1.4651  0.1943
  163SAPE  C21618329   4.191   3.460   8.229 -0.0619  0.1501  0.2780
  163SAPE  H16R18330   4.207   3.562   8.190  0.4046  0.6855  1.7868
  163SAPE  H16S18331   4.271   3.390   8.195 -1.2727 -0.7378 -0.8426
  163SAPE  C21718332   4.182   3.464   8.381 -0.4346  0.5455 -0.1752
  163SAPE  H17R18333   4.130   3.373   8.417 -1.6289  0.7588 -1.3079
  163SAPE  H17S18334   4.117   3.551   8.407 -0.9225  0.1348 -0.0124
  163SAPE  C21818335   4.320   3.462   8.451 -0.4430 -0.4979  0.4688
  163SAPE  H18R18336   4.316   3.431   8.558 -0.7400 -0.9866  0.3204
  163SAPE  H18S18337   4.336   3.572   8.455  0.8616 -0.6207 -0.7861
  163SAPE  C21918338   4.439   3.385   8.391  0.1899  0.6695  0.1034
  163SAPE  H19R18339   4.461   3.414   8.286  0.2074 -0.9448 -0.3638
  163SAPE  H19S18340   4.408   3.278   8.389  0.0579  0.6832 -2.9919
  163SAPE  C22018341   4.565   3.400   8.479  0.3516  0.0664 -0.2439
  163SAPE  H20R18342   4.633   3.315   8.456 -0.7567 -0.9340  0.0635
  163SAPE  H20S18343   4.535   3.392   8.585 -0.2867  0.8415 -0.3562
  163SAPE  H20T18344   4.627   3.491   8.464  0.9327 -0.0255  1.4120
  163SAPE   C3318345   4.746   3.750   7.289 -0.6940 -1.3427 -0.2945
  163SAPE   H3X18346   4.792   3.850   7.305 -0.9068 -1.2491 -0.2522
  163SAPE   H3Y18347   4.827   3.677   7.269 -1.3580 -2.2778  0.3438
  163SAPE   C3418348   4.678   3.706   7.414  0.3142 -0.1071  1.0343
  163SAPE   H4X18349   4.610   3.621   7.392 -1.1876  1.0006  1.2447
  163SAPE   H4Y18350   4.618   3.796   7.441  1.2481  0.7180  0.4433
  163SAPE   C3518351   4.765   3.676   7.532  0.0362 -0.3217 -0.1261
  163SAPE   H5X18352   4.843   3.752   7.551  0.1873 -0.2528 -0.9766
  163SAPE   H5Y18353   4.818   3.579   7.519  0.5528  0.2653 -3.2349
  163SAPE   C3618354   4.683   3.656   7.667 -0.0168  0.0914 -0.1374
  163SAPE   H6X18355   4.618   3.746   7.675 -0.5872 -0.2867 -0.4510
  163SAPE   H6Y18356   4.764   3.657   7.744  0.8359 -2.3198 -0.9068
  163SAPE   C3718357   4.595   3.526   7.685  0.2066 -0.4067 -0.1562
  163SAPE   H7X18358   4.638   3.431   7.649 -0.5838 -1.5910  1.8849
  163SAPE   H7Y18359   4.503   3.537   7.623  1.2067 -1.2766 -1.8577
  163SAPE   C3818360   4.558   3.512   7.834  0.7286 -0.2786  0.5370
  163SAPE   H8X18361   4.506   3.416   7.854  0.9714 -0.6220 -0.4236
  163SAPE   H8Y18362   4.492   3.598   7.861  0.9594  0.0129  0.1766
  163SAPE   C3918363   4.671   3.515   7.937  0.0292  0.1877 -0.6156
  163SAPE   H9X18364   4.627   3.500   8.038  0.4388  0.0601 -0.4532
  163SAPE   H9Y18365   4.738   3.603   7.937  0.0493  0.1896  0.5787
  163SAPE  C31018366   4.769   3.398   7.911  0.4581 -0.1429  0.3633
  163SAPE  H10X18367   4.807   3.407   7.807 -0.0287 -0.5647  0.1429
  163SAPE  H10Y18368   4.711   3.303   7.912  0.2716 -0.0390 -0.1084
  163SAPE  C31118369   4.885   3.370   8.015 -0.3675 -0.4399  0.5217
  163SAPE  H11X18370   4.971   3.438   7.999  1.0509 -2.1021  0.8435
  163SAPE  H11Y18371   4.916   3.264   7.999 -1.1674 -1.0993  2.8599
  163SAPE  C31218372   4.841   3.372   8.163  0.3780  0.7364  0.4980
  163SAPE  H12X18373   4.742   3.322   8.158  1.6355 -1.8396 -0.5819
  163SAPE  H12Y18374   4.830   3.470   8.215  0.9337  0.9381  0.2383
  163SAPE  C31318375   4.935   3.275   8.231  0.1019  0.1681 -0.3190
  163SAPE  H13X18376   4.922   3.170   8.194 -0.9420  0.5412 -1.0640
  163SAPE  H13Y18377   4.892   3.273   8.333  1.9250  1.6219  0.5295
  163SAPE  C31418378   5.083   3.326   8.230 -0.0265 -1.0085 -0.5352
  163SAPE  H14X18379   5.094   3.418   8.291 -2.0634  0.7185 -2.6222
  163SAPE  H14Y18380   5.111   3.352   8.126 -1.3755  0.6553 -0.5151
  163SAPE  C31518381   5.191   3.231   8.289  0.1673  0.2021 -0.5466
  163SAPE  H15X18382   5.203   3.134   8.237  1.4442 -3.0581  4.9254
  163SAPE  H15Y18383   5.162   3.193   8.390  0.3335 -3.2634 -1.6551
  163SAPE  C31618384   5.333   3.282   8.280 -0.2055  0.1691 -0.8549
  163SAPE  H16X18385   5.362   3.273   8.173  1.3659 -1.4130 -0.3535
  163SAPE  H16Y18386   5.400   3.208   8.328 -0.9067 -0.2523 -0.5177
  163SAPE  C31718387   5.353   3.414   8.357 -0.5584 -0.1856  0.3314
  163SAPE  H17X18388   5.272   3.487   8.336  0.6987  1.2036  0.1878
  163SAPE  H17Y18389   5.447   3.457   8.318  0.6192 -2.8091  0.0294
  163SAPE  C31818390   5.340   3.395   8.505 -0.6703 -1.0468  0.0080
  163SAPE  H18X18391   5.235   3.371   8.535 -0.0358 -1.0426  2.3734
  163SAPE  H18Y18392   5.362   3.490   8.558 -0.7352 -1.2037  0.3181
  163SAPE  H18Z18393   5.408   3.317   8.545  1.2759  1.5399  2.0865
  164SAPE     N18394   2.250   1.099   6.101 -1.4701  0.1239 -0.1427
  164SAPE   HN118395   2.272   1.074   6.003 -3.8608  1.0746 -1.0059
  164SAPE   HN218396   2.199   1.021   6.149 -1.4554 -0.3577 -0.8875
  164SAPE   HN318397   2.193   1.185   6.102  0.7235  1.6522  0.3190
  164SAPE   C1218398   2.372   1.124   6.192  0.4343  0.5531  0.4787
  164SAPE  H12A18399   2.348   1.123   6.301 -1.7958 -2.1815  0.0937
  164SAPE  H12B18400   2.422   1.216   6.156  3.6083 -0.6716  1.4394
  164SAPE   C1118401   2.464   1.000   6.189 -0.3107 -0.2019 -0.1703
  164SAPE  H11A18402   2.551   1.003   6.257  0.9463 -1.4703 -1.6350
  164SAPE  H11B18403   2.504   0.990   6.086  1.1710 -1.0918  0.4624
  164SAPE     P18404   2.420   0.740   6.162 -0.2275 -0.5235 -0.0153
  164SAPE   O1318405   2.331   0.736   6.046  0.0271  0.1517 -0.1246
  164SAPE   O1418406   2.564   0.727   6.144 -0.1528 -0.8983  0.2197
  164SAPE   O1218407   2.398   0.883   6.230 -0.1890 -0.3367  0.0853
  164SAPE   O1118408   2.366   0.630   6.260  0.1213  0.0856 -0.1897
  164SAPE    C118409   2.262   0.651   6.364 -0.3907  0.4717  0.3569
  164SAPE    HA18410   2.218   0.753   6.351  0.2885  1.1076  2.5863
  164SAPE    HB18411   2.176   0.582   6.354 -1.0350  1.2866  0.1200
  164SAPE    C218412   2.329   0.637   6.512 -0.2195  0.2586 -0.3077
  164SAPE    HS18413   2.255   0.654   6.594 -0.2881 -2.2381  0.2359
  164SAPE   O2118414   2.431   0.736   6.534 -0.5079 -0.1392  0.4535
  164SAPE   C2118415   2.385   0.863   6.535 -0.1144 -0.6723  0.6883
  164SAPE   O2218416   2.264   0.894   6.534  0.2029  0.1302  0.3550
  164SAPE   C2218417   2.493   0.963   6.546  0.6300  0.3365  0.6644
  164SAPE   H2R18418   2.546   0.962   6.449 -2.5642  0.6386 -1.2222
  164SAPE   H2S18419   2.444   1.063   6.550 -1.2456 -0.4786 -0.6583
  164SAPE    C318420   2.380   0.496   6.530 -0.5621 -0.5552  0.4796
  164SAPE    HX18421   2.439   0.464   6.441 -0.8737  0.7855 -0.2337
  164SAPE    HY18422   2.287   0.435   6.532 -0.2312 -1.0674  0.3308
  164SAPE   O3118423   2.449   0.471   6.649  0.1011  0.4009 -0.6434
  164SAPE   C3118424   2.583   0.480   6.648 -0.5898 -0.2539  0.6778
  164SAPE   O3218425   2.653   0.502   6.550  0.0308 -0.2616 -0.2646
  164SAPE   C3218426   2.641   0.489   6.791  0.0473  0.2877  0.2657
  164SAPE   H2X18427   2.633   0.389   6.839  1.1849  0.5891  1.1262
  164SAPE   H2Y18428   2.570   0.546   6.854  0.1221 -1.3983  1.9859
  164SAPE   C2318429   2.573   0.947   6.678  0.4311  0.4629 -0.2709
  164SAPE   H3R18430   2.665   1.010   6.669 -0.4405  1.6081 -1.4288
  164SAPE   H3S18431   2.603   0.840   6.679  0.2667  0.3344 -2.8908
  164SAPE   C2418432   2.499   1.008   6.795 -0.1376 -0.0043  0.8287
  164SAPE   H4R18433   2.459   1.108   6.766  1.3903  0.9017  1.7036
  164SAPE   H4S18434   2.575   1.038   6.870 -0.9233 -1.0135  2.0548
  164SAPE   C2518435   2.409   0.915   6.859  0.0086  0.1918  1.3363
  164SAPE   H5R18436   2.326   0.879   6.797 -1.0557  2.8301  1.0900
  164SAPE   C2618437   2.389   0.885   6.985 -0.1685  0.1542  0.4457
  164SAPE   H6R18438   2.334   0.791   7.001 -2.2559  1.1874 -0.2652
  164SAPE   C2718439   2.465   0.938   7.100  0.6637  0.1504 -0.2500
  164SAPE   H7R18440   2.574   0.943   7.081  1.0675 -1.3391  1.3757
  164SAPE   H7S18441   2.444   0.861   7.178  1.0671 -0.7271 -0.9916
  164SAPE   C2818442   2.404   1.078   7.121  0.1829 -0.1553  0.0950
  164SAPE   H8R18443   2.430   1.154   7.046 -0.4391  0.1360  0.1649
  164SAPE   C2918444   2.330   1.109   7.229  0.2271  0.0603 -0.3781
  164SAPE   H9R18445   2.294   1.212   7.246 -2.1039 -0.7785  0.1481
  164SAPE  C21018446   2.307   1.014   7.346 -0.5365 -0.3346  0.6889
  164SAPE  H10R18447   2.404   0.961   7.360  0.0762  0.8719  1.1679
  164SAPE  H10S18448   2.228   0.949   7.304 -2.4520  0.7586  2.4207
  164SAPE  C21118449   2.254   1.076   7.470 -0.0347 -0.5466 -0.4387
  164SAPE  H11R18450   2.196   1.169   7.463 -1.3763 -1.0545  2.5011
  164SAPE  C21218451   2.270   1.023   7.596 -0.8636 -0.0928  1.0180
  164SAPE  H12R18452   2.229   1.082   7.679 -3.0800  0.3080 -0.2608
  164SAPE  C21318453   2.344   0.896   7.644 -0.0173  0.1408 -0.1101
  164SAPE  H13R18454   2.346   0.813   7.570  1.7336 -1.2246  1.3739
  164SAPE  H13S18455   2.288   0.858   7.732 -0.4061 -0.5141 -0.6306
  164SAPE  C21418456   2.487   0.916   7.684  0.4713  0.2103  0.3227
  164SAPE  H14R18457   2.556   0.909   7.599 -0.6617  0.3534 -0.6363
  164SAPE  C21518458   2.529   0.964   7.806 -1.5832  0.1764 -0.4525
  164SAPE  H15R18459   2.637   0.982   7.813 -1.5029 -0.6928  0.9737
  164SAPE  C21618460   2.439   0.991   7.922  0.4852 -0.0288  0.4643
  164SAPE  H16R18461   2.440   0.908   7.996 -0.9035  0.4882  1.1009
  164SAPE  H16S18462   2.335   1.012   7.891 -0.0434  0.8649  2.6577
  164SAPE  C21718463   2.488   1.115   8.006  0.3890 -0.2158 -0.1728
  164SAPE  H17R18464   2.407   1.149   8.073 -0.3884 -2.9929  0.4450
  164SAPE  H17S18465   2.508   1.193   7.930  1.0771 -1.1842 -1.0270
  164SAPE  C21818466   2.609   1.074   8.090 -0.3414 -0.5209  0.3747
  164SAPE  H18R18467   2.704   1.071   8.032 -0.7506  0.4962 -0.3764
  164SAPE  H18S18468   2.589   0.977   8.141  1.1322 -1.7996 -1.3686
  164SAPE  C21918469   2.631   1.184   8.195  0.0689  0.4342 -0.4727
  164SAPE  H19R18470   2.536   1.191   8.251 -1.9581 -2.2995 -3.1821
  164SAPE  H19S18471   2.648   1.284   8.150  0.7320 -0.1521 -1.5639
  164SAPE  C22018472   2.751   1.163   8.290  0.0960  0.1156  0.3018
  164SAPE  H20R18473   2.735   1.067   8.344  0.6998 -0.3013 -0.2448
  164SAPE  H20S18474   2.761   1.240   8.370  0.3618  0.8058 -0.3779
  164SAPE  H20T18475   2.835   1.151   8.218 -0.8705  0.5310 -0.9178
  164SAPE   C3318476   2.793   0.532   6.805  0.0495 -0.0459 -0.1804
  164SAPE   H3X18477   2.803   0.640   6.781 -0.0623 -0.0346 -0.1775
  164SAPE   H3Y18478   2.852   0.474   6.731  0.7167  1.6963 -1.0875
  164SAPE   C3418479   2.854   0.492   6.934 -0.4619 -0.0417 -0.1828
  164SAPE   H4X18480   2.964   0.478   6.926 -0.2402 -0.4010  2.5148
  164SAPE   H4Y18481   2.811   0.404   6.987  1.1862 -0.0348  1.2875
  164SAPE   C3518482   2.843   0.606   7.046 -1.0386  0.7290  0.2777
  164SAPE   H5X18483   2.872   0.699   6.994  1.4610  0.6240  1.3223
  164SAPE   H5Y18484   2.925   0.583   7.117 -0.7009  0.0759 -0.3024
  164SAPE   C3618485   2.716   0.614   7.129  0.4714  0.0248 -0.4566
  164SAPE   H6X18486   2.695   0.521   7.187 -0.8508  0.3964 -0.3058
  164SAPE   H6Y18487   2.628   0.643   7.069  0.8280  2.8475  0.2616
  164SAPE   C3718488   2.733   0.733   7.235  0.0407  0.4852  0.1181
  164SAPE   H7X18489   2.724   0.834   7.190  0.5277  0.3598 -0.2738
  164SAPE   H7Y18490   2.840   0.746   7.262 -0.2489  2.8499  0.3522
  164SAPE   C3818491   2.639   0.720   7.356  0.1218 -0.2122 -0.4464
  164SAPE   H8X18492   2.533   0.708   7.325  0.0755 -1.5329  0.1431
  164SAPE   H8Y18493   2.641   0.818   7.408  0.3175 -0.2267 -0.4277
  164SAPE   C3918494   2.669   0.610   7.460  0.3482 -0.4647 -0.0949
  164SAPE   H9X18495   2.643   0.512   7.416  0.1152 -0.3105 -0.2979
  164SAPE   H9Y18496   2.604   0.627   7.548 -1.6664 -1.6158 -1.2975
  164SAPE  C31018497   2.817   0.612   7.513 -0.6549  0.6348  0.1963
  164SAPE  H10X18498   2.837   0.720   7.531  0.0064  0.8562 -1.6762
  164SAPE  H10Y18499   2.898   0.580   7.443 -1.5022  2.7874 -1.9089
  164SAPE  C31118500   2.841   0.526   7.645  0.0681 -0.4412  0.5155
  164SAPE  H11X18501   2.946   0.525   7.682 -0.0394 -2.8479  0.9296
  164SAPE  H11Y18502   2.840   0.419   7.615 -0.0997 -0.3694  0.2623
  164SAPE  C31218503   2.746   0.557   7.754 -0.0017  0.3537  0.9943
  164SAPE  H12X18504   2.649   0.509   7.728  0.7523  0.2070 -1.8755
  164SAPE  H12Y18505   2.721   0.665   7.758 -1.5431  0.2363 -2.2768
  164SAPE  C31318506   2.805   0.509   7.890  0.4167  0.1524  0.0238
  164SAPE  H13X18507   2.894   0.563   7.928  1.4685 -1.2853 -0.3181
  164SAPE  H13Y18508   2.857   0.413   7.871  0.5997  0.1223  0.6566
  164SAPE  C31418509   2.700   0.491   8.000 -0.4593  0.2483 -0.4194
  164SAPE  H14X18510   2.760   0.427   8.067 -1.3359 -0.0137  0.1391
  164SAPE  H14Y18511   2.613   0.433   7.960 -0.5230 -1.4735  1.9887
  164SAPE  C31518512   2.641   0.615   8.057  0.0596  0.5973 -0.7275
  164SAPE  H15X18513   2.577   0.669   7.985  2.0764  0.3030 -2.8576
  164SAPE  H15Y18514   2.717   0.692   8.081 -0.4720  0.8652  0.1118
  164SAPE  C31618515   2.562   0.580   8.184  0.7011 -0.1119 -0.3282
  164SAPE  H16X18516   2.620   0.501   8.236  3.0827  0.4768 -1.8920
  164SAPE  H16Y18517   2.457   0.549   8.162  0.1394 -0.5440  2.5598
  164SAPE  C31718518   2.567   0.694   8.282  0.0862  1.0431 -0.3427
  164SAPE  H17X18519   2.525   0.783   8.231 -0.1221  1.5170  0.6359
  164SAPE  H17Y18520   2.674   0.706   8.311  0.4104 -0.6393 -0.6904
  164SAPE  C31818521   2.492   0.682   8.412 -0.0053  0.4992  0.8433
  164SAPE  H18X18522   2.458   0.785   8.438  1.6382  1.4902 -0.6998
  164SAPE  H18Y18523   2.557   0.643   8.493 -0.0114 -1.4808 -0.0438
  164SAPE  H18Z18524   2.392   0.636   8.406 -0.3431  1.3634 -1.2460
  165SAPE     N18525   6.777   5.481   6.507 -0.2773  0.2893  0.2647
  165SAPE   HN118526   6.705   5.410   6.482 -0.4850  0.8405 -0.7542
  165SAPE   HN218527   6.868   5.430   6.510  0.6291  1.7811 -0.4722
  165SAPE   HN318528   6.775   5.530   6.599  2.3920  3.4745 -1.1697
  165SAPE   C1218529   6.777   5.572   6.391 -1.3881  0.0548  0.2003
  165SAPE  H12A18530   6.816   5.509   6.308 -1.6874  0.5066 -0.2882
  165SAPE  H12B18531   6.849   5.652   6.416 -0.4663 -0.7932  0.3334
  165SAPE   C1118532   6.634   5.618   6.361 -0.0110 -0.5404 -0.4707
  165SAPE  H11A18533   6.647   5.683   6.272  0.5601 -0.0193 -0.0233
  165SAPE  H11B18534   6.611   5.692   6.441  2.2847  2.0092 -1.9724
  165SAPE     P18535   6.394   5.537   6.369 -0.1028 -0.3048 -0.1206
  165SAPE   O1318536   6.351   5.666   6.301 -0.6750 -0.2018  0.4067
  165SAPE   O1418537   6.314   5.418   6.344 -0.3232  0.6017 -0.1774
  165SAPE   O1218538   6.554   5.508   6.341 -1.0049 -0.2010  0.0283
  165SAPE   O1118539   6.390   5.557   6.524 -1.1420 -0.5336 -0.3059
  165SAPE    C118540   6.307   5.657   6.586  0.1387  0.3250 -0.0452
  165SAPE    HA18541   6.202   5.651   6.549  0.6601 -0.2736 -1.4781
  165SAPE    HB18542   6.285   5.628   6.691 -0.9719 -1.2654 -0.6677
  165SAPE    C218543   6.360   5.803   6.590 -0.3506  0.2336 -0.6343
  165SAPE    HS18544   6.358   5.840   6.486 -0.3947  0.9679 -0.3740
  165SAPE   O2118545   6.491   5.802   6.651 -0.2921 -0.6247  0.2791
  165SAPE   C2118546   6.562   5.910   6.623 -0.0228 -0.1602  0.3538
  165SAPE   O2218547   6.531   6.007   6.553  0.4006  0.3536  0.2960
  165SAPE   C2218548   6.696   5.902   6.690  0.1625  0.3968 -0.6633
  165SAPE   H2R18549   6.683   5.817   6.760  2.4780  1.1915  0.8427
  165SAPE   H2S18550   6.767   5.871   6.610  0.6909  3.1458 -1.3660
  165SAPE    C318551   6.259   5.897   6.664  0.1012 -0.1979 -0.5927
  165SAPE    HX18552   6.175   5.902   6.592  0.8562 -1.3217 -1.5858
  165SAPE    HY18553   6.306   5.997   6.661 -1.0479  0.3258 -2.0889
  165SAPE   O3118554   6.223   5.849   6.800  0.4396  0.0199  0.0681
  165SAPE   C3118555   6.263   5.922   6.902  0.3420 -0.3169 -0.1621
  165SAPE   O3218556   6.315   6.032   6.896 -0.5151  0.0969  0.2628
  165SAPE   C3218557   6.255   5.832   7.019 -0.5980  0.6995 -0.5629
  165SAPE   H2X18558   6.302   5.734   6.993 -0.4073  1.3444 -2.8078
  165SAPE   H2Y18559   6.150   5.806   7.046 -0.7418  1.5674 -0.2648
  165SAPE   C2318560   6.747   6.026   6.759 -0.0811 -0.2611  0.0909
  165SAPE   H3R18561   6.736   6.107   6.684  0.9532  0.1225  0.3262
  165SAPE   H3S18562   6.856   6.012   6.778 -0.0645  0.4439  0.5937
  165SAPE   C2418563   6.675   6.069   6.889  0.1169 -0.0115  0.0054
  165SAPE   H4R18564   6.650   5.973   6.938  3.0993 -2.2183 -2.3338
  165SAPE   H4S18565   6.573   6.102   6.860  0.0331 -0.6335 -0.4280
  165SAPE   C2518566   6.745   6.169   6.979 -0.1243  0.2989  0.0721
  165SAPE   H5R18567   6.799   6.248   6.923  0.6926 -0.4865 -0.2746
  165SAPE   C2618568   6.752   6.165   7.112 -0.1513 -0.1018 -0.6070
  165SAPE   H6R18569   6.797   6.248   7.168 -1.5323 -0.1799  0.6829
  165SAPE   C2718570   6.702   6.068   7.212 -0.0816  0.6018  0.8642
  165SAPE   H7R18571   6.792   6.027   7.262 -0.6914  0.4616  1.8822
  165SAPE   H7S18572   6.645   5.986   7.163  3.4059  0.1144 -2.9946
  165SAPE   C2818573   6.605   6.113   7.320 -0.8661 -0.3051  0.2224
  165SAPE   H8R18574   6.505   6.119   7.274 -0.3000  0.2408 -0.9723
  165SAPE   C2918575   6.631   6.133   7.450 -0.3558  0.1290 -0.1662
  165SAPE   H9R18576   6.550   6.164   7.516  0.8632 -2.2757  2.7229
  165SAPE  C21018577   6.764   6.103   7.511 -0.7552 -0.2889 -0.2064
  165SAPE  H10R18578   6.776   6.184   7.586 -3.1930  1.4199 -1.5238
  165SAPE  H10S18579   6.844   6.114   7.434 -0.3422  0.5919  0.3409
  165SAPE  C21118580   6.774   5.968   7.580 -0.3937  0.0639  0.8612
  165SAPE  H11R18581   6.756   5.881   7.515  2.2369 -0.2010  0.3767
  165SAPE  C21218582   6.804   5.941   7.704 -0.1971 -0.9066 -0.0007
  165SAPE  H12R18583   6.815   5.838   7.739  2.4909 -0.3965  0.9447
  165SAPE  C21318584   6.840   6.034   7.814  0.1827  0.4073 -0.5697
  165SAPE  H13R18585   6.915   6.108   7.782  0.3282  0.9448  0.9133
  165SAPE  H13S18586   6.880   5.970   7.896 -0.9914 -2.0269 -1.7741
  165SAPE  C21418587   6.723   6.112   7.866  0.1846  0.8685 -0.2285
  165SAPE  H14R18588   6.654   6.151   7.790 -1.0977  0.8072  0.8754
  165SAPE  C21518589   6.693   6.126   7.993 -0.0478 -0.3666 -0.8064
  165SAPE  H15R18590   6.606   6.189   8.017  0.3799  0.9150 -2.4099
  165SAPE  C21618591   6.766   6.064   8.112 -0.1569 -0.6453 -0.0396
  165SAPE  H16R18592   6.870   6.032   8.091 -0.2929  0.0157 -1.8878
  165SAPE  H16S18593   6.715   5.968   8.140  2.8682 -1.4605  3.4819
  165SAPE  C21718594   6.753   6.151   8.241  0.0749  0.4175 -0.0714
  165SAPE  H17R18595   6.648   6.139   8.275 -0.5302 -0.3885 -2.0834
  165SAPE  H17S18596   6.779   6.253   8.207 -0.7279  0.6230 -0.0905
  165SAPE  C21818597   6.843   6.097   8.357 -0.1680 -0.4084 -0.0996
  165SAPE  H18R18598   6.933   6.052   8.308  0.7763 -1.8704  2.7651
  165SAPE  H18S18599   6.789   6.016   8.410 -0.1979  0.8317  1.8848
  165SAPE  C21918600   6.894   6.198   8.453  0.0852 -0.8363  0.0386
  165SAPE  H19R18601   6.810   6.269   8.469  1.4690  0.5738  1.2844
  165SAPE  H19S18602   6.973   6.253   8.399  1.0363 -1.5052  0.7225
  165SAPE  C22018603   6.946   6.113   8.574 -0.4856 -0.2057 -0.1187
  165SAPE  H20R18604   7.030   6.045   8.545 -1.2679  0.0270 -3.2627
  165SAPE  H20S18605   6.864   6.050   8.613  0.0274 -0.6678  0.2405
  165SAPE  H20T18606   6.965   6.182   8.659  0.8074 -1.2442  0.4775
  165SAPE   C3318607   6.333   5.892   7.143  0.0866  0.0919 -0.6335
  165SAPE   H3X18608   6.262   5.966   7.186 -1.5346 -0.1236 -2.7773
  165SAPE   H3Y18609   6.421   5.954   7.116  0.8994 -0.9234 -0.3691
  165SAPE   C3418610   6.371   5.792   7.254 -0.5418  0.0976  0.6762
  165SAPE   H4X18611   6.431   5.850   7.327  1.2399 -1.3233  0.3979
  165SAPE   H4Y18612   6.441   5.718   7.211  0.7943  1.1612  0.9776
  165SAPE   C3518613   6.255   5.711   7.327 -0.2132  0.3904  0.0971
  165SAPE   H5X18614   6.185   5.673   7.249  1.3844  1.1055 -1.7466
  165SAPE   H5Y18615   6.193   5.782   7.386  0.3937  1.1702 -0.1861
  165SAPE   C3618616   6.319   5.602   7.407 -0.0033  0.0298  0.5861
  165SAPE   H6X18617   6.390   5.646   7.481 -0.5341  2.5958 -0.3430
  165SAPE   H6Y18618   6.376   5.538   7.336 -0.3567 -0.6942  0.9409
  165SAPE   C3718619   6.219   5.511   7.479 -0.3174 -0.1749  0.7650
  165SAPE   H7X18620   6.126   5.501   7.420 -0.1672 -1.5818  0.7142
  165SAPE   H7Y18621   6.194   5.567   7.571 -0.8725  3.3941 -1.3678
  165SAPE   C3818622   6.290   5.379   7.521  0.7341 -1.1293  0.9353
  165SAPE   H8X18623   6.375   5.413   7.583  0.8420  1.7384 -0.6094
  165SAPE   H8Y18624   6.326   5.335   7.426  0.1531 -2.2744  1.2213
  165SAPE   C3918625   6.206   5.292   7.612 -0.1249  0.5556 -0.1823
  165SAPE   H9X18626   6.117   5.253   7.558 -1.7174  1.6483  1.5590
  165SAPE   H9Y18627   6.163   5.353   7.694 -0.3083 -0.6093  0.6198
  165SAPE  C31018628   6.282   5.184   7.685  0.7788 -0.1133  0.1678
  165SAPE  H10X18629   6.360   5.234   7.746 -1.0199  1.0286  1.6618
  165SAPE  H10Y18630   6.334   5.127   7.605  0.7206 -0.8809  0.6696
  165SAPE  C31118631   6.192   5.109   7.786  0.0323  0.5889  0.1481
  165SAPE  H11X18632   6.095   5.077   7.741 -0.4370  0.9777  0.8624
  165SAPE  H11Y18633   6.169   5.187   7.862  1.0555  2.2559 -1.1809
  165SAPE  C31218634   6.269   4.987   7.839 -0.0775  0.4736  0.4892
  165SAPE  H12X18635   6.379   5.000   7.849 -0.2957  3.6166 -0.0971
  165SAPE  H12Y18636   6.245   4.897   7.780  0.8423  0.8897 -0.5500
  165SAPE  C31318637   6.218   4.963   7.985  0.4459  0.3232  0.3171
  165SAPE  H13X18638   6.107   4.958   7.997  0.4490  0.0034  0.2186
  165SAPE  H13Y18639   6.249   5.056   8.038  1.0239  0.8131 -0.8549
  165SAPE  C31418640   6.273   4.837   8.052  0.4614 -0.1214  0.6615
  165SAPE  H14X18641   6.384   4.835   8.063  0.5953 -4.4872 -0.0503
  165SAPE  H14Y18642   6.237   4.751   7.993  0.2580 -0.3708  1.1436
  165SAPE  C31518643   6.226   4.819   8.194 -0.3098 -0.3746  0.8648
  165SAPE  H15X18644   6.116   4.833   8.192 -0.6989 -3.0408  0.5072
  165SAPE  H15Y18645   6.260   4.898   8.265 -0.4576 -0.3643  0.9238
  165SAPE  C31618646   6.253   4.680   8.254 -0.6996  0.1371 -0.6967
  165SAPE  H16X18647   6.335   4.637   8.192  0.3581  0.4534  0.4474
  165SAPE  H16Y18648   6.165   4.614   8.244  0.4801 -1.8130  1.0063
  165SAPE  C31718649   6.307   4.681   8.401 -0.0510  0.2088 -0.2008
  165SAPE  H17X18650   6.251   4.757   8.459 -1.4068 -0.8881 -0.0314
  165SAPE  H17Y18651   6.416   4.702   8.408  0.3944 -1.9002 -0.2153
  165SAPE  C31818652   6.279   4.542   8.464  0.1199  0.4042 -0.1818
  165SAPE  H18X18653   6.172   4.529   8.490  0.2375  0.9560  0.6410
  165SAPE  H18Y18654   6.345   4.526   8.552 -0.7849  0.1999  0.4729
  165SAPE  H18Z18655   6.310   4.459   8.398 -0.2955  0.2635 -0.1978
  166SAPE     N18656   1.397   1.100   6.046 -0.4275  0.0152 -0.5028
  166SAPE   HN118657   1.474   1.038   6.014  1.3721 -0.1125  3.4752
  166SAPE   HN218658   1.327   1.039   6.092 -1.8157  0.6999 -1.6429
  166SAPE   HN318659   1.363   1.154   5.964  0.3375 -0.2759 -1.0235
  166SAPE   C1218660   1.437   1.203   6.152 -0.2034  0.0727  0.1440
  166SAPE  H12A18661   1.524   1.264   6.119  0.8650 -0.4572  1.8559
  166SAPE  H12B18662   1.464   1.150   6.245 -0.0851  1.3412  0.8463
  166SAPE   C1118663   1.318   1.293   6.175  0.2657  0.0737  0.5110
  166SAPE  H11A18664   1.351   1.372   6.246 -0.1315  0.3193  0.4223
  166SAPE  H11B18665   1.243   1.233   6.230 -0.1058 -0.2952 -0.3879
  166SAPE     P18666   1.127   1.427   6.056  0.0673 -0.2449  0.2747
  166SAPE   O1318667   1.162   1.562   6.000  0.1749  0.3475  0.4297
  166SAPE   O1418668   1.019   1.347   5.992  0.2424  0.7494 -0.1661
  166SAPE   O1218669   1.264   1.348   6.056  0.6889  0.0496  0.2759
  166SAPE   O1118670   1.092   1.435   6.209  0.7203  0.0308  0.4579
  166SAPE    C118671   1.094   1.563   6.271  0.3262 -0.2098  0.4032
  166SAPE    HA18672   1.187   1.620   6.251  0.8852 -0.9358  0.9077
  166SAPE    HB18673   1.007   1.622   6.234 -0.5380 -2.6636 -1.7214
  166SAPE    C218674   1.081   1.540   6.422  0.4383  0.1533  0.8389
  166SAPE    HS18675   1.073   1.639   6.472 -0.1666 -0.4536  1.9876
  166SAPE   O2118676   1.191   1.457   6.467 -0.5031 -0.4328 -0.9611
  166SAPE   C2118677   1.314   1.508   6.475 -0.0286 -0.0997  0.4336
  166SAPE   O2218678   1.344   1.621   6.433  0.3787 -0.4952  0.2074
  166SAPE   C2218679   1.412   1.399   6.530  0.1748  0.0653  0.7749
  166SAPE   H2R18680   1.413   1.305   6.470  0.0483 -0.8339  2.1325
  166SAPE   H2S18681   1.513   1.444   6.532 -1.2581  3.5479  1.1208
  166SAPE    C318682   0.944   1.475   6.465 -0.2856 -0.6543  0.2133
  166SAPE    HX18683   0.933   1.389   6.396 -0.4390 -0.2231 -0.3086
  166SAPE    HY18684   0.856   1.541   6.448  0.4125  0.7862  1.8285
  166SAPE   O3118685   0.957   1.422   6.599 -0.5763 -0.4619  0.1768
  166SAPE   C3118686   0.937   1.511   6.689  1.0059 -0.1120  0.0199
  166SAPE   O3218687   0.906   1.629   6.662  0.2030  0.0676 -0.1989
  166SAPE   C3218688   0.967   1.457   6.825  0.6236 -0.4296  0.1349
  166SAPE   H2X18689   1.078   1.458   6.824  0.6794  2.3220 -1.0061
  166SAPE   H2Y18690   0.931   1.354   6.844 -0.2277 -0.2959 -0.6787
  166SAPE   C2318691   1.366   1.352   6.665 -0.5334 -0.0876 -0.4616
  166SAPE   H3R18692   1.434   1.270   6.697  1.1996  2.0662  1.7541
  166SAPE   H3S18693   1.263   1.309   6.668 -0.5851  0.0452 -0.2977
  166SAPE   C2418694   1.398   1.460   6.782  0.2891  0.2989 -0.5061
  166SAPE   H4R18695   1.337   1.553   6.775  0.5654  0.3909 -1.8974
  166SAPE   H4S18696   1.503   1.496   6.770  0.4146  1.2012  2.3358
  166SAPE   C2518697   1.384   1.387   6.912  0.5781  0.2668 -0.1773
  166SAPE   H5R18698   1.357   1.282   6.900 -0.1524  0.6157 -1.8813
  166SAPE   C2618699   1.397   1.437   7.034  0.3782 -0.6491 -0.7759
  166SAPE   H6R18700   1.387   1.367   7.117 -1.9722 -0.1953 -0.6257
  166SAPE   C2718701   1.424   1.582   7.076 -0.1382 -0.4524  0.8381
  166SAPE   H7R18702   1.419   1.589   7.187 -2.0087  1.6224  0.6939
  166SAPE   H7S18703   1.339   1.650   7.052  0.2689 -0.9265 -2.4259
  166SAPE   C2818704   1.559   1.641   7.032  0.3056  0.5170  0.0301
  166SAPE   H8R18705   1.593   1.625   6.929  0.4234 -1.0791  0.2828
  166SAPE   C2918706   1.639   1.719   7.102  0.0465  0.1693 -0.4689
  166SAPE   H9R18707   1.726   1.765   7.052  0.8061  0.6907  1.2542
  166SAPE  C21018708   1.624   1.764   7.254  0.2220 -0.2441 -0.0496
  166SAPE  H10R18709   1.700   1.840   7.284 -0.7035  1.1596 -1.1201
  166SAPE  H10S18710   1.644   1.676   7.319 -1.4656 -0.1984  0.5602
  166SAPE  C21118711   1.493   1.824   7.295 -0.3186 -0.3226  0.1960
  166SAPE  H11R18712   1.451   1.889   7.216 -0.6600  0.6332  1.1429
  166SAPE  C21218713   1.433   1.817   7.419 -0.3738 -0.7684 -0.5229
  166SAPE  H12R18714   1.332   1.861   7.425 -0.7297 -1.6409 -0.0275
  166SAPE  C21318715   1.478   1.745   7.545 -0.1641  0.6508  0.0955
  166SAPE  H13R18716   1.503   1.809   7.632  0.2392 -1.1390  1.3487
  166SAPE  H13S18717   1.570   1.690   7.515  0.1569  1.3634 -0.2522
  166SAPE  C21418718   1.369   1.650   7.598 -0.1339 -0.3662 -0.1420
  166SAPE  H14R18719   1.340   1.572   7.526  0.6877 -1.3743  0.5996
  166SAPE  C21518720   1.329   1.631   7.722 -0.3781 -0.0686 -0.9302
  166SAPE  H15R18721   1.259   1.549   7.745 -1.2820  0.0741 -2.9899
  166SAPE  C21618722   1.382   1.710   7.839  0.2916 -0.5844 -0.2655
  166SAPE  H16R18723   1.364   1.820   7.836  1.1520 -0.3388  1.7010
  166SAPE  H16S18724   1.493   1.703   7.849  0.4811  1.0277 -0.9765
  166SAPE  C21718725   1.316   1.657   7.966  1.0021 -0.5617 -0.0785
  166SAPE  H17R18726   1.328   1.547   7.967  0.5629 -0.6123  1.5547
  166SAPE  H17S18727   1.208   1.682   7.962  0.6832 -1.1995  2.6259
  166SAPE  C21818728   1.384   1.704   8.089 -0.0491  0.2195  0.1169
  166SAPE  H18R18729   1.390   1.815   8.087  0.7584  0.1786  0.0179
  166SAPE  H18S18730   1.488   1.669   8.102  0.7735  2.4139 -0.1567
  166SAPE  C21918731   1.304   1.658   8.208  0.5964  1.0272  0.5067
  166SAPE  H19R18732   1.200   1.693   8.187  0.9048  0.9413 -1.3266
  166SAPE  H19S18733   1.353   1.707   8.294  0.2914  0.1400  1.2032
  166SAPE  C22018734   1.298   1.508   8.242  0.4603  0.2780  0.3159
  166SAPE  H20R18735   1.236   1.455   8.166  2.2400  1.1805 -1.9001
  166SAPE  H20S18736   1.256   1.494   8.343  0.6500 -1.1423  0.2169
  166SAPE  H20T18737   1.397   1.457   8.235  0.7933  0.5894  2.2032
  166SAPE   C3318738   0.920   1.544   6.944 -0.4706 -0.2424  0.1002
  166SAPE   H3X18739   0.815   1.575   6.928 -0.4495  0.6234  1.4742
  166SAPE   H3Y18740   0.974   1.640   6.953  0.3635 -0.6024 -0.8683
  166SAPE   C3418741   0.932   1.460   7.075 -0.8604 -0.2468 -0.1177
  166SAPE   H4X18742   1.041   1.439   7.083 -0.0066  3.3359 -0.5431
  166SAPE   H4Y18743   0.868   1.370   7.068  0.5056 -1.2042 -0.9120
  166SAPE   C3518744   0.897   1.550   7.200  0.0753 -0.1649  0.2437
  166SAPE   H5X18745   0.786   1.549   7.201  0.0413  1.0591 -0.6377
  166SAPE   H5Y18746   0.946   1.649   7.188 -0.5450  0.0554 -0.5469
  166SAPE   C3618747   0.960   1.483   7.319  0.0760 -0.3163  0.3182
  166SAPE   H6X18748   1.070   1.496   7.327 -0.0755  0.6906  1.0671
  166SAPE   H6Y18749   0.942   1.374   7.314  2.0701 -0.7100  0.9327
  166SAPE   C3718750   0.901   1.521   7.457 -0.0076  0.2438  0.9448
  166SAPE   H7X18751   0.807   1.463   7.469 -0.4157  0.3567 -1.4001
  166SAPE   H7Y18752   0.881   1.630   7.455  1.4109  0.5239 -1.4964
  166SAPE   C3818753   0.990   1.499   7.581  0.2745 -0.5726 -0.5235
  166SAPE   H8X18754   1.065   1.581   7.577  0.8956 -1.0982  0.1769
  166SAPE   H8Y18755   1.049   1.406   7.567  1.1870 -0.2187  0.7753
  166SAPE   C3918756   0.900   1.484   7.702  0.7201 -0.2444 -0.6941
  166SAPE   H9X18757   0.824   1.405   7.683 -2.0994  2.4992 -1.7379
  166SAPE   H9Y18758   0.830   1.570   7.711  1.6002  0.7245 -2.4961
  166SAPE  C31018759   0.979   1.473   7.831 -0.0179 -0.0628 -1.0258
  166SAPE  H10X18760   1.045   1.562   7.839 -0.9113  0.4570  1.4181
  166SAPE  H10Y18761   1.039   1.380   7.824  0.0931 -0.3629  2.2559
  166SAPE  C31118762   0.888   1.469   7.951 -0.6610  0.2220 -0.2180
  166SAPE  H11X18763   0.818   1.383   7.956 -0.5911  0.2235  1.3014
  166SAPE  H11Y18764   0.815   1.553   7.946  0.0277  0.7517 -3.3930
  166SAPE  C31218765   0.958   1.471   8.095 -0.4648 -0.0073  0.7298
  166SAPE  H12X18766   1.026   1.558   8.113  0.3567 -0.9131  2.1895
  166SAPE  H12Y18767   1.018   1.379   8.112 -0.1184  0.4335  2.0188
  166SAPE  C31318768   0.863   1.480   8.217  0.1055  0.1752  0.5729
  166SAPE  H13X18769   0.799   1.389   8.221 -0.5846  0.4832 -1.8733
  166SAPE  H13Y18770   0.791   1.560   8.191 -0.3126 -0.8003 -1.4729
  166SAPE  C31418771   0.928   1.493   8.356 -0.9329 -0.1729  0.2393
  166SAPE  H14X18772   0.986   1.588   8.359  0.0882 -0.7260 -0.9842
  166SAPE  H14Y18773   0.996   1.407   8.378  1.7131  2.4126  3.1227
  166SAPE  C31518774   0.825   1.500   8.467  0.3571 -0.1641 -0.0937
  166SAPE  H15X18775   0.865   1.523   8.567  1.5527  1.7025 -0.9299
  166SAPE  H15Y18776   0.768   1.405   8.474  1.3821 -0.6758  1.5789
  166SAPE  C31618777   0.711   1.611   8.438  0.4910 -0.4427 -0.1961
  166SAPE  H16X18778   0.650   1.563   8.359  1.5852  0.6355 -1.7500
  166SAPE  H16Y18779   0.755   1.703   8.394 -1.0719  0.3644 -0.1493
  166SAPE  C31718780   0.634   1.643   8.558  0.4743  0.0633  0.3654
  166SAPE  H17X18781   0.694   1.698   8.634 -1.9805  1.7116  1.2544
  166SAPE  H17Y18782   0.597   1.545   8.595 -0.4354 -0.3560 -1.5240
  166SAPE  C31818783   0.516   1.723   8.523 -0.3959 -0.1199  0.4114
  166SAPE  H18X18784   0.460   1.749   8.615 -0.1481  1.1381  0.2301
  166SAPE  H18Y18785   0.433   1.672   8.469 -1.5355  2.8479 -0.8308
  166SAPE  H18Z18786   0.543   1.810   8.459 -0.5943  0.8583  1.6163
  167SAPE     N18787   3.944   2.656   6.216  0.1169 -0.3619 -0.0228
  167SAPE   HN118788   3.947   2.610   6.310 -0.2534 -0.6703 -0.1570
  167SAPE   HN218789   4.007   2.738   6.226  0.3657 -0.7077  1.6801
  167SAPE   HN318790   3.845   2.684   6.200 -0.0529  0.2171  1.7590
  167SAPE   C1218791   3.980   2.568   6.100  0.2846  0.4606 -0.4022
  167SAPE  H12A18792   4.086   2.539   6.118  0.8128  2.9533  0.8644
  167SAPE  H12B18793   3.985   2.633   6.010 -1.5984  1.9236  0.5060
  167SAPE   C1118794   3.880   2.443   6.073 -0.6326 -0.4368 -0.8486
  167SAPE  H11A18795   3.928   2.372   6.003  2.0043  0.6998 -0.3226
  167SAPE  H11B18796   3.786   2.489   6.035 -1.6365 -0.4720  1.4677
  167SAPE     P18797   3.759   2.253   6.203 -0.1405  0.4722 -0.2829
  167SAPE   O1318798   3.673   2.249   6.080 -0.1234  0.1957  0.0741
  167SAPE   O1418799   3.844   2.132   6.233  0.3243 -0.0445  0.4224
  167SAPE   O1218800   3.852   2.378   6.199 -0.8874 -0.6930  0.1740
  167SAPE   O1118801   3.675   2.281   6.330  0.2441  0.3784 -0.5826
  167SAPE    C118802   3.652   2.417   6.371  0.5915  0.4337 -0.1677
  167SAPE    HA18803   3.733   2.471   6.424  0.7644  0.2535 -0.2452
  167SAPE    HB18804   3.603   2.476   6.291  0.4109  0.9697  0.3336
  167SAPE    C218805   3.536   2.424   6.477 -0.2030  0.2847 -0.6933
  167SAPE    HS18806   3.531   2.529   6.513 -1.2539  0.7926 -2.2158
  167SAPE   O2118807   3.556   2.325   6.580 -0.3229 -0.0605 -0.4301
  167SAPE   C2118808   3.623   2.377   6.681 -0.7918 -0.6088  0.0341
  167SAPE   O2218809   3.654   2.495   6.693 -0.4444  0.4852  0.4349
  167SAPE   C2218810   3.638   2.273   6.789  0.6129  0.2129 -0.1799
  167SAPE   H2R18811   3.610   2.169   6.761 -1.4435 -0.0577  2.4385
  167SAPE   H2S18812   3.748   2.275   6.800  1.1864  2.7400 -4.2998
  167SAPE    C318813   3.397   2.404   6.411 -1.0024 -0.0055 -0.1878
  167SAPE    HX18814   3.402   2.303   6.364  1.3242  0.1610 -0.3725
  167SAPE    HY18815   3.374   2.466   6.322 -0.3937  1.0406  0.3784
  167SAPE   O3118816   3.290   2.414   6.504  0.3998  0.5976 -0.0128
  167SAPE   C3118817   3.182   2.340   6.494  0.8108 -0.4269  0.1037
  167SAPE   O3218818   3.160   2.259   6.402  0.2054 -0.7667 -0.0086
  167SAPE   C3218819   3.083   2.383   6.600 -0.3561 -0.3534 -0.3250
  167SAPE   H2X18820   2.991   2.424   6.553  0.4560 -0.2414 -1.8720
  167SAPE   H2Y18821   3.134   2.460   6.660  2.3662  1.8502 -4.9535
  167SAPE   C2318822   3.557   2.315   6.924 -0.4849  0.4666  0.4689
  167SAPE   H3R18823   3.581   2.422   6.940  2.1975 -0.0905  0.5259
  167SAPE   H3S18824   3.613   2.256   6.999  3.7948  1.5683 -1.5583
  167SAPE   C2418825   3.404   2.287   6.903  0.1190 -0.1346  0.0982
  167SAPE   H4R18826   3.386   2.327   6.801  2.5490  0.2780 -0.2264
  167SAPE   H4S18827   3.339   2.346   6.971 -1.3250  1.0952 -2.2135
  167SAPE   C2518828   3.377   2.138   6.906  0.3223  0.0076  0.0415
  167SAPE   H5R18829   3.424   2.087   6.821 -3.0415 -2.0349 -0.8019
  167SAPE   C2618830   3.313   2.068   7.000 -0.4425 -0.3186 -0.0473
  167SAPE   H6R18831   3.303   1.959   6.983 -1.0203 -0.0917 -1.1733
  167SAPE   C2718832   3.253   2.114   7.130  0.6378 -0.7563 -0.6669
  167SAPE   H7R18833   3.143   2.100   7.133  0.5205  0.2491  0.5687
  167SAPE   H7S18834   3.264   2.221   7.158 -0.8247 -0.6878 -0.2986
  167SAPE   C2818835   3.316   2.026   7.236  0.2930  0.0565 -0.3017
  167SAPE   H8R18836   3.424   2.005   7.229  0.3443  0.0936  0.3450
  167SAPE   C2918837   3.253   1.978   7.343 -0.3091  0.0224 -0.1622
  167SAPE   H9R18838   3.311   1.904   7.400 -0.4280  0.6943  0.8558
  167SAPE  C21018839   3.111   2.007   7.390  0.0992  0.5884 -0.4013
  167SAPE  H10R18840   3.047   1.921   7.361  0.3841  0.5433 -0.9068
  167SAPE  H10S18841   3.064   2.093   7.336 -2.0491 -0.2144  0.0866
  167SAPE  C21118842   3.091   2.038   7.535  0.9019 -0.4395 -0.1644
  167SAPE  H11R18843   3.108   2.141   7.571 -0.4900 -0.0988 -0.4271
  167SAPE  C21218844   3.063   1.958   7.637 -0.0681  1.1084 -1.3554
  167SAPE  H12R18845   3.065   2.000   7.739  2.2151  0.3726 -1.0363
  167SAPE  C21318846   3.042   1.802   7.637  0.9107 -0.0991 -0.3407
  167SAPE  H13R18847   2.988   1.776   7.544 -0.0325 -0.4584  0.2977
  167SAPE  H13S18848   2.965   1.774   7.712 -0.1127  0.4873 -1.1362
  167SAPE  C21418849   3.171   1.723   7.661  0.2769  0.1494  0.2858
  167SAPE  H14R18850   3.253   1.727   7.588  0.8342 -0.8653  0.8340
  167SAPE  C21518851   3.206   1.672   7.779 -0.8604  0.1950  0.3339
  167SAPE  H15R18852   3.301   1.618   7.791 -1.0378 -0.0605  0.6117
  167SAPE  C21618853   3.133   1.674   7.909  0.0150 -0.3706  0.2897
  167SAPE  H16R18854   3.040   1.618   7.888  0.6898 -1.3808 -0.0590
  167SAPE  H16S18855   3.105   1.780   7.930 -1.0880 -0.4054 -0.8620
  167SAPE  C21718856   3.185   1.611   8.042 -0.2446  0.1058  0.2376
  167SAPE  H17R18857   3.108   1.622   8.121  0.7322  4.2459  0.8380
  167SAPE  H17S18858   3.271   1.671   8.080 -0.5109  0.6698 -0.0425
  167SAPE  C21818859   3.224   1.466   8.035 -0.0732  0.6515  0.1585
  167SAPE  H18R18860   3.290   1.442   8.122 -1.6330  0.7779  1.4251
  167SAPE  H18S18861   3.287   1.455   7.944  1.7038  0.7411  1.3195
  167SAPE  C21918862   3.106   1.365   8.030 -0.0801 -0.7077 -0.5068
  167SAPE  H19R18863   3.031   1.397   7.955  0.3797  1.9318  0.0442
  167SAPE  H19S18864   3.067   1.371   8.134  0.4019  1.1600 -0.3902
  167SAPE  C22018865   3.142   1.220   7.987  0.8831 -0.3286 -1.1901
  167SAPE  H20R18866   3.210   1.232   7.900  0.9282  1.0508 -0.9892
  167SAPE  H20S18867   3.052   1.157   7.970 -1.4235  2.3112  0.3252
  167SAPE  H20T18868   3.188   1.169   8.075 -1.6858 -0.4983  0.1776
  167SAPE   C3318869   3.037   2.262   6.691 -0.3587 -0.1300  0.2750
  167SAPE   H3X18870   3.126   2.226   6.747 -1.9104  0.4765  3.2927
  167SAPE   H3Y18871   3.003   2.171   6.636 -0.2455 -0.1058  0.1630
  167SAPE   C3418872   2.932   2.303   6.796 -0.0723 -0.0666  0.1734
  167SAPE   H4X18873   2.863   2.221   6.824 -1.7576  1.6665  1.2970
  167SAPE   H4Y18874   2.870   2.388   6.761  0.9585  0.7304  0.2465
  167SAPE   C3518875   2.998   2.346   6.930 -0.6882 -0.1165 -0.3087
  167SAPE   H5X18876   3.067   2.430   6.911 -2.6592  1.2559 -1.8483
  167SAPE   H5Y18877   3.052   2.257   6.969 -0.8665  0.2475  0.8096
  167SAPE   C3618878   2.899   2.411   7.030  0.1639  0.0113 -0.1375
  167SAPE   H6X18879   2.796   2.370   7.024 -0.2070  1.0543 -1.3656
  167SAPE   H6Y18880   2.890   2.519   7.004  2.0935  0.1774 -0.2860
  167SAPE   C3718881   2.928   2.384   7.178  0.1869 -0.6026 -0.0557
  167SAPE   H7X18882   2.927   2.273   7.192 -1.9479 -0.7161 -0.8151
  167SAPE   H7Y18883   2.846   2.418   7.245  0.1279 -0.4842 -0.1894
  167SAPE   C3818884   3.056   2.456   7.222 -0.7551 -0.2698  0.6157
  167SAPE   H8X18885   3.065   2.563   7.195 -1.3590 -0.4662 -0.4198
  167SAPE   H8Y18886   3.143   2.414   7.167  0.6530  1.6632  1.2535
  167SAPE   C3918887   3.076   2.433   7.373 -0.0771  0.3155 -0.1469
  167SAPE   H9X18888   3.182   2.454   7.400 -0.1369  1.6903 -0.8448
  167SAPE   H9Y18889   3.054   2.331   7.410  1.7103  0.9032  2.8505
  167SAPE  C31018890   2.997   2.537   7.460 -0.4632  0.2986  0.0046
  167SAPE  H10X18891   2.886   2.525   7.457 -0.6484  1.8822 -0.2834
  167SAPE  H10Y18892   2.999   2.638   7.413 -0.5180  0.4068  0.2336
  167SAPE  C31118893   3.052   2.549   7.605  0.1340  0.1348  1.3196
  167SAPE  H11X18894   3.152   2.591   7.582 -1.2902  2.7569 -0.6561
  167SAPE  H11Y18895   3.065   2.452   7.657  1.7619 -0.6217 -0.3599
  167SAPE  C31218896   2.977   2.640   7.697 -0.0548 -0.4314 -0.1175
  167SAPE  H12X18897   2.868   2.624   7.690 -0.1778  0.2439  0.1337
  167SAPE  H12Y18898   2.998   2.744   7.664 -1.3997  0.4070  1.5404
  167SAPE  C31318899   3.013   2.649   7.844  0.3571 -0.2270  0.9408
  167SAPE  H13X18900   2.944   2.719   7.895  0.6503 -0.3056  1.4480
  167SAPE  H13Y18901   3.113   2.696   7.851 -1.6715  4.6819  1.1198
  167SAPE  C31418902   3.012   2.511   7.907 -0.0502 -0.1815 -0.3040
  167SAPE  H14X18903   3.057   2.530   8.007  2.2369 -1.0967 -1.1136
  167SAPE  H14Y18904   3.069   2.437   7.847  0.4705 -1.3693  1.5539
  167SAPE  C31518905   2.870   2.464   7.917 -0.2323  0.4068  0.4491
  167SAPE  H15X18906   2.812   2.438   7.825  1.0177 -2.9674  0.4845
  167SAPE  H15Y18907   2.810   2.536   7.977 -3.5211 -0.8614 -1.0252
  167SAPE  C31618908   2.861   2.322   7.983  0.1040 -0.4232 -0.2321
  167SAPE  H16X18909   2.753   2.317   8.008 -0.4550 -2.0074 -2.6680
  167SAPE  H16Y18910   2.913   2.323   8.081 -1.3532 -2.1959  0.6055
  167SAPE  C31718911   2.903   2.216   7.881 -0.2508  0.4235  0.4574
  167SAPE  H17X18912   3.013   2.206   7.874 -0.4964 -1.9368 -1.2077
  167SAPE  H17Y18913   2.876   2.253   7.780  0.5112  0.6638  0.3405
  167SAPE  C31818914   2.833   2.083   7.902 -0.1165  0.5756 -0.2781
  167SAPE  H18X18915   2.868   2.011   7.824 -0.4323 -1.4290  1.3442
  167SAPE  H18Y18916   2.722   2.083   7.901 -0.1917  3.5809  0.1571
  167SAPE  H18Z18917   2.854   2.037   8.001 -0.0765  1.5290  0.1659
  168SAPE     N18918   2.204   3.653   6.391 -0.5302 -0.7643 -0.0289
  168SAPE   HN118919   2.253   3.738   6.357  0.1609 -0.7716  0.8859
  168SAPE   HN218920   2.142   3.606   6.323 -0.9631 -0.5965  0.2489
  168SAPE   HN318921   2.158   3.678   6.481 -0.3900 -0.4896 -0.0331
  168SAPE   C1218922   2.296   3.547   6.442  0.7169  0.5170  0.2969
  168SAPE  H12A18923   2.351   3.568   6.536  1.3730 -0.4116  0.1293
  168SAPE  H12B18924   2.375   3.536   6.366 -0.6846 -0.0053 -1.1368
  168SAPE   C1118925   2.219   3.416   6.457  0.9909  0.2153  0.3116
  168SAPE  H11A18926   2.157   3.427   6.548  1.8138  0.5717  0.8306
  168SAPE  H11B18927   2.301   3.342   6.469  0.7700 -0.0003  0.5031
  168SAPE     P18928   2.130   3.247   6.270  0.3827 -0.3076  0.1450
  168SAPE   O1318929   2.012   3.254   6.184  0.4482  0.6738  1.0299
  168SAPE   O1418930   2.256   3.209   6.208  0.2122  0.4101  0.5838
  168SAPE   O1218931   2.142   3.388   6.338  0.0086 -0.1267  0.1132
  168SAPE   O1118932   2.105   3.144   6.383 -0.1472  0.1001 -0.5916
  168SAPE    C118933   1.975   3.107   6.426  0.8041 -0.6088  0.5675
  168SAPE    HA18934   1.904   3.193   6.421  0.2763 -1.0284  0.7644
  168SAPE    HB18935   1.925   3.026   6.369  1.0832 -1.4469  1.4851
  168SAPE    C218936   1.971   3.058   6.578 -0.4239 -1.0501 -0.5573
  168SAPE    HS18937   1.867   3.069   6.616 -0.0908 -0.8620  0.3229
  168SAPE   O2118938   2.070   3.130   6.661 -0.3500 -0.0002 -0.3496
  168SAPE   C2118939   2.020   3.249   6.696 -0.0032  0.3659 -0.3345
  168SAPE   O2218940   1.905   3.290   6.658  0.1660 -0.1923  0.0713
  168SAPE   C2218941   2.109   3.309   6.802  0.1804 -0.2873 -0.2457
  168SAPE   H2R18942   2.093   3.264   6.902 -0.2804 -0.0659 -0.2179
  168SAPE   H2S18943   2.216   3.306   6.771  0.0217  2.4262 -1.3142
  168SAPE    C318944   2.004   2.903   6.588  0.4094 -0.1581 -0.1580
  168SAPE    HX18945   2.108   2.877   6.559  0.0179 -2.1911  0.1220
  168SAPE    HY18946   1.941   2.850   6.513 -0.4405 -0.7678  0.9616
  168SAPE   O3118947   1.981   2.857   6.730  0.0410 -0.0327  0.2053
  168SAPE   C3118948   1.875   2.787   6.759 -0.6007  0.3061  0.6535
  168SAPE   O3218949   1.789   2.760   6.679 -0.4773 -0.0813  0.4314
  168SAPE   C3218950   1.881   2.765   6.908  0.2083 -0.2416  0.1317
  168SAPE   H2X18951   1.906   2.866   6.947  1.2575  0.3450 -1.9258
  168SAPE   H2Y18952   1.970   2.699   6.923 -0.7568 -1.9971 -1.4549
  168SAPE   C2318953   2.066   3.454   6.837 -1.3910  0.5359  0.4796
  168SAPE   H3R18954   1.965   3.474   6.877 -0.5005  0.8970  2.6754
  168SAPE   H3S18955   2.082   3.503   6.738 -0.6161  0.1457  0.3985
  168SAPE   C2418956   2.163   3.528   6.928  0.6584 -0.5085 -1.0138
  168SAPE   H4R18957   2.131   3.633   6.908 -1.8192 -0.5583  2.0204
  168SAPE   H4S18958   2.266   3.512   6.888  0.1599  1.6885 -3.4618
  168SAPE   C2518959   2.154   3.498   7.076  0.1688  0.4820 -0.2320
  168SAPE   H5R18960   2.208   3.411   7.116 -1.4253 -0.8738 -0.9304
  168SAPE   C2618961   2.062   3.563   7.161 -0.4051 -0.2760 -0.4522
  168SAPE   H6R18962   2.055   3.527   7.264 -0.8780 -0.4752 -0.5529
  168SAPE   C2718963   1.960   3.666   7.122  0.2777 -0.7871 -0.1106
  168SAPE   H7R18964   1.990   3.715   7.027 -0.4068 -1.2813 -0.5959
  168SAPE   H7S18965   1.960   3.747   7.198 -2.0510 -2.0421  1.3369
  168SAPE   C2818966   1.813   3.625   7.095 -0.0091 -0.1634  0.5706
  168SAPE   H8R18967   1.785   3.585   6.996 -1.9928 -0.6102  1.2709
  168SAPE   C2918968   1.708   3.671   7.175  0.0104 -1.1147  0.3814
  168SAPE   H9R18969   1.605   3.643   7.149 -1.0170  1.1451  1.7102
  168SAPE  C21018970   1.707   3.743   7.302  0.1392  0.0632 -0.1846
  168SAPE  H10R18971   1.801   3.801   7.314  1.2121 -1.6900  0.2124
  168SAPE  H10S18972   1.709   3.665   7.380  0.3928  0.5928  0.3473
  168SAPE  C21118973   1.591   3.835   7.313  0.1212  0.6155 -0.7909
  168SAPE  H11R18974   1.562   3.870   7.213 -1.3357  0.2799 -0.5033
  168SAPE  C21218975   1.535   3.882   7.426  0.0085  0.1535 -0.1416
  168SAPE  H12R18976   1.447   3.947   7.415 -0.3283  0.0952  1.8931
  168SAPE  C21318977   1.575   3.834   7.563 -0.5836 -0.4329 -0.8219
  168SAPE  H13R18978   1.581   3.724   7.575  1.5587 -0.1440  1.7362
  168SAPE  H13S18979   1.496   3.864   7.634  0.1426 -0.3221 -0.0397
  168SAPE  C21418980   1.705   3.896   7.611  0.3198  1.4036  0.4421
  168SAPE  H14R18981   1.794   3.836   7.588 -0.2474  0.8395 -0.3411
  168SAPE  C21518982   1.720   4.020   7.663 -0.4449 -0.1852  0.0882
  168SAPE  H15R18983   1.819   4.051   7.700 -1.2919  0.5629  1.8643
  168SAPE  C21618984   1.604   4.119   7.690 -0.2583  0.3129 -0.5845
  168SAPE  H16R18985   1.516   4.097   7.627  0.5983 -3.2297 -0.7250
  168SAPE  H16S18986   1.628   4.223   7.658  0.9395  1.3848  3.2423
  168SAPE  C21718987   1.574   4.124   7.845 -0.5947  0.1420  0.2230
  168SAPE  H17R18988   1.502   4.205   7.869  2.0503  1.9685  2.6524
  168SAPE  H17S18989   1.665   4.167   7.893 -0.1770  0.9118 -1.2015
  168SAPE  C21818990   1.526   4.000   7.920 -0.5895 -0.5958  0.6634
  168SAPE  H18R18991   1.608   3.926   7.918 -0.3975 -0.4090 -2.1293
  168SAPE  H18S18992   1.437   3.947   7.879 -0.7481 -0.6508  1.0776
  168SAPE  C21918993   1.499   4.025   8.074  0.6834  0.3338  0.4582
  168SAPE  H19R18994   1.539   4.124   8.108 -0.6982  0.4401  1.8527
  168SAPE  H19S18995   1.540   3.935   8.125  1.6098  0.4663 -0.0226
  168SAPE  C22018996   1.345   4.052   8.099 -0.9539  0.2242  0.3476
  168SAPE  H20R18997   1.337   4.105   8.196  0.6720 -3.0279  2.4648
  168SAPE  H20S18998   1.295   3.953   8.104  0.3588 -0.4302  1.3046
  168SAPE  H20T18999   1.308   4.103   8.009 -0.5225 -0.0498  0.0078
  168SAPE   C3319000   1.748   2.708   6.980 -0.0727 -1.4839  0.6874
  168SAPE   H3X19001   1.722   2.615   6.926 -3.5829 -1.0083  1.3177
  168SAPE   H3Y19002   1.661   2.777   6.968  0.4473 -0.7014  1.2791
  168SAPE   C3419003   1.780   2.693   7.129 -0.3393  0.0932  0.7350
  168SAPE   H4X19004   1.884   2.659   7.152  0.3209 -0.9866 -3.0896
  168SAPE   H4Y19005   1.729   2.602   7.167  1.0903 -0.1583  2.1513
  168SAPE   C3519006   1.748   2.820   7.211 -0.3211  0.3077 -0.2135
  168SAPE   H5X19007   1.639   2.837   7.216 -0.5267 -0.2206 -2.0271
  168SAPE   H5Y19008   1.798   2.910   7.170  0.1417 -0.1499 -0.6691
  168SAPE   C3619009   1.791   2.803   7.357 -0.1637  0.4418  0.0314
  168SAPE   H6X19010   1.901   2.819   7.359  0.3332 -2.4604  0.8837
  168SAPE   H6Y19011   1.772   2.696   7.382  1.3482  0.0066 -0.5678
  168SAPE   C3719012   1.726   2.906   7.453  0.7397  0.1868 -0.7150
  168SAPE   H7X19013   1.626   2.862   7.472  1.7529 -1.0652  2.3619
  168SAPE   H7Y19014   1.725   3.003   7.398  0.5772  1.2757  1.1182
  168SAPE   C3819015   1.790   2.918   7.590 -0.1508  0.4060 -0.2903
  168SAPE   H8X19016   1.868   2.998   7.591  2.0126 -1.6034  0.8464
  168SAPE   H8Y19017   1.838   2.824   7.623  0.6530  0.7573 -0.4239
  168SAPE   C3919018   1.683   2.958   7.691 -0.6651  0.2495 -0.0055
  168SAPE   H9X19019   1.619   2.868   7.702 -2.4646  1.3615 -0.8704
  168SAPE   H9Y19020   1.634   3.053   7.660  1.2967  2.2233  2.4456
  168SAPE  C31019021   1.743   2.979   7.834  0.2264 -0.0468  0.2234
  168SAPE  H10X19022   1.797   2.887   7.862 -0.2271 -0.6496 -0.8405
  168SAPE  H10Y19023   1.657   2.980   7.905 -0.1813  1.3617 -0.2492
  168SAPE  C31119024   1.838   3.099   7.869  0.5412 -0.0723  0.6308
  168SAPE  H11X19025   1.778   3.192   7.882  0.6001 -0.1175  1.2602
  168SAPE  H11Y19026   1.903   3.103   7.779  0.8836  1.2638  0.9076
  168SAPE  C31219027   1.924   3.080   7.991 -0.6189 -0.7509  0.3861
  168SAPE  H12X19028   1.990   3.170   7.993 -2.3496  0.5720  1.9071
  168SAPE  H12Y19029   1.986   2.988   7.980  0.1719 -0.2993  0.8905
  168SAPE  C31319030   1.842   3.098   8.119 -0.4834  0.3660 -0.7568
  168SAPE  H13X19031   1.776   3.010   8.135  1.4756 -1.0058  0.2107
  168SAPE  H13Y19032   1.770   3.182   8.111  0.3799  1.3535  1.0284
  168SAPE  C31419033   1.928   3.122   8.239  0.6011 -0.8145  0.6562
  168SAPE  H14X19034   1.989   3.212   8.214  0.6507 -0.2821  2.5494
  168SAPE  H14Y19035   2.002   3.044   8.266  0.3824 -0.9277  0.9284
  168SAPE  C31519036   1.841   3.159   8.361  0.4723  0.5221 -0.5961
  168SAPE  H15X19037   1.760   3.227   8.330  0.9208  0.3368 -2.2785
  168SAPE  H15Y19038   1.898   3.212   8.440  0.8742 -2.2720  1.1592
  168SAPE  C31619039   1.783   3.027   8.423 -0.2937 -0.0257 -0.5982
  168SAPE  H16X19040   1.864   2.967   8.470  0.3307  2.4031  1.6714
  168SAPE  H16Y19041   1.726   2.976   8.343  0.4266  0.3762 -1.3722
  168SAPE  C31719042   1.678   3.057   8.532 -0.2471 -0.0513  0.2482
  168SAPE  H17X19043   1.590   3.103   8.482 -0.0796  0.7149  0.6532
  168SAPE  H17Y19044   1.730   3.115   8.611  1.6734  0.0919 -1.0484
  168SAPE  C31819045   1.627   2.928   8.587  0.4454 -0.8357  0.3241
  168SAPE  H18X19046   1.543   2.943   8.658 -0.9495  0.9994 -1.6044
  168SAPE  H18Y19047   1.706   2.869   8.640 -1.2711 -2.7604  0.8969
  168SAPE  H18Z19048   1.590   2.861   8.507 -1.1569  2.6204 -2.0132
  169SAPE     N19049   0.537   4.617   6.547  0.6872 -0.4961 -0.4599
  169SAPE   HN119050   0.606   4.632   6.623 -0.4369  0.5887  0.3844
  169SAPE   HN219051   0.570   4.661   6.459  0.2090  0.1689 -0.3194
  169SAPE   HN319052   0.447   4.661   6.577  0.8692 -0.7316  0.4593
  169SAPE   C1219053   0.508   4.476   6.545  1.1329 -0.3206  0.4565
  169SAPE  H12A19054   0.494   4.441   6.650  0.4940  2.1434  1.2819
  169SAPE  H12B19055   0.599   4.431   6.499  2.0047  0.3153  1.4840
  169SAPE   C1119056   0.395   4.453   6.450  0.0596 -0.2020 -0.6141
  169SAPE  H11A19057   0.391   4.347   6.417 -0.1202 -0.2561 -0.4206
  169SAPE  H11B19058   0.405   4.504   6.351 -1.0619 -3.4488 -2.5400
  169SAPE     P19059   0.131   4.451   6.442  0.2569  0.2940 -0.0863
  169SAPE   O1319060   0.152   4.475   6.296 -0.1691 -0.1194  0.0158
  169SAPE   O1419061   0.078   4.323   6.484  0.6837 -0.1180 -0.2990
  169SAPE   O1219062   0.267   4.480   6.516  0.2545  0.6000 -0.1705
  169SAPE   O1119063   0.028   4.566   6.493  0.2829 -0.2304  0.8267
  169SAPE    C119064   0.077   4.685   6.545 -0.0576  0.0170 -0.4953
  169SAPE    HA19065   0.184   4.706   6.521  0.2112  0.4346  0.9501
  169SAPE    HB19066   0.021   4.770   6.501  1.0628  0.0415 -1.9584
  169SAPE    C219067   0.053   4.701   6.696  0.3486 -0.2129  0.0457
  169SAPE    HS19068   0.089   4.801   6.727  3.4403 -2.0864  3.0929
  169SAPE   O2119069   0.117   4.608   6.781 -0.1727 -0.2932 -0.3403
  169SAPE   C2119070   0.248   4.621   6.780 -0.0161 -0.0211 -0.1111
  169SAPE   O2219071   0.317   4.701   6.713  0.2801  0.3155 -0.2063
  169SAPE   C2219072   0.309   4.526   6.883  0.5254  0.0780 -0.4562
  169SAPE   H2R19073   0.230   4.454   6.913  0.8632  0.7003  2.2003
  169SAPE   H2S19074   0.388   4.474   6.825  1.1080 -1.3993  1.5507
  169SAPE    C319075  -0.096   4.689   6.709 -0.6504  0.2593  0.2933
  169SAPE    HX19076  -0.118   4.583   6.686 -0.3172 -0.0882  1.4698
  169SAPE    HY19077  -0.139   4.761   6.636 -1.2671 -2.5611 -2.3282
  169SAPE   O3119078  -0.129   4.719   6.846  0.4172  0.3872 -0.0138
  169SAPE   C3119079  -0.227   4.650   6.894 -0.0706  0.2987 -0.6912
  169SAPE   O3219080  -0.279   4.553   6.843  0.4793 -0.2302 -0.0623
  169SAPE   C3219081  -0.273   4.699   7.035 -0.5414  0.1028 -0.0559
  169SAPE   H2X19082  -0.381   4.674   7.043 -0.7716  0.7595 -1.0312
  169SAPE   H2Y19083  -0.258   4.808   7.049  0.9933  0.0021 -0.7631
  169SAPE   C2319084   0.366   4.590   7.004 -0.5043 -0.4329 -0.1520
  169SAPE   H3R19085   0.295   4.662   7.049 -1.2065 -1.2807  0.1403
  169SAPE   H3S19086   0.463   4.634   6.975  0.1651  0.1794  2.7309
  169SAPE   C2419087   0.404   4.486   7.114 -0.3884 -0.1474  0.7556
  169SAPE   H4R19088   0.324   4.410   7.130 -1.5958  1.0238  0.4251
  169SAPE   H4S19089   0.441   4.542   7.203 -0.3387  0.7924  0.1517
  169SAPE   C2519090   0.520   4.401   7.073  0.0457 -0.1810 -0.6347
  169SAPE   H5R19091   0.570   4.427   6.978  0.4075 -0.2681 -0.4708
  169SAPE   C2619092   0.574   4.301   7.156 -0.5457 -0.7942  0.6198
  169SAPE   H6R19093   0.661   4.248   7.115 -1.4301 -2.7346  1.1462
  169SAPE   C2719094   0.532   4.261   7.291 -0.3710  0.0145  0.7308
  169SAPE   H7R19095   0.460   4.327   7.344 -0.9775 -1.0994  1.3238
  169SAPE   H7S19096   0.623   4.257   7.355  0.9114 -0.2689 -1.0511
  169SAPE   C2819097   0.473   4.121   7.277  0.0792 -0.2783  0.0219
  169SAPE   H8R19098   0.434   4.095   7.177 -0.0060  1.9922 -0.5770
  169SAPE   C2919099   0.447   4.036   7.377  0.6739 -0.0405 -0.0931
  169SAPE   H9R19100   0.405   3.935   7.369  1.3598 -0.4043  0.7212
  169SAPE  C21019101   0.474   4.054   7.524 -0.8309  0.1967  0.2646
  169SAPE  H10R19102   0.548   4.136   7.541 -2.2388  1.6269 -0.2102
  169SAPE  H10S19103   0.522   3.960   7.558  0.1846  0.1486 -1.2276
  169SAPE  C21119104   0.346   4.088   7.600 -0.0913 -0.5423  0.1199
  169SAPE  H11R19105   0.272   4.137   7.535  1.2063  1.3785  0.0138
  169SAPE  C21219106   0.316   4.059   7.729  0.3605  0.0846 -0.6270
  169SAPE  H12R19107   0.219   4.092   7.769 -0.2261 -1.3752 -0.7895
  169SAPE  C21319108   0.404   3.995   7.830 -0.3901 -0.2272 -0.4244
  169SAPE  H13R19109   0.462   4.082   7.869 -1.3044 -0.3855  1.3680
  169SAPE  H13S19110   0.475   3.938   7.766  0.2647  1.1527 -0.9743
  169SAPE  C21419111   0.355   3.917   7.943  0.1214  0.0998 -0.1413
  169SAPE  H14R19112   0.328   3.814   7.916 -1.1216 -0.0283  1.4383
  169SAPE  C21519113   0.340   3.956   8.073 -0.8642 -0.4321 -0.3289
  169SAPE  H15R19114   0.296   3.894   8.153  0.8474 -0.8116  0.3639
  169SAPE  C21619115   0.381   4.094   8.126 -0.5678  0.5508  0.6274
  169SAPE  H16R19116   0.300   4.166   8.101 -0.9114 -0.4119 -1.1835
  169SAPE  H16S19117   0.459   4.140   8.063 -0.3055 -1.0485 -0.2606
  169SAPE  C21719118   0.419   4.105   8.276 -0.2289  0.4820  0.3038
  169SAPE  H17R19119   0.335   4.054   8.329 -0.3090 -0.4384 -0.6841
  169SAPE  H17S19120   0.410   4.213   8.300 -1.5048  0.3966  0.2800
  169SAPE  C21819121   0.549   4.044   8.313  0.4781 -0.3163  0.6021
  169SAPE  H18R19122   0.565   3.950   8.257  0.9833 -0.0048  0.2049
  169SAPE  H18S19123   0.557   4.034   8.423 -0.8446  0.8656  0.8303
  169SAPE  C21919124   0.662   4.138   8.280  0.0790  0.6082  0.5348
  169SAPE  H19R19125   0.629   4.244   8.287 -1.2624  0.2664 -0.1819
  169SAPE  H19S19126   0.684   4.114   8.174  0.1387 -0.5532  0.7956
  169SAPE  C22019127   0.785   4.108   8.368  0.7498 -0.1039 -0.0578
  169SAPE  H20R19128   0.772   4.147   8.471  0.6685  0.6163 -0.3374
  169SAPE  H20S19129   0.876   4.157   8.326  0.4150 -0.8442 -1.7479
  169SAPE  H20T19130   0.801   3.998   8.365 -0.5924 -0.3016 -2.9847
  169SAPE   C3319131  -0.196   4.622   7.138 -0.6115  0.5192 -0.0813
  169SAPE   H3X19132  -0.212   4.514   7.122 -0.8119  0.5353  0.0146
  169SAPE   H3Y19133  -0.239   4.648   7.237 -0.8742 -0.5752  0.0990
  169SAPE   C3419134  -0.045   4.646   7.146 -0.8366  0.3602 -0.1869
  169SAPE   H4X19135   0.007   4.741   7.119  1.2233 -0.8110 -0.5811
  169SAPE   H4Y19136  -0.003   4.584   7.063 -1.0893  0.3358 -0.2988
  169SAPE   C3519137   0.022   4.602   7.280  0.4271  0.7395  0.3414
  169SAPE   H5X19138  -0.016   4.676   7.354  0.1082  0.1935  0.7332
  169SAPE   H5Y19139   0.129   4.627   7.270  0.4284  0.0468 -1.6878
  169SAPE   C3619140  -0.010   4.456   7.324 -0.8009 -0.4056 -0.1712
  169SAPE   H6X19141  -0.113   4.424   7.299 -1.1225  0.5261 -0.0989
  169SAPE   H6Y19142  -0.006   4.459   7.435  0.4031  2.0048 -0.2088
  169SAPE   C3719143   0.096   4.346   7.275 -0.6659  0.0300 -0.4221
  169SAPE   H7X19144   0.198   4.389   7.286 -0.2953 -0.9757  0.1362
  169SAPE   H7Y19145   0.074   4.317   7.170 -1.8445 -0.8348  0.0375
  169SAPE   C3819146   0.093   4.220   7.359 -0.1205  0.5572 -0.6303
  169SAPE   H8X19147   0.115   4.248   7.464  0.0477 -0.4611 -0.3765
  169SAPE   H8Y19148   0.168   4.147   7.320 -0.5134 -0.7810  0.9872
  169SAPE   C3919149  -0.037   4.139   7.362 -0.7994  0.5029  0.0734
  169SAPE   H9X19150  -0.046   4.086   7.265 -3.7920  0.8874  0.0655
  169SAPE   H9Y19151  -0.121   4.210   7.376 -0.2879  0.9847  0.8242
  169SAPE  C31019152  -0.046   4.034   7.472  0.1512  0.1080 -0.6571
  169SAPE  H10X19153   0.058   3.999   7.492  1.3893  3.1918 -1.0497
  169SAPE  H10Y19154  -0.109   3.950   7.434 -0.2177  0.0447  0.0933
  169SAPE  C31119155  -0.103   4.086   7.604 -0.0508 -0.0882 -0.0526
  169SAPE  H11X19156  -0.210   4.108   7.586 -0.0909 -1.4163 -1.6887
  169SAPE  H11Y19157  -0.042   4.174   7.635  0.9083 -0.5651 -0.5169
  169SAPE  C31219158  -0.078   3.980   7.711  0.0295  0.3035  0.1438
  169SAPE  H12X19159   0.032   3.966   7.722  0.1526  0.5540 -0.7503
  169SAPE  H12Y19160  -0.107   3.878   7.677 -3.5798  1.0537  0.5780
  169SAPE  C31319161  -0.147   4.006   7.845  0.5573  0.2564  0.3012
  169SAPE  H13X19162  -0.248   3.960   7.835  0.6113  0.5782 -2.8122
  169SAPE  H13Y19163  -0.166   4.114   7.866  0.3880  0.2548  0.1622
  169SAPE  C31419164  -0.061   3.959   7.963  0.0418 -0.0059 -0.9798
  169SAPE  H14X19165   0.019   4.034   7.975  0.2518 -0.0433 -2.0552
  169SAPE  H14Y19166  -0.022   3.857   7.943 -0.7803 -1.3096  3.0862
  169SAPE  C31519167  -0.148   3.941   8.091  0.3551 -0.6205 -0.2302
  169SAPE  H15X19168  -0.227   3.867   8.066  1.5085 -1.4346 -1.5719
  169SAPE  H15Y19169  -0.213   4.032   8.095 -1.0159 -1.3823 -2.8252
  169SAPE  C31619170  -0.064   3.904   8.210 -0.9542  0.4332  0.2741
  169SAPE  H16X19171  -0.004   3.813   8.190 -0.3331  0.4855  1.7161
  169SAPE  H16Y19172  -0.122   3.872   8.300 -3.6902  0.5736 -1.3298
  169SAPE  C31719173   0.029   4.022   8.261  0.2210  0.3095 -0.5115
  169SAPE  H17X19174  -0.026   4.117   8.278  0.8372  0.5040  0.5109
  169SAPE  H17Y19175   0.110   4.045   8.189  0.0517 -0.5591 -0.9849
  169SAPE  C31819176   0.076   3.987   8.401  0.1492  0.2898 -0.0562
  169SAPE  H18X19177  -0.002   3.951   8.471  1.3858 -3.0964 -0.2251
  169SAPE  H18Y19178   0.120   4.082   8.439  1.5502 -0.6538  0.8166
  169SAPE  H18Z19179   0.150   3.904   8.404  0.7443  0.8237  0.1666
  170SAPE     N19180   4.425   0.832   6.226  0.3404 -0.1250 -0.0142
  170SAPE   HN119181   4.443   0.801   6.129 -0.8703  2.4339 -1.1753
  170SAPE   HN219182   4.465   0.925   6.250 -1.4251  0.7458 -0.2551
  170SAPE   HN319183   4.474   0.768   6.292 -0.0622  0.5177  0.9391
  170SAPE   C1219184   4.286   0.821   6.266  0.2808  0.2956  0.3639
  170SAPE  H12A19185   4.267   0.873   6.363  0.2591  3.9750 -1.4226
  170SAPE  H12B19186   4.271   0.712   6.280 -0.1555 -0.1032 -2.6501
  170SAPE   C1119187   4.182   0.867   6.158  0.4057 -1.4220  0.2890
  170SAPE  H11A19188   4.080   0.850   6.198  1.1917 -3.8144  1.4331
  170SAPE  H11B19189   4.188   0.807   6.065 -0.1051  0.7297 -1.2285
  170SAPE     P19190   4.136   1.125   6.186 -0.0523 -0.6839 -0.3594
  170SAPE   O1319191   4.228   1.240   6.190  0.3091 -0.3881 -0.5901
  170SAPE   O1419192   4.014   1.161   6.112  0.5803  0.4026 -0.0944
  170SAPE   O1219193   4.210   1.006   6.126 -0.9024 -0.1543  0.4410
  170SAPE   O1119194   4.090   1.070   6.335 -0.0522 -0.3113  0.4794
  170SAPE    C119195   3.959   1.025   6.363 -0.7988  0.1046 -0.6057
  170SAPE    HA19196   3.921   0.944   6.299  0.6179 -2.5455  1.6778
  170SAPE    HB19197   3.981   0.971   6.457  2.1093 -0.8592 -1.7110
  170SAPE    C219198   3.855   1.139   6.392  1.2198 -0.4035 -0.2384
  170SAPE    HS19199   3.841   1.201   6.301  1.0945 -1.4829 -0.9756
  170SAPE   O2119200   3.905   1.222   6.496  0.4460  0.0166  0.5901
  170SAPE   C2119201   3.858   1.344   6.507 -0.1392 -0.3412 -0.3287
  170SAPE   O2219202   3.775   1.392   6.436  0.1524 -0.1501  0.4331
  170SAPE   C2219203   3.911   1.402   6.637  0.7632  0.3069 -0.6850
  170SAPE   H2R19204   4.012   1.361   6.657  0.6301  0.0600 -0.5165
  170SAPE   H2S19205   3.915   1.513   6.637  1.3306  0.2870  0.0294
  170SAPE    C319206   3.723   1.075   6.439  0.2777 -0.0462 -0.0385
  170SAPE    HX19207   3.694   1.021   6.346  1.1017  1.0713 -0.9851
  170SAPE    HY19208   3.648   1.155   6.456 -2.0358 -1.8707 -1.0417
  170SAPE   O3119209   3.741   0.984   6.549 -0.8423 -0.3379  0.4003
  170SAPE   C3119210   3.684   1.018   6.668  0.0105 -0.4192  0.1574
  170SAPE   O3219211   3.618   1.121   6.682  0.3851 -0.1185  0.3136
  170SAPE   C3219212   3.702   0.919   6.784  0.2629 -0.1417 -0.0346
  170SAPE   H2X19213   3.654   0.827   6.746  0.2119  0.3959 -1.3252
  170SAPE   H2Y19214   3.642   0.965   6.865  1.1790  1.0731 -0.0183
  170SAPE   C2319215   3.831   1.354   6.763  0.7733  0.3342  0.3439
  170SAPE   H3R19216   3.816   1.246   6.743 -1.8790  0.8902 -1.1504
  170SAPE   H3S19217   3.724   1.384   6.772  0.6990  0.7484 -1.5837
  170SAPE   C2419218   3.915   1.370   6.894  0.2754 -0.1449  0.5735
  170SAPE   H4R19219   3.887   1.469   6.935  1.2893 -0.3393  1.7858
  170SAPE   H4S19220   4.022   1.373   6.864 -0.5212 -0.3192 -2.7470
  170SAPE   C2519221   3.877   1.251   6.986  0.0550  0.5529 -0.0399
  170SAPE   H5R19222   3.799   1.182   6.949 -0.8726  1.4949  0.1039
  170SAPE   C2619223   3.934   1.231   7.107 -0.1545  0.1698  0.5367
  170SAPE   H6R19224   3.899   1.149   7.172  0.2474  1.4180  2.4051
  170SAPE   C2719225   4.039   1.319   7.180 -0.1332  0.5420  0.3929
  170SAPE   H7R19226   3.982   1.367   7.263  1.5597 -0.4770  2.2173
  170SAPE   H7S19227   4.072   1.394   7.105  1.2872 -0.0005  0.4577
  170SAPE   C2819228   4.167   1.246   7.218 -0.2711 -0.1988  0.7404
  170SAPE   H8R19229   4.240   1.223   7.139 -3.0283  2.7228 -3.0497
  170SAPE   C2919230   4.178   1.190   7.341 -0.1736 -0.8791 -0.1083
  170SAPE   H9R19231   4.271   1.140   7.372  1.1994  2.4360  1.5894
  170SAPE  C21019232   4.073   1.191   7.449 -0.3653  0.4016 -0.1328
  170SAPE  H10R19233   4.092   1.098   7.507  0.9915 -0.4533 -1.8476
  170SAPE  H10S19234   3.969   1.189   7.412 -1.1472 -1.6400  1.9472
  170SAPE  C21119235   4.088   1.309   7.540 -0.0865  0.7130 -0.1291
  170SAPE  H11R19236   4.141   1.387   7.482  0.5367 -0.0052 -0.5491
  170SAPE  C21219237   4.044   1.314   7.669 -0.9403 -0.4319  0.0657
  170SAPE  H12R19238   4.087   1.393   7.734  1.3551 -1.5230 -0.0184
  170SAPE  C21319239   3.975   1.195   7.738  0.2963  0.0036 -0.6121
  170SAPE  H13R19240   4.056   1.120   7.758 -0.3696 -0.2656  1.2951
  170SAPE  H13S19241   3.908   1.147   7.664  0.5038 -0.1718 -0.6876
  170SAPE  C21419242   3.903   1.215   7.872  0.5018  0.3725  0.8746
  170SAPE  H14R19243   3.805   1.256   7.846  0.5327 -0.7605 -1.2685
  170SAPE  C21519244   3.954   1.215   7.995 -0.2018  0.3667  0.5747
  170SAPE  H15R19245   3.882   1.253   8.069 -3.2397  1.8357 -2.8147
  170SAPE  C21619246   4.097   1.189   8.039  0.2112  0.0144 -0.6314
  170SAPE  H16R19247   4.168   1.190   7.954 -1.2173  0.8871 -1.8693
  170SAPE  H16S19248   4.098   1.091   8.091 -1.4093  0.2291 -0.1188
  170SAPE  C21719249   4.157   1.291   8.135 -0.3905 -0.2276  0.0034
  170SAPE  H17R19250   4.169   1.387   8.080  0.6637 -0.4527 -0.1921
  170SAPE  H17S19251   4.258   1.260   8.172  0.3551 -0.1499 -1.8591
  170SAPE  C21819252   4.071   1.307   8.267  0.1677 -0.4763 -0.4497
  170SAPE  H18R19253   4.068   1.213   8.327 -1.1291  0.2457  0.6730
  170SAPE  H18S19254   3.967   1.335   8.241  0.5862  0.4195 -1.2031
  170SAPE  C21919255   4.138   1.408   8.361 -0.5116  0.0934 -0.1458
  170SAPE  H19R19256   4.139   1.509   8.314 -1.0463  0.3346  0.3545
  170SAPE  H19S19257   4.245   1.385   8.379 -0.4918 -0.1430 -0.5497
  170SAPE  C22019258   4.072   1.419   8.492  0.3208 -0.2386 -0.3064
  170SAPE  H20R19259   4.081   1.319   8.538 -1.2818 -0.1741  0.2038
  170SAPE  H20S19260   3.966   1.447   8.475  0.0465 -0.6707  0.6514
  170SAPE  H20T19261   4.122   1.496   8.555  0.8934 -0.5995 -0.3115
  170SAPE   C3319262   3.852   0.909   6.819  0.2821 -0.1276  0.6729
  170SAPE   H3X19263   3.892   1.012   6.829  0.2230  0.2258 -1.9982
  170SAPE   H3Y19264   3.909   0.863   6.736  1.6887  1.0797  0.9191
  170SAPE   C3419265   3.888   0.820   6.940  0.1279 -0.0576  0.7909
  170SAPE   H4X19266   3.998   0.827   6.952  0.1943 -0.1169  0.2063
  170SAPE   H4Y19267   3.864   0.714   6.915 -1.4229  0.2391  0.9226
  170SAPE   C3519268   3.817   0.872   7.067 -0.1888  0.1891  0.2992
  170SAPE   H5X19269   3.710   0.843   7.059  0.4349 -1.9543 -1.1398
  170SAPE   H5Y19270   3.835   0.982   7.066  2.0903 -0.0607  2.9107
  170SAPE   C3619271   3.888   0.825   7.199  0.7617 -1.1140 -0.3830
  170SAPE   H6X19272   3.983   0.882   7.211 -0.1752  0.2255  1.2702
  170SAPE   H6Y19273   3.909   0.718   7.178 -0.9969 -1.4273 -0.6990
  170SAPE   C3719274   3.802   0.844   7.329 -0.1734  0.4136  0.7175
  170SAPE   H7X19275   3.704   0.792   7.324 -0.6773  1.2172  1.7268
  170SAPE   H7Y19276   3.765   0.948   7.339 -0.9316  0.2320 -0.0803
  170SAPE   C3819277   3.878   0.791   7.455  0.2996  0.3085 -0.4627
  170SAPE   H8X19278   3.975   0.845   7.463  0.4850 -0.2225  1.3289
  170SAPE   H8Y19279   3.895   0.682   7.442 -1.4557 -0.7293  4.0794
  170SAPE   C3919280   3.797   0.817   7.582  0.2000 -0.1981  0.8283
  170SAPE   H9X19281   3.691   0.793   7.556  0.4437 -0.9947  0.5351
  170SAPE   H9Y19282   3.805   0.923   7.615  1.9018  0.5135 -1.5307
  170SAPE  C31019283   3.839   0.730   7.697 -0.8011  0.2511  0.4554
  170SAPE  H10X19284   3.932   0.771   7.742 -0.6609  0.0253  0.3727
  170SAPE  H10Y19285   3.867   0.633   7.650 -0.3726  0.6615 -0.1593
  170SAPE  C31119286   3.725   0.706   7.791 -0.7337  0.0691  0.1501
  170SAPE  H11X19287   3.646   0.662   7.727 -1.0928  1.4265 -0.3734
  170SAPE  H11Y19288   3.685   0.803   7.826 -0.3313  0.8474 -1.4350
  170SAPE  C31219289   3.747   0.603   7.896 -0.3207 -0.7055  0.4216
  170SAPE  H12X19290   3.832   0.643   7.955  0.0801 -3.1904  1.7001
  170SAPE  H12Y19291   3.776   0.501   7.862  2.1218  0.0804 -0.0477
  170SAPE  C31319292   3.633   0.597   8.000  0.0462 -0.2667 -0.5435
  170SAPE  H13X19293   3.537   0.610   7.946  0.2022  0.6178 -0.6246
  170SAPE  H13Y19294   3.637   0.681   8.072  0.6804 -1.4585  0.8697
  170SAPE  C31419295   3.627   0.467   8.080 -0.2015  0.0854  0.5353
  170SAPE  H14X19296   3.733   0.442   8.102 -0.5101 -2.0713 -0.2200
  170SAPE  H14Y19297   3.592   0.392   8.006 -0.4946  0.3595  0.3923
  170SAPE  C31519298   3.551   0.469   8.216  0.5542 -0.2386 -0.0953
  170SAPE  H15X19299   3.530   0.367   8.253 -2.0740 -0.0972 -0.9897
  170SAPE  H15Y19300   3.450   0.506   8.191  0.5020  0.5859  1.2681
  170SAPE  C31619301   3.623   0.551   8.324 -0.4438  0.4267 -0.3115
  170SAPE  H16X19302   3.646   0.650   8.281  3.0554  0.2647  0.8977
  170SAPE  H16Y19303   3.720   0.500   8.345 -0.6781  0.4836  1.0137
  170SAPE  C31719304   3.547   0.563   8.454 -0.0195  0.0238 -0.4218
  170SAPE  H17X19305   3.472   0.481   8.459 -0.2698  0.2940  0.6304
  170SAPE  H17Y19306   3.482   0.651   8.468  0.0903 -0.1636  1.7157
  170SAPE  C31819307   3.632   0.554   8.584 -0.7412  0.3225 -0.5752
  170SAPE  H18X19308   3.729   0.608   8.583  0.8979 -2.4225  0.5025
  170SAPE  H18Y19309   3.666   0.449   8.589 -0.8382  0.1448 -2.5849
  170SAPE  H18Z19310   3.568   0.575   8.672  0.5085  1.4032  0.1060
  171SAPE     N19311   4.753   1.953   6.573 -0.0518 -0.1139 -0.1421
  171SAPE   HN119312   4.670   1.924   6.629 -1.2517  1.3584 -1.0568
  171SAPE   HN219313   4.816   1.871   6.577  1.6815  1.0723 -1.5906
  171SAPE   HN319314   4.803   2.028   6.625  2.5807 -2.0279  0.2859
  171SAPE   C1219315   4.705   1.982   6.431 -0.4502  0.1183  0.3209
  171SAPE  H12A19316   4.766   1.924   6.358 -0.8197 -1.1013  0.9392
  171SAPE  H12B19317   4.727   2.089   6.414  0.7045  0.1954  2.0673
  171SAPE   C1119318   4.564   1.937   6.398 -0.5418 -0.2434 -0.0778
  171SAPE  H11A19319   4.569   1.923   6.288 -0.5600 -0.9710  0.0127
  171SAPE  H11B19320   4.493   2.021   6.418  0.9905  0.8358  1.0408
  171SAPE     P19321   4.417   1.722   6.389 -0.1333 -0.1031  0.1006
  171SAPE   O1319322   4.359   1.799   6.274  0.0066  0.5052 -0.0287
  171SAPE   O1419323   4.497   1.595   6.361  0.3384 -0.0335  0.1095
  171SAPE   O1219324   4.514   1.821   6.468 -0.0498  0.2242  0.7511
  171SAPE   O1119325   4.308   1.688   6.506  0.6348 -0.3758  0.3594
  171SAPE    C119326   4.259   1.797   6.587 -0.3028 -0.2601  0.2033
  171SAPE    HA19327   4.262   1.892   6.529 -0.9130 -0.4472 -0.1397
  171SAPE    HB19328   4.149   1.785   6.602 -0.7007  0.2487 -1.9368
  171SAPE    C219329   4.330   1.808   6.718 -0.0786  0.6553 -0.2813
  171SAPE    HS19330   4.437   1.791   6.695 -0.3087  2.7127 -3.4820
  171SAPE   O2119331   4.281   1.715   6.810  0.6454  0.2142 -0.5586
  171SAPE   C2119332   4.358   1.644   6.895  0.5381 -0.4348  0.7085
  171SAPE   O2219333   4.477   1.643   6.901 -0.4946 -0.5444  0.5938
  171SAPE   C2219334   4.261   1.582   6.996 -0.0547  0.2575 -0.0213
  171SAPE   H2R19335   4.181   1.535   6.934 -2.0097  1.5309  1.4145
  171SAPE   H2S19336   4.310   1.496   7.046  3.5629  1.2779 -1.4804
  171SAPE    C319337   4.329   1.958   6.766  0.4164  0.3670  0.1498
  171SAPE    HX19338   4.224   1.991   6.781  0.6937  0.5239  1.8675
  171SAPE    HY19339   4.382   2.024   6.693  0.9749 -1.8639 -1.6179
  171SAPE   O3119340   4.386   1.964   6.900 -0.1318  0.0448  0.3934
  171SAPE   C3119341   4.516   1.988   6.892 -0.5218  0.0346  0.6450
  171SAPE   O3219342   4.580   2.006   6.785  0.4112  0.1397 -0.5409
  171SAPE   C3219343   4.567   1.972   7.029 -0.4392 -0.4897  0.1086
  171SAPE   H2X19344   4.508   1.899   7.090 -1.8135  1.2186  0.9196
  171SAPE   H2Y19345   4.546   2.074   7.068  2.5446  1.0885 -2.0137
  171SAPE   C2319346   4.188   1.690   7.085 -0.3994 -0.5687  0.3950
  171SAPE   H3R19347   4.078   1.685   7.069 -0.4698 -1.7697  1.1582
  171SAPE   H3S19348   4.211   1.792   7.048  1.5570 -1.0014  0.3314
  171SAPE   C2419349   4.226   1.690   7.237  0.2900  0.5722  0.2531
  171SAPE   H4R19350   4.193   1.593   7.279 -0.2435  0.3662 -0.6098
  171SAPE   H4S19351   4.176   1.767   7.299 -3.4037 -0.9672 -0.5443
  171SAPE   C2519352   4.377   1.702   7.249 -0.2383  0.1207  0.6139
  171SAPE   H5R19353   4.436   1.671   7.162  0.6931 -0.1211  1.3155
  171SAPE   C2619354   4.446   1.744   7.356 -0.6397  0.1344 -0.4980
  171SAPE   H6R19355   4.556   1.751   7.348 -0.4002 -0.0208  1.9526
  171SAPE   C2719356   4.381   1.764   7.494 -0.7464 -0.4020 -0.5042
  171SAPE   H7R19357   4.287   1.817   7.469  0.6778  0.7892 -4.0166
  171SAPE   H7S19358   4.450   1.831   7.551 -0.7528 -0.8454  0.0351
  171SAPE   C2819359   4.342   1.642   7.574 -0.9228 -0.1640  0.0969
  171SAPE   H8R19360   4.337   1.548   7.516 -0.6060 -0.4433  0.5129
  171SAPE   C2919361   4.326   1.625   7.704  0.0091 -0.5430 -0.4002
  171SAPE   H9R19362   4.305   1.524   7.742 -0.5942  0.3328  1.6940
  171SAPE  C21019363   4.341   1.727   7.811 -0.4366 -0.8099  0.3478
  171SAPE  H10R19364   4.246   1.743   7.865  0.1390  3.6065  0.3911
  171SAPE  H10S19365   4.364   1.828   7.772  0.2075 -0.2743  2.0482
  171SAPE  C21119366   4.451   1.701   7.915  0.2081  0.4353 -0.3073
  171SAPE  H11R19367   4.556   1.697   7.882 -0.0402 -0.9939 -0.9691
  171SAPE  C21219368   4.434   1.672   8.045 -0.9720  0.2187  0.0245
  171SAPE  H12R19369   4.523   1.648   8.106  0.4107  1.3005 -1.4931
  171SAPE  C21319370   4.302   1.677   8.115 -0.4506  0.3419 -0.0459
  171SAPE  H13R19371   4.302   1.598   8.194 -1.9735  1.2814  0.9471
  171SAPE  H13S19372   4.229   1.643   8.038  1.1271 -2.2786 -0.5085
  171SAPE  C21419373   4.274   1.814   8.170  0.3585 -0.3183  0.3600
  171SAPE  H14R19374   4.258   1.889   8.092  3.2441 -0.3822 -0.4106
  171SAPE  C21519375   4.265   1.851   8.299  0.7726  0.0132  0.9458
  171SAPE  H15R19376   4.252   1.958   8.321 -0.4383 -0.0423  0.5723
  171SAPE  C21619377   4.295   1.755   8.413  0.2539  0.0821 -0.4105
  171SAPE  H16R19378   4.362   1.671   8.385  0.4176  0.6060 -1.6697
  171SAPE  H16S19379   4.198   1.721   8.455 -0.3643 -0.9196 -2.5500
  171SAPE  C21719380   4.363   1.826   8.529  0.1417  0.8346  0.2567
  171SAPE  H17R19381   4.368   1.752   8.612  1.6029  0.5485 -0.0694
  171SAPE  H17S19382   4.310   1.920   8.556  0.3274  0.5137  1.8275
  171SAPE  C21819383   4.507   1.852   8.492  0.1328 -0.0377 -0.2137
  171SAPE  H18R19384   4.506   1.925   8.408 -1.4319 -0.0195 -0.2026
  171SAPE  H18S19385   4.562   1.762   8.455 -1.1764 -1.7863  1.8424
  171SAPE  C21919386   4.589   1.922   8.602 -0.0876  0.0763  0.0481
  171SAPE  H19R19387   4.570   1.863   8.694 -0.9818  1.3453  0.6996
  171SAPE  H19S19388   4.555   2.026   8.623  0.3205 -0.3547  3.3552
  171SAPE  C22019389   4.742   1.930   8.577  0.4971  0.2612 -0.4640
  171SAPE  H20R19390   4.774   1.824   8.562  0.0449  0.2767 -1.6816
  171SAPE  H20S19391   4.803   1.978   8.656  1.6228  0.7038 -1.5604
  171SAPE  H20T19392   4.773   1.977   8.481  1.8258 -1.2065 -0.8011
  171SAPE   C3319393   4.722   1.958   7.028 -1.2086  0.1917 -0.1028
  171SAPE   H3X19394   4.784   2.037   6.979 -1.0200  1.3749  1.9335
  171SAPE   H3Y19395   4.748   1.859   6.984 -0.2257 -0.4800  1.8524
  171SAPE   C3419396   4.780   1.967   7.174  0.6517  0.1911  0.1287
  171SAPE   H4X19397   4.884   1.928   7.166  0.5344 -0.6606  2.2159
  171SAPE   H4Y19398   4.725   1.891   7.233  1.1577 -0.3474 -0.0887
  171SAPE   C3519399   4.764   2.106   7.240  0.4788  0.3918  1.6874
  171SAPE   H5X19400   4.654   2.112   7.259  0.2598 -2.4729  1.7737
  171SAPE   H5Y19401   4.805   2.181   7.170  0.3346 -0.1401  1.0216
  171SAPE   C3619402   4.828   2.110   7.381  0.0502 -0.0868  0.4310
  171SAPE   H6X19403   4.832   2.211   7.426  0.9668  0.0606  0.0397
  171SAPE   H6Y19404   4.932   2.084   7.354 -1.0275 -1.7676 -2.7497
  171SAPE   C3719405   4.765   2.012   7.474  0.8231 -1.0809 -0.1557
  171SAPE   H7X19406   4.776   1.905   7.450  0.5502 -1.4059  1.0866
  171SAPE   H7Y19407   4.657   2.029   7.491  0.7590  0.4994 -1.7858
  171SAPE   C3819408   4.822   2.014   7.615 -0.5415  0.1878  0.3702
  171SAPE   H8X19409   4.837   2.111   7.666  1.2638 -0.7757  1.8104
  171SAPE   H8Y19410   4.929   1.984   7.605 -0.6747 -0.7916  1.5882
  171SAPE   C3919411   4.743   1.921   7.698  0.3149  0.4142 -1.3588
  171SAPE   H9X19412   4.713   1.835   7.634  0.2475 -0.9378  0.4097
  171SAPE   H9Y19413   4.648   1.962   7.739  0.7568  1.9802 -1.8164
  171SAPE  C31019414   4.815   1.846   7.808 -0.0571  0.8620  0.2871
  171SAPE  H10X19415   4.918   1.820   7.776  0.2509  1.2981  0.8988
  171SAPE  H10Y19416   4.766   1.749   7.829 -1.0621  1.0712 -0.9675
  171SAPE  C31119417   4.812   1.923   7.945 -0.2211  0.5035 -0.0135
  171SAPE  H11X19418   4.706   1.946   7.969 -0.0023 -1.2290  3.1170
  171SAPE  H11Y19419   4.865   2.020   7.936 -2.1718  1.5395 -0.9546
  171SAPE  C31219420   4.873   1.843   8.062 -0.0645 -0.3308  0.0770
  171SAPE  H12X19421   4.956   1.779   8.026 -0.3257 -0.6830  0.0996
  171SAPE  H12Y19422   4.802   1.772   8.110 -0.2881 -0.6020 -0.6418
  171SAPE  C31319423   4.920   1.945   8.170  0.2934 -0.0738 -0.1594
  171SAPE  H13X19424   4.924   1.893   8.268  1.7882 -1.9413 -1.1202
  171SAPE  H13Y19425   4.837   2.018   8.176  0.6971  0.3069  0.9959
  171SAPE  C31419426   5.055   2.020   8.138  0.3548 -0.2306  0.5265
  171SAPE  H14X19427   5.055   2.070   8.039  0.1421 -0.0121  0.6365
  171SAPE  H14Y19428   5.142   1.952   8.126 -0.7975 -1.9041  1.1504
  171SAPE  C31519429   5.071   2.140   8.231  0.2949  0.6512  0.3673
  171SAPE  H15X19430   5.057   2.102   8.335  2.3655  0.5236  0.6303
  171SAPE  H15Y19431   4.980   2.202   8.218  0.3809  0.6394 -0.3158
  171SAPE  C31619432   5.201   2.220   8.211  0.3664  0.2625 -0.2690
  171SAPE  H16X19433   5.187   2.284   8.121 -2.1645  2.6194  1.6360
  171SAPE  H16Y19434   5.289   2.153   8.207  2.2578  2.4541  1.5591
  171SAPE  C31719435   5.211   2.315   8.325  0.3265 -0.0139 -0.4249
  171SAPE  H17X19436   5.215   2.256   8.420  1.0350  3.1107  1.6349
  171SAPE  H17Y19437   5.125   2.384   8.337 -0.0924 -0.5546 -0.3051
  171SAPE  C31819438   5.343   2.399   8.316 -0.4428  0.1207  0.1834
  171SAPE  H18X19439   5.358   2.456   8.411 -0.7014  2.5466 -1.1666
  171SAPE  H18Y19440   5.333   2.464   8.227 -1.5533 -0.0161  0.1952
  171SAPE  H18Z19441   5.431   2.331   8.317 -0.1470  0.3718  3.2855
  172SAPE     N19442   4.778   2.796   6.230  0.5798 -0.7772  0.4846
  172SAPE   HN119443   4.851   2.870   6.223  1.8009 -2.0323 -0.6860
  172SAPE   HN219444   4.761   2.767   6.329  1.7290 -4.1318 -0.1739
  172SAPE   HN319445   4.825   2.715   6.186  1.4934 -0.1227  0.2219
  172SAPE   C1219446   4.643   2.824   6.163  0.0320  0.1786  0.2023
  172SAPE  H12A19447   4.673   2.859   6.062  0.5898  0.5422  0.4873
  172SAPE  H12B19448   4.597   2.910   6.215  1.0254 -0.0484  1.4969
  172SAPE   C1119449   4.551   2.702   6.170 -0.6325 -0.1828 -0.0450
  172SAPE  H11A19450   4.582   2.638   6.085 -0.0400  1.1388 -0.8675
  172SAPE  H11B19451   4.449   2.742   6.154 -0.2024  1.2791  0.6927
  172SAPE     P19452   4.516   2.489   6.307 -0.0045 -0.1675  0.3698
  172SAPE   O1319453   4.388   2.481   6.230 -0.4797 -0.4111 -0.0158
  172SAPE   O1419454   4.637   2.410   6.259 -0.3369 -0.8575 -0.1650
  172SAPE   O1219455   4.560   2.642   6.304  0.3997  0.1904  0.0877
  172SAPE   O1119456   4.490   2.470   6.459  0.6832  0.3628  0.0708
  172SAPE    C119457   4.404   2.563   6.523 -0.0290  0.3906  0.3522
  172SAPE    HA19458   4.441   2.668   6.514  0.2722  0.1705 -1.2970
  172SAPE    HB19459   4.304   2.554   6.475  1.4822 -0.4293 -2.9495
  172SAPE    C219460   4.387   2.521   6.676  0.2832 -0.1406 -0.3787
  172SAPE    HS19461   4.335   2.606   6.725 -1.5304 -1.8337  0.7844
  172SAPE   O2119462   4.513   2.478   6.735  0.4516  0.5065 -0.1671
  172SAPE   C2119463   4.579   2.568   6.793  0.1124  0.0886  0.0364
  172SAPE   O2219464   4.560   2.688   6.775  1.5963  0.9106 -0.1664
  172SAPE   C2219465   4.690   2.510   6.875 -0.3453 -0.4250  0.0708
  172SAPE   H2R19466   4.746   2.450   6.801  0.6825  0.8282 -0.1943
  172SAPE   H2S19467   4.757   2.585   6.921  0.2944 -0.9911  0.0801
  172SAPE    C319468   4.292   2.398   6.704  0.5876 -0.2142 -0.7560
  172SAPE    HX19469   4.333   2.303   6.666  1.7860  0.6016 -1.5778
  172SAPE    HY19470   4.198   2.403   6.645 -0.3350 -1.6933  0.5015
  172SAPE   O3119471   4.263   2.382   6.846  0.9078 -0.4112  0.1577
  172SAPE   C3119472   4.168   2.286   6.871 -1.0505 -0.0160  0.4375
  172SAPE   O3219473   4.119   2.215   6.786 -0.1263  0.1735  0.3580
  172SAPE   C3219474   4.131   2.285   7.018  0.7534 -0.4607 -0.2948
  172SAPE   H2X19475   4.105   2.390   7.043  1.3685 -0.2244 -0.6227
  172SAPE   H2Y19476   4.220   2.244   7.069  0.0049 -2.0929 -0.2274
  172SAPE   C2319477   4.636   2.425   6.996  0.0368  0.3647  0.4498
  172SAPE   H3R19478   4.713   2.374   7.058 -0.7902  1.7416  2.7198
  172SAPE   H3S19479   4.570   2.342   6.963  0.3624  0.5795 -0.8058
  172SAPE   C2419480   4.561   2.522   7.098  0.9482 -0.0401  0.9132
  172SAPE   H4R19481   4.495   2.460   7.162 -1.1082  1.2133  0.1237
  172SAPE   H4S19482   4.472   2.573   7.054  0.7997  0.7585  2.1018
  172SAPE   C2519483   4.655   2.612   7.170  0.0431  0.0025  0.2623
  172SAPE   H5R19484   4.720   2.681   7.115  1.1111 -1.9226 -1.0167
  172SAPE   C2619485   4.675   2.617   7.307 -0.7424  0.6313  0.6568
  172SAPE   H6R19486   4.750   2.687   7.346 -0.3508  0.3759  0.3717
  172SAPE   C2719487   4.621   2.524   7.409 -0.2423 -0.0607 -0.3192
  172SAPE   H7R19488   4.677   2.428   7.418 -0.0164  0.2515  2.7738
  172SAPE   H7S19489   4.517   2.497   7.380 -0.0472  0.3051 -1.4179
  172SAPE   C2819490   4.604   2.588   7.547 -0.2803  0.0854  0.4500
  172SAPE   H8R19491   4.626   2.695   7.558 -0.4033  0.3081 -1.2195
  172SAPE   C2919492   4.552   2.525   7.653  0.0449 -0.2848 -0.4229
  172SAPE   H9R19493   4.557   2.583   7.746 -2.5317  0.0384 -0.4276
  172SAPE  C21019494   4.507   2.384   7.661 -0.2948  0.4429 -0.0758
  172SAPE  H10R19495   4.488   2.339   7.561 -2.4115 -4.2545  2.1201
  172SAPE  H10S19496   4.409   2.382   7.712 -0.6919  0.6510 -0.8071
  172SAPE  C21119497   4.616   2.306   7.736 -0.7002  0.0626  1.0577
  172SAPE  H11R19498   4.719   2.307   7.698 -0.0595  3.4011  2.5458
  172SAPE  C21219499   4.601   2.240   7.851  0.2438 -0.0684 -0.1695
  172SAPE  H12R19500   4.677   2.174   7.896 -0.8473 -0.1408  1.6609
  172SAPE  C21319501   4.466   2.228   7.919 -0.5894 -0.2865 -0.5339
  172SAPE  H13R19502   4.384   2.224   7.844 -0.9785 -0.3422 -0.1094
  172SAPE  H13S19503   4.437   2.313   7.984  1.7395 -1.2870  1.9967
  172SAPE  C21419504   4.473   2.104   8.010 -0.7923 -0.3001  0.0554
  172SAPE  H14R19505   4.489   2.006   7.964 -0.0569 -0.5567  0.8426
  172SAPE  C21519506   4.465   2.107   8.141 -0.8526  0.0549 -0.2660
  172SAPE  H15R19507   4.477   2.013   8.195  1.6627  0.4240 -0.0485
  172SAPE  C21619508   4.436   2.231   8.229  0.4040  0.0531  0.0598
  172SAPE  H16R19509   4.387   2.202   8.324  0.1577  2.2420  0.6439
  172SAPE  H16S19510   4.373   2.302   8.171 -1.1582 -0.3330  1.2387
  172SAPE  C21719511   4.571   2.302   8.250  0.8094  0.4696  0.3336
  172SAPE  H17R19512   4.542   2.399   8.298  0.5161  1.9811 -2.6657
  172SAPE  H17S19513   4.621   2.327   8.154  2.3550  2.0245  1.4719
  172SAPE  C21819514   4.674   2.225   8.340 -0.1232  0.7771 -1.1415
  172SAPE  H18R19515   4.721   2.145   8.278  1.4813  0.7238  0.1027
  172SAPE  H18S19516   4.629   2.173   8.427  0.7552 -1.2780 -1.8501
  172SAPE  C21919517   4.787   2.314   8.390  0.1756 -0.2473 -0.2405
  172SAPE  H19R19518   4.830   2.365   8.301 -0.8386 -0.9195 -1.1310
  172SAPE  H19S19519   4.864   2.249   8.438 -0.1666 -1.2294 -1.0024
  172SAPE  C22019520   4.738   2.432   8.486  0.1534  0.9226  0.2460
  172SAPE  H20R19521   4.666   2.405   8.567  2.0410 -0.3172  1.5767
  172SAPE  H20S19522   4.703   2.518   8.424 -1.4993  3.7742  4.6347
  172SAPE  H20T19523   4.826   2.466   8.545  0.8520  0.1087 -0.3064
  172SAPE   C3319524   4.007   2.195   7.052  0.4721 -0.6214  0.8817
  172SAPE   H3X19525   4.027   2.088   7.031 -0.3253 -1.2033  2.8522
  172SAPE   H3Y19526   3.926   2.232   6.985  0.5615 -1.9776  0.0037
  172SAPE   C3419527   3.968   2.215   7.197 -0.1986 -0.1471 -0.1573
  172SAPE   H4X19528   3.861   2.191   7.217 -0.4337  1.2702  0.4251
  172SAPE   H4Y19529   3.982   2.322   7.225  2.1691 -0.0878 -1.3592
  172SAPE   C3519530   4.063   2.131   7.282  0.6161  0.7613 -0.1831
  172SAPE   H5X19531   4.169   2.130   7.249  1.0450  3.9660  0.7235
  172SAPE   H5Y19532   4.032   2.028   7.255  2.6622  0.2650 -0.8244
  172SAPE   C3619533   4.057   2.162   7.435  0.4265  0.1283  0.1908
  172SAPE   H6X19534   3.960   2.150   7.488  0.2505 -0.7909 -0.3236
  172SAPE   H6Y19535   4.081   2.269   7.453 -1.3348  1.0987 -2.5641
  172SAPE   C3719536   4.157   2.087   7.519 -0.0419  0.0989  0.4618
  172SAPE   H7X19537   4.261   2.091   7.481 -0.4827  0.2541 -0.8019
  172SAPE   H7Y19538   4.128   1.980   7.515 -1.1325  0.3891  0.1286
  172SAPE   C3819539   4.164   2.135   7.662  0.0175  0.0530  0.2132
  172SAPE   H8X19540   4.168   2.245   7.673 -1.0990  0.1863 -0.5054
  172SAPE   H8Y19541   4.250   2.078   7.702 -0.7192 -0.9678  0.4022
  172SAPE   C3919542   4.052   2.087   7.747  0.7220 -0.5343  0.2057
  172SAPE   H9X19543   4.035   1.978   7.731 -2.1309 -0.1381  0.0654
  172SAPE   H9Y19544   3.958   2.140   7.724  0.9685  0.3475  1.1303
  172SAPE  C31019545   4.090   2.110   7.895 -0.6139  0.7261  0.3461
  172SAPE  H10X19546   4.121   2.215   7.912 -2.8106  2.0398 -2.7252
  172SAPE  H10Y19547   4.176   2.042   7.911  0.1223  1.7422  0.8177
  172SAPE  C31119548   3.991   2.074   7.998  0.5804  0.5792  0.9795
  172SAPE  H11X19549   3.962   1.967   7.998  3.7699 -0.3915  2.0290
  172SAPE  H11Y19550   3.899   2.132   7.979  1.0775  1.6670  1.8005
  172SAPE  C31219551   4.039   2.110   8.138  0.3594 -0.6495 -0.0769
  172SAPE  H12X19552   4.041   2.221   8.152 -1.4445 -0.7993  1.7636
  172SAPE  H12Y19553   4.144   2.077   8.150  0.2746 -0.4207  1.4334
  172SAPE  C31319554   3.951   2.049   8.247  0.1199 -0.1754 -0.9182
  172SAPE  H13X19555   3.975   1.940   8.253  2.4738  0.3098 -0.7556
  172SAPE  H13Y19556   3.842   2.049   8.223 -0.2273 -0.1176  0.5266
  172SAPE  C31419557   3.978   2.114   8.382 -0.8038 -0.1879  0.0012
  172SAPE  H14X19558   3.966   2.220   8.351  0.5243 -0.1605 -0.4421
  172SAPE  H14Y19559   4.083   2.090   8.408 -0.5744  0.9480  0.1436
  172SAPE  C31519560   3.894   2.075   8.503 -0.6780  0.1877  0.3527
  172SAPE  H15X19561   3.787   2.097   8.481 -0.1811  0.1687 -2.3549
  172SAPE  H15Y19562   3.920   2.141   8.589 -0.4300  1.0313 -0.3539
  172SAPE  C31619563   3.903   1.920   8.536  0.3975 -0.0878  0.5771
  172SAPE  H16X19564   4.009   1.894   8.558  0.8511  1.9805  1.0382
  172SAPE  H16Y19565   3.878   1.865   8.443 -0.2995  1.5906 -0.2818
  172SAPE  C31719566   3.816   1.874   8.660 -0.0507  0.2912  0.5041
  172SAPE  H17X19567   3.711   1.887   8.626 -0.0860 -1.0264  0.0665
  172SAPE  H17Y19568   3.847   1.937   8.747 -0.5896  0.5894  0.4851
  172SAPE  C31819569   3.840   1.730   8.709  0.6372  0.3765 -0.4446
  172SAPE  H18X19570   3.950   1.713   8.704  0.4105 -0.8422 -2.0614
  172SAPE  H18Y19571   3.789   1.657   8.642  0.3465  0.4394 -0.2932
  172SAPE  H18Z19572   3.824   1.711   8.818 -0.9951  0.4851 -0.6380
  173SOPE     N19573   4.362   4.666  11.137 -0.0531 -0.5512 -0.0649
  173SOPE   HN119574   4.421   4.660  11.222 -2.2640  2.0887  1.8436
  173SOPE   HN219575   4.365   4.762  11.097 -2.5966  0.5740  2.1018
  173SOPE   HN319576   4.265   4.635  11.159 -0.2425  1.2823  2.0314
  173SOPE   C1219577   4.420   4.574  11.033 -1.3245  0.5515  0.4383
  173SOPE  H12A19578   4.335   4.518  10.987 -1.5303  1.6775 -0.6222
  173SOPE  H12B19579   4.470   4.495  11.092  0.9310  3.0497  2.1082
  173SOPE   C1119580   4.522   4.649  10.941 -0.8881 -0.0428  0.6618
  173SOPE  H11A19581   4.479   4.729  10.877 -0.5154 -0.7649 -0.5137
  173SOPE  H11B19582   4.558   4.569  10.874 -1.4572  0.1085  0.1690
  173SOPE     P19583   4.757   4.641  11.064 -0.0893 -0.0716 -0.0679
  173SOPE   O1319584   4.718   4.530  11.149 -0.1891 -0.3240 -0.0518
  173SOPE   O1419585   4.841   4.744  11.127 -0.7513 -0.7177 -0.7455
  173SOPE   O1219586   4.623   4.702  11.028 -0.1823  0.0221  0.0707
  173SOPE   O1119587   4.810   4.585  10.925  0.2400  0.4468 -0.2094
  173SOPE    C119588   4.912   4.651  10.858 -0.0963 -0.2020  0.4206
  173SOPE    HA19589   4.962   4.583  10.786  1.0913  2.6116 -1.5899
  173SOPE    HB19590   5.000   4.671  10.924  1.2131  0.3118 -1.4200
  173SOPE    C219591   4.867   4.764  10.778 -0.2957 -0.6759  0.8263
  173SOPE    HS19592   4.818   4.840  10.843  0.7218 -0.0858  0.9307
  173SOPE   O2119593   4.778   4.714  10.678 -0.7510  0.3542  0.1910
  173SOPE   C2119594   4.683   4.799  10.627  0.0952 -0.1970 -0.4427
  173SOPE   O2219595   4.684   4.915  10.658 -0.0103  0.5989  0.5010
  173SOPE   C2219596   4.578   4.722  10.539  0.3957  0.5724  0.3297
  173SOPE   H2R19597   4.493   4.678  10.596 -0.0666 -0.2746 -0.9644
  173SOPE   H2S19598   4.637   4.636  10.501 -0.0686 -0.5100  1.9563
  173SOPE    C319599   4.990   4.840  10.711 -0.3277  0.9969 -0.1358
  173SOPE    HX19600   5.055   4.877  10.794 -0.9478  1.2025  0.2635
  173SOPE    HY19601   4.944   4.930  10.665 -2.2859 -0.8222 -1.9563
  173SOPE   O3119602   5.068   4.753  10.622 -0.1798  0.1716 -0.4308
  173SOPE   C3119603   5.102   4.808  10.507  0.1037 -0.0568  0.1805
  173SOPE   O3219604   5.070   4.924  10.479  0.2387  0.4879  0.0631
  173SOPE   C3219605   5.167   4.716  10.414 -0.3234  0.4141  0.0063
  173SOPE   H2X19606   5.215   4.633  10.470  0.8732  1.6755  0.9414
  173SOPE   H2Y19607   5.252   4.775  10.372 -0.2282 -0.9360 -1.8041
  173SOPE   C2319608   4.530   4.797  10.413  0.4151  0.1969  0.7280
  173SOPE   H3R19609   4.622   4.848  10.379 -0.1681  1.5429  1.1137
  173SOPE   H3S19610   4.456   4.877  10.436  2.3310  1.4974  2.7227
  173SOPE   C2419611   4.493   4.710  10.293  0.1920 -0.1194  1.1341
  173SOPE   H4R19612   4.562   4.626  10.267 -1.2627 -0.7559 -0.8939
  173SOPE   H4S19613   4.401   4.655  10.322  1.5219 -1.9419  2.1800
  173SOPE   C2519614   4.468   4.791  10.169 -0.1434 -0.2865  0.3254
  173SOPE   H5R19615   4.375   4.848  10.188  0.4866  0.0878  2.6175
  173SOPE   H5S19616   4.544   4.871  10.157  0.3009 -0.5378  1.3486
  173SOPE   C2619617   4.465   4.736  10.030 -0.4221  0.1006  0.2544
  173SOPE   H6R19618   4.415   4.813   9.967  0.3242  1.0868  0.8281
  173SOPE   H6S19619   4.561   4.712   9.981 -1.2559 -1.9167 -0.5011
  173SOPE   C2719620   4.386   4.609  10.018 -0.3146 -0.2152 -0.5269
  173SOPE   H7R19621   4.462   4.529  10.006 -0.8748 -0.5471 -2.2010
  173SOPE   H7S19622   4.322   4.583  10.105  0.3358  2.2056  0.7572
  173SOPE   C2819623   4.291   4.609   9.893  0.1174  1.2011 -0.7605
  173SOPE   H8R19624   4.228   4.518   9.886  1.2609  0.4713 -2.0717
  173SOPE   H8S19625   4.222   4.696   9.904 -0.3934  0.6570  0.5590
  173SOPE   C2919626   4.354   4.618   9.757 -0.4271  0.0265 -0.0695
  173SOPE   H9119627   4.463   4.607   9.765 -0.5830 -0.0850  2.5491
  173SOPE  C21019628   4.293   4.647   9.643  0.2538  0.5725  0.1631
  173SOPE  H10119629   4.349   4.643   9.548 -2.0575  1.9840 -1.3605
  173SOPE  C21119630   4.144   4.656   9.614  0.0381 -0.5519 -1.0616
  173SOPE  H11R19631   4.076   4.677   9.700  0.1616  1.4064 -1.3809
  173SOPE  H11S19632   4.109   4.559   9.574  1.3937 -1.5556  0.1141
  173SOPE  C21219633   4.114   4.766   9.513 -0.2148  0.5142 -0.2162
  173SOPE  H12R19634   4.169   4.860   9.536  1.8174 -0.5534 -0.4268
  173SOPE  H12S19635   4.005   4.782   9.524 -0.7626 -2.1078 -1.1852
  173SOPE  C21319636   4.147   4.712   9.373  0.2389 -0.2848 -0.5671
  173SOPE  H13R19637   4.088   4.620   9.355  1.1470 -1.3578  1.5577
  173SOPE  H13S19638   4.256   4.695   9.382  0.5213  1.9536  1.1372
  173SOPE  C21419639   4.117   4.815   9.264 -0.5891 -0.2360 -0.2230
  173SOPE  H14R19640   4.151   4.911   9.308  2.6460 -1.2657 -0.2168
  173SOPE  H14S19641   4.008   4.811   9.246 -0.8016 -0.0831  1.0043
  173SOPE  C21519642   4.182   4.772   9.135  0.5479  0.3060  0.2115
  173SOPE  H15R19643   4.148   4.671   9.105  0.4230  0.1333  0.9198
  173SOPE  H15S19644   4.291   4.752   9.144  0.4821 -0.0326  0.2541
  173SOPE  C21619645   4.155   4.856   9.003  0.0923 -0.1518 -0.3979
  173SOPE  H16R19646   4.200   4.957   9.013 -0.2220 -0.2310  2.8306
  173SOPE  H16S19647   4.045   4.854   8.989  0.0002  1.0166  0.0841
  173SOPE  C21719648   4.219   4.793   8.875 -0.6722  0.1036  0.1293
  173SOPE  H17R19649   4.191   4.686   8.871  1.3446 -0.4245 -1.7504
  173SOPE  H17S19650   4.328   4.810   8.879 -0.7012  0.3920 -0.2068
  173SOPE  C21819651   4.158   4.849   8.742 -0.1001 -0.1662 -0.2797
  173SOPE  H18R19652   4.176   4.957   8.726  2.4626 -0.2630  1.3712
  173SOPE  H18S19653   4.050   4.825   8.732 -0.4189 -0.1077  2.3469
  173SOPE  H18T19654   4.218   4.806   8.659  3.4935  0.9784  1.4993
  173SOPE   C3319655   5.080   4.667  10.303 -0.0381  0.2344  0.1235
  173SOPE   H3X19656   4.988   4.623  10.346  0.2122 -1.3160 -0.8421
  173SOPE   H3Y19657   5.137   4.591  10.245  0.3400  0.4718  0.1811
  173SOPE   C3419658   5.036   4.770  10.192 -0.2245 -0.2112  0.4494
  173SOPE   H4X19659   5.119   4.828  10.147  0.9130 -1.7002  0.5657
  173SOPE   H4Y19660   4.968   4.845  10.239 -1.6481 -0.5068 -1.0128
  173SOPE   C3519661   4.953   4.687  10.097 -0.2492 -0.3923 -0.0311
  173SOPE   H5X19662   4.885   4.628  10.161 -1.0427 -0.3930 -0.8494
  173SOPE   H5Y19663   5.023   4.620  10.043 -1.9043 -0.5941 -2.0773
  173SOPE   C3619664   4.878   4.767   9.992  0.3319 -0.2605  0.3155
  173SOPE   H6X19665   4.923   4.866   9.970  0.6202 -0.6552 -0.9043
  173SOPE   H6Y19666   4.781   4.780  10.045 -0.0479 -1.4128 -0.0630
  173SOPE   C3719667   4.838   4.694   9.862 -0.0549  0.5412 -0.1304
  173SOPE   H7X19668   4.779   4.772   9.810  0.6716  1.9173  1.0209
  173SOPE   H7Y19669   4.774   4.603   9.873  0.9103 -0.1776 -0.3779
  173SOPE   C3819670   4.962   4.643   9.778  0.6045  0.0198 -0.0580
  173SOPE   H8X19671   5.010   4.553   9.822 -2.3916 -1.2643  0.8364
  173SOPE   H8Y19672   5.028   4.732   9.767  0.3875 -0.0894 -2.8568
  173SOPE   C3919673   4.920   4.596   9.644  0.0618 -0.5967  0.0302
  173SOPE   H9X19674   4.861   4.667   9.583 -2.8050 -2.4871  0.4011
  173SOPE   H9Y19675   4.849   4.511   9.650  1.5782 -1.8962  0.3306
  173SOPE  C31019676   5.024   4.554   9.536 -1.0648  0.2125  0.1307
  173SOPE  H10X19677   4.986   4.500   9.447 -0.7564  1.7935 -0.9793
  173SOPE  H10Y19678   5.090   4.479   9.586 -1.5925 -1.9000 -2.1259
  173SOPE  C31119679   5.112   4.671   9.487 -0.2641  0.5288  0.6833
  173SOPE  H11X19680   5.150   4.726   9.575 -0.1709 -2.5984  2.7441
  173SOPE  H11Y19681   5.052   4.750   9.437  0.6225  1.7522  1.4875
  173SOPE  C31219682   5.232   4.622   9.396 -0.2622  0.2350 -0.7392
  173SOPE  H12X19683   5.193   4.550   9.321  1.1327  1.3688 -2.6331
  173SOPE  H12Y19684   5.306   4.578   9.466 -2.3164 -1.6166  0.3890
  173SOPE  C31319685   5.298   4.736   9.319  0.0677  0.2443  0.5925
  173SOPE  H13X19686   5.317   4.832   9.373  0.9259 -1.4999  3.6340
  173SOPE  H13Y19687   5.223   4.764   9.242 -0.3250  0.9405  1.2062
  173SOPE  C31419688   5.433   4.696   9.257  0.2023  0.4396  0.3907
  173SOPE  H14X19689   5.425   4.602   9.197  1.5462  0.4131  0.2193
  173SOPE  H14Y19690   5.502   4.671   9.340  0.7746 -0.4536 -0.3359
  173SOPE  C31519691   5.485   4.818   9.186 -0.0751  0.1486  0.9166
  173SOPE  H15X19692   5.507   4.897   9.261  0.2863  0.8984  0.0430
  173SOPE  H15Y19693   5.399   4.850   9.122 -1.2449 -1.3187  1.6845
  173SOPE  C31619694   5.601   4.802   9.092  0.3698  0.4643 -0.0810
  173SOPE  H16X19695   5.586   4.726   9.011  2.7030  0.2637 -0.4092
  173SOPE  H16Y19696   5.691   4.774   9.152  0.6537 -2.3876 -1.6383
  173SOPE  C31719697   5.628   4.924   8.995  0.3521  0.5763 -0.7966
  173SOPE  H17X19698   5.549   4.934   8.918 -0.4362 -1.1700 -0.2487
  173SOPE  H17Y19699   5.719   4.896   8.937  0.2131  0.0335 -0.7511
  173SOPE  C31819700   5.638   5.062   9.060  0.6215 -0.2502 -1.1730
  173SOPE  H18X19701   5.730   5.063   9.122 -1.0625 -1.6754  1.5015
  173SOPE  H18Y19702   5.552   5.067   9.130  0.7651 -1.9733 -0.8424
  173SOPE  H18Z19703   5.627   5.146   8.987 -0.6199  1.3133  0.6972
  174SOPE     N19704   4.712   4.039  10.941  0.2168  0.0675 -0.0623
  174SOPE   HN119705   4.756   4.000  10.855  1.2218 -0.3249  0.6069
  174SOPE   HN219706   4.622   3.994  10.968  0.0507  0.0729 -0.6015
  174SOPE   HN319707   4.695   4.140  10.924 -1.2434 -0.3878 -1.6473
  174SOPE   C1219708   4.811   4.022  11.049  0.6931  0.7141 -0.0967
  174SOPE  H12A19709   4.773   4.082  11.135  0.0957  1.8037 -1.0998
  174SOPE  H12B19710   4.906   4.068  11.016  2.4015 -1.6540  1.1515
  174SOPE   C1119711   4.832   3.868  11.065  0.0347 -0.8129 -0.3548
  174SOPE  H11A19712   4.742   3.826  11.115 -0.4489  0.8011  0.1823
  174SOPE  H11B19713   4.920   3.847  11.129  1.5341 -0.9514 -2.3573
  174SOPE     P19714   4.810   3.663  10.907 -0.2894 -0.3755 -0.0344
  174SOPE   O1319715   4.730   3.661  10.781 -0.5334  0.0559  0.3429
  174SOPE   O1419716   4.746   3.603  11.029 -0.3489 -0.3685  0.5415
  174SOPE   O1219717   4.866   3.809  10.939 -0.4577  0.6520  0.5110
  174SOPE   O1119718   4.944   3.583  10.883  1.0254 -0.6065  0.5611
  174SOPE    C119719   5.053   3.644  10.819 -0.1079 -0.1071  1.1828
  174SOPE    HA19720   5.146   3.586  10.836  1.0298  1.3532  0.1839
  174SOPE    HB19721   5.073   3.750  10.844 -0.4695  0.5252 -1.0055
  174SOPE    C219722   5.045   3.655  10.662 -0.7166 -0.7405  0.7961
  174SOPE    HS19723   4.963   3.725  10.636 -0.6881 -1.0499 -0.1781
  174SOPE   O2119724   5.014   3.532  10.602 -0.0351 -0.4964  0.3193
  174SOPE   C2119725   4.967   3.526  10.476  0.1503 -0.1442 -0.0149
  174SOPE   O2219726   4.926   3.619  10.410  0.0335  0.0965 -0.3584
  174SOPE   C2219727   4.950   3.376  10.435 -0.5376 -0.5205  0.2139
  174SOPE   H2R19728   4.852   3.343  10.477  0.4589 -0.2494  2.9943
  174SOPE   H2S19729   5.024   3.309  10.485 -0.0001 -0.4657 -0.5092
  174SOPE    C319730   5.180   3.707  10.601  0.0235 -0.0669  0.9537
  174SOPE    HX19731   5.259   3.629  10.609 -0.3149 -0.5966 -0.5539
  174SOPE    HY19732   5.219   3.791  10.663  1.7256 -0.8940  1.0478
  174SOPE   O3119733   5.177   3.740  10.461  0.2495  0.7110 -0.7459
  174SOPE   C3119734   5.098   3.844  10.425 -0.4138 -0.2548  1.2496
  174SOPE   O3219735   5.044   3.914  10.507  0.3594  0.2308 -0.8797
  174SOPE   C3219736   5.110   3.858  10.269 -0.6465 -0.2739  0.3036
  174SOPE   H2X19737   5.037   3.781  10.236  0.8906 -1.6279 -0.0432
  174SOPE   H2Y19738   5.207   3.819  10.231 -1.7125 -0.4095 -2.5404
  174SOPE   C2319739   4.962   3.360  10.283  0.6347  0.7273  0.0378
  174SOPE   H3R19740   4.896   3.439  10.240  0.3786  1.2977  1.4461
  174SOPE   H3S19741   4.929   3.262  10.243  2.2565 -0.1975  0.8539
  174SOPE   C2419742   5.111   3.371  10.247  0.7948 -0.4797  0.7573
  174SOPE   H4R19743   5.145   3.463  10.299  0.3413 -0.2938  0.7223
  174SOPE   H4S19744   5.178   3.297  10.297  1.8435 -0.2400 -0.2553
  174SOPE   C2519745   5.126   3.370  10.092 -0.4457 -0.2882  0.3396
  174SOPE   H5R19746   5.235   3.378  10.073 -0.2066 -2.0067  0.8389
  174SOPE   H5S19747   5.105   3.269  10.051  1.3436 -0.7523  0.4923
  174SOPE   C2619748   5.069   3.490  10.012 -0.2756  0.9627 -0.8697
  174SOPE   H6R19749   4.965   3.466   9.981 -0.6086 -0.8801  1.3937
  174SOPE   H6S19750   5.065   3.578  10.081  0.5911 -0.2444  0.7904
  174SOPE   C2719751   5.154   3.531   9.887  0.3758 -0.1903 -0.4963
  174SOPE   H7R19752   5.095   3.611   9.838 -1.9445 -0.8335  1.0587
  174SOPE   H7S19753   5.238   3.589   9.931  2.0164 -0.9932 -2.4332
  174SOPE   C2819754   5.191   3.418   9.793 -0.4319  0.1414 -0.4887
  174SOPE   H8R19755   5.250   3.343   9.850  0.1211  1.5932  0.9201
  174SOPE   H8S19756   5.105   3.370   9.743  0.2244 -0.1966 -1.3155
  174SOPE   C2919757   5.267   3.490   9.686  0.1549  0.4990  0.8463
  174SOPE   H9119758   5.205   3.548   9.616  0.8421  1.2519  0.8467
  174SOPE  C21019759   5.400   3.491   9.664 -0.1009 -0.3690 -0.0654
  174SOPE  H10119760   5.446   3.542   9.578  1.7140 -1.5708  0.1172
  174SOPE  C21119761   5.514   3.421   9.728 -0.1659 -0.1679 -0.1122
  174SOPE  H11R19762   5.494   3.335   9.795  2.5272 -0.3523  0.5820
  174SOPE  H11S19763   5.573   3.492   9.791  0.9632  0.9276 -2.2939
  174SOPE  C21219764   5.619   3.363   9.626 -0.1964 -0.4785  0.7211
  174SOPE  H12R19765   5.715   3.355   9.682  0.4208 -2.3862 -0.4843
  174SOPE  H12S19766   5.640   3.432   9.542  0.6908 -0.7378  0.7233
  174SOPE  C21319767   5.589   3.227   9.566 -0.2572 -0.2427 -0.1138
  174SOPE  H13R19768   5.496   3.223   9.505 -2.1122  0.2486  2.5102
  174SOPE  H13S19769   5.573   3.156   9.650  0.2376  0.2009  0.3706
  174SOPE  C21419770   5.707   3.166   9.488  0.4744 -0.1928 -0.1836
  174SOPE  H14R19771   5.798   3.166   9.551  2.5031  0.7021 -2.8998
  174SOPE  H14S19772   5.727   3.239   9.406  2.2872  0.6995  0.9998
  174SOPE  C21519773   5.686   3.025   9.439 -0.0497  1.0109 -1.0392
  174SOPE  H15R19774   5.603   3.039   9.367 -2.4180 -0.4329  1.2341
  174SOPE  H15S19775   5.648   2.952   9.514  1.5015  0.2708 -0.9273
  174SOPE  C21619776   5.811   2.964   9.364  0.4305 -0.6117  0.2397
  174SOPE  H16R19777   5.821   2.873   9.426 -1.4487 -1.2181 -0.2636
  174SOPE  H16S19778   5.893   3.038   9.376 -0.5156  0.2788  1.3665
  174SOPE  C21719779   5.787   2.916   9.222 -0.3042 -0.2000  0.1354
  174SOPE  H17R19780   5.748   2.990   9.149  0.7930 -1.8550 -2.3061
  174SOPE  H17S19781   5.710   2.835   9.224 -0.7069 -0.0995 -3.8335
  174SOPE  C21819782   5.912   2.857   9.150  0.3225 -0.3668  0.1066
  174SOPE  H18R19783   5.989   2.937   9.142 -0.2081  0.1050 -0.3087
  174SOPE  H18S19784   5.882   2.820   9.050 -0.7543  2.3684 -0.6880
  174SOPE  H18T19785   5.947   2.774   9.215 -0.1303  0.2748  1.2011
  174SOPE   C3319786   5.097   4.005  10.202  0.4088  0.6148  0.4882
  174SOPE   H3X19787   5.007   4.057  10.242 -3.2477 -2.5590 -2.7645
  174SOPE   H3Y19788   5.069   3.984  10.097 -0.5972 -3.1217  1.3504
  174SOPE   C3419789   5.230   4.085  10.208  1.0413  0.0274  0.3574
  174SOPE   H4X19790   5.313   4.016  10.179  0.3565 -0.3384 -0.7663
  174SOPE   H4Y19791   5.242   4.116  10.314 -0.6272 -0.3605  0.6779
  174SOPE   C3519792   5.240   4.203  10.116 -0.2025  0.3970  0.3145
  174SOPE   H5X19793   5.347   4.233  10.118 -0.1973  0.4513 -0.4637
  174SOPE   H5Y19794   5.187   4.286  10.168  0.4157  0.1667  1.3272
  174SOPE   C3619795   5.197   4.186   9.971  0.2182  0.1394  0.1356
  174SOPE   H6X19796   5.196   4.285   9.920  1.5104  0.3568  0.4978
  174SOPE   H6Y19797   5.088   4.175   9.990  0.1155  0.4849 -0.2555
  174SOPE   C3719798   5.263   4.070   9.901 -0.3859 -0.4608  0.3883
  174SOPE   H7X19799   5.268   3.979   9.964 -1.5601 -1.1712 -0.4968
  174SOPE   H7Y19800   5.370   4.095   9.885 -0.5667 -0.4049 -0.8803
  174SOPE   C3819801   5.193   4.046   9.769 -0.1615  0.1570 -0.5785
  174SOPE   H8X19802   5.263   4.004   9.694  0.7736  1.0673 -0.2289
  174SOPE   H8Y19803   5.148   4.137   9.725 -1.5909  0.2001  0.8457
  174SOPE   C3919804   5.076   3.941   9.782 -0.0115  0.3168 -0.2427
  174SOPE   H9X19805   5.015   3.979   9.867 -0.1612  1.7038 -0.9532
  174SOPE   H9Y19806   5.109   3.838   9.809 -1.7587 -0.1892  0.1274
  174SOPE  C31019807   4.991   3.939   9.659 -0.3227  0.3248 -0.6693
  174SOPE  H10X19808   4.937   4.036   9.647 -1.9506 -0.3708  0.5446
  174SOPE  H10Y19809   4.916   3.857   9.657  1.0453 -1.0078  0.3590
  174SOPE  C31119810   5.078   3.892   9.540 -0.4597 -0.0984 -0.0562
  174SOPE  H11X19811   5.107   3.791   9.575 -2.7124 -1.4326 -1.7570
  174SOPE  H11Y19812   5.156   3.966   9.512 -0.3068 -0.4598 -0.5962
  174SOPE  C31219813   4.984   3.880   9.422  0.2207  0.4977 -0.2642
  174SOPE  H12X19814   4.998   3.975   9.366  0.0474  1.6417  1.5626
  174SOPE  H12Y19815   4.877   3.879   9.449  0.8850  1.6377  2.8289
  174SOPE  C31319816   5.024   3.765   9.326 -0.2615 -0.1588 -0.2088
  174SOPE  H13X19817   5.017   3.666   9.376  2.2440 -0.0080  0.5603
  174SOPE  H13Y19818   5.128   3.785   9.292  0.0834 -3.2300 -1.2831
  174SOPE  C31419819   4.947   3.759   9.200  0.2435 -0.5823  0.0464
  174SOPE  H14X19820   4.931   3.854   9.146 -0.4132 -0.6478  0.1194
  174SOPE  H14Y19821   4.842   3.736   9.228 -1.1099  3.6262 -0.8405
  174SOPE  C31519822   5.007   3.656   9.102  0.0458  0.3753  0.2924
  174SOPE  H15X19823   4.926   3.632   9.029 -1.3406 -1.9606  2.4084
  174SOPE  H15Y19824   5.025   3.559   9.154 -2.7036 -1.4263 -1.8011
  174SOPE  C31619825   5.128   3.700   9.012  0.3877 -0.1131  0.5105
  174SOPE  H16X19826   5.194   3.751   9.084 -0.6996  1.5152  0.3999
  174SOPE  H16Y19827   5.098   3.776   8.937  0.3991  0.0821  0.7058
  174SOPE  C31719828   5.195   3.581   8.945  0.3721 -0.1963  0.7982
  174SOPE  H17X19829   5.126   3.513   8.890  1.0518  0.8782 -1.5503
  174SOPE  H17Y19830   5.244   3.531   9.031  2.9612  1.0568  0.1473
  174SOPE  C31819831   5.298   3.633   8.849 -0.3257  0.0770 -0.2582
  174SOPE  H18X19832   5.360   3.548   8.812  0.5936  0.5037  0.2804
  174SOPE  H18Y19833   5.365   3.715   8.884 -0.8726  0.2115  0.4702
  174SOPE  H18Z19834   5.252   3.671   8.755  1.8152  0.6076 -1.1775
  175SOPE     N19835   6.125   1.442  10.550  0.7262  0.0631  0.8619
  175SOPE   HN119836   6.195   1.377  10.591  0.4224 -0.5549  0.4055
  175SOPE   HN219837   6.166   1.538  10.545  0.0901  0.2873 -1.8681
  175SOPE   HN319838   6.050   1.448  10.621  0.3679  0.9903  0.4234
  175SOPE   C1219839   6.054   1.396  10.425  0.2869 -0.5969  0.5777
  175SOPE  H12A19840   6.124   1.381  10.341 -1.4945  0.5906 -1.1960
  175SOPE  H12B19841   5.981   1.475  10.396 -0.4581 -1.7304 -0.7528
  175SOPE   C1119842   5.975   1.267  10.458 -0.0947 -0.4288  0.1697
  175SOPE  H11A19843   6.053   1.188  10.465  2.3174  1.8116  0.3390
  175SOPE  H11B19844   5.913   1.242  10.369  0.6475  2.1418 -1.1733
  175SOPE     P19845   5.748   1.299  10.582 -0.2885 -0.0321 -0.0232
  175SOPE   O1319846   5.715   1.415  10.498  0.0991  0.0986 -0.0686
  175SOPE   O1419847   5.706   1.292  10.728 -0.3061 -0.1669  0.4550
  175SOPE   O1219848   5.907   1.276  10.584 -0.1526  0.5766  0.8599
  175SOPE   O1119849   5.674   1.173  10.510 -0.4273 -0.1896 -0.2108
  175SOPE    C119850   5.693   1.037  10.557 -0.2313  0.9326  0.2407
  175SOPE    HA19851   5.592   0.991  10.569 -0.9848  2.4840  0.1151
  175SOPE    HB19852   5.736   1.035  10.659  0.0648 -0.6730  0.1065
  175SOPE    C219853   5.753   0.931  10.460 -0.0048 -0.2835 -0.2098
  175SOPE    HS19854   5.853   0.976  10.441  0.7795 -0.2656  3.2387
  175SOPE   O2119855   5.673   0.924  10.338  0.0830 -0.3318 -0.0434
  175SOPE   C2119856   5.680   1.012  10.244  0.1920 -0.1494  0.4101
  175SOPE   O2219857   5.772   1.091  10.220  0.7431  0.3008  0.0802
  175SOPE   C2219858   5.568   0.987  10.140  0.3923 -0.2332 -0.0550
  175SOPE   H2R19859   5.486   0.927  10.185  1.0309 -1.3093 -0.2752
  175SOPE   H2S19860   5.609   0.916  10.064 -1.3208  0.9035 -2.1618
  175SOPE    C319861   5.773   0.793  10.519  0.1009  0.4974 -0.2974
  175SOPE    HX19862   5.678   0.766  10.570  1.3633 -1.2400  1.2860
  175SOPE    HY19863   5.852   0.772  10.594  1.3138 -0.1230 -1.7182
  175SOPE   O3119864   5.793   0.692  10.419  0.3427  0.8516  0.7124
  175SOPE   C3119865   5.920   0.681  10.380  0.2532  0.5377 -0.3108
  175SOPE   O3219866   6.013   0.741  10.429 -0.1800 -0.2238 -0.1365
  175SOPE   C3219867   5.921   0.581  10.264  0.2504 -0.0176 -0.6641
  175SOPE   H2X19868   5.936   0.477  10.298 -1.2021 -0.8271 -2.3558
  175SOPE   H2Y19869   6.007   0.616  10.203 -0.2114 -1.1117 -1.9745
  175SOPE   C2319870   5.511   1.120  10.087 -0.5609 -0.3489 -0.8494
  175SOPE   H3R19871   5.595   1.186  10.056 -0.6955  0.0292 -0.4212
  175SOPE   H3S19872   5.472   1.166  10.181 -0.0350 -0.8022 -0.3990
  175SOPE   C2419873   5.409   1.103   9.976  0.0856  0.0680  0.1999
  175SOPE   H4R19874   5.359   1.006   9.997 -1.0124  0.4337 -0.6711
  175SOPE   H4S19875   5.339   1.188   9.965 -0.8097 -0.7284 -0.4004
  175SOPE   C2519876   5.483   1.084   9.843 -0.3726  0.7292 -0.0173
  175SOPE   H5R19877   5.531   1.183   9.824 -1.0340  1.1175  0.3068
  175SOPE   H5S19878   5.563   1.009   9.862 -0.9950  0.3813  1.3196
  175SOPE   C2619879   5.400   1.046   9.722  0.3341  0.3736 -0.6719
  175SOPE   H6R19880   5.344   0.960   9.764  2.6695  0.2501  2.5613
  175SOPE   H6S19881   5.334   1.134   9.708  0.7080  0.4934 -1.7338
  175SOPE   C2719882   5.483   1.021   9.591 -0.1023  0.7424 -0.5218
  175SOPE   H7R19883   5.557   1.103   9.578  1.1598 -0.3323 -0.2475
  175SOPE   H7S19884   5.546   0.931   9.606  1.6659  1.6992 -1.8103
  175SOPE   C2819885   5.414   1.002   9.458 -0.2327  0.9503  0.8977
  175SOPE   H8R19886   5.376   1.099   9.419 -0.0681  1.2274  1.4301
  175SOPE   H8S19887   5.500   0.982   9.390 -1.8761  2.1873 -1.7276
  175SOPE   C2919888   5.311   0.889   9.466 -0.1871  0.0295  0.0809
  175SOPE   H9119889   5.329   0.807   9.536  3.8308 -1.9290 -2.8801
  175SOPE  C21019890   5.206   0.878   9.385 -0.2105  0.5622  0.2931
  175SOPE  H10119891   5.146   0.785   9.385  0.7302 -0.2096 -3.4820
  175SOPE  C21119892   5.165   0.971   9.267 -0.4521 -0.2305 -0.2123
  175SOPE  H11R19893   5.234   1.058   9.266  1.3890 -1.6256  0.2553
  175SOPE  H11S19894   5.059   1.001   9.285 -0.2387  1.0691 -1.0014
  175SOPE  C21219895   5.197   0.903   9.134 -0.4894 -0.6095 -0.3901
  175SOPE  H12R19896   5.129   0.818   9.113 -0.1930 -1.0825  0.4925
  175SOPE  H12S19897   5.300   0.863   9.135 -0.3151 -0.7424 -4.7403
  175SOPE  C21319898   5.190   0.994   9.006 -0.3648  0.1981 -0.2121
  175SOPE  H13R19899   5.224   0.927   8.924  0.2094 -1.1719  1.0904
  175SOPE  H13S19900   5.257   1.081   9.021 -2.1737  1.2639  2.4411
  175SOPE  C21419901   5.044   1.050   8.982 -0.4802  0.3926 -0.3085
  175SOPE  H14R19902   5.030   1.159   8.970 -2.5804  0.0879 -1.1745
  175SOPE  H14S19903   4.980   1.016   9.067 -0.8841 -2.5279 -1.6389
  175SOPE  C21519904   4.990   0.969   8.861 -0.6959 -0.1516 -0.7274
  175SOPE  H15R19905   4.973   0.863   8.891  0.4480 -0.1100  0.1230
  175SOPE  H15S19906   5.053   0.960   8.770 -2.2658  1.2158 -2.0137
  175SOPE  C21619907   4.853   1.024   8.817  0.3443 -0.1954 -0.6397
  175SOPE  H16R19908   4.867   1.131   8.790 -1.4570  0.0242 -0.8013
  175SOPE  H16S19909   4.773   1.022   8.894 -1.1139 -1.1204 -2.1244
  175SOPE  C21719910   4.788   0.955   8.695  0.0448  0.2250 -0.1343
  175SOPE  H17R19911   4.777   0.854   8.738  2.2490  0.1172  0.2900
  175SOPE  H17S19912   4.854   0.964   8.606  1.6959 -1.4048  0.8517
  175SOPE  C21819913   4.649   1.010   8.661 -0.2295 -0.5802 -0.3525
  175SOPE  H18R19914   4.613   0.937   8.585  0.3434 -0.1499 -1.0558
  175SOPE  H18S19915   4.660   1.114   8.625  2.4843 -0.1788  1.3035
  175SOPE  H18T19916   4.581   1.005   8.748 -0.3794 -3.2874 -0.5225
  175SOPE   C3319917   5.815   0.563  10.161 -0.2251  0.6051  0.6232
  175SOPE   H3X19918   5.712   0.544  10.199 -0.5828  1.8882  0.3501
  175SOPE   H3Y19919   5.853   0.477  10.102  0.1269  1.3233 -0.2104
  175SOPE   C3419920   5.822   0.676  10.049 -0.3052 -0.3351  0.6528
  175SOPE   H4X19921   5.927   0.691  10.014 -0.5457 -2.5891 -1.3020
  175SOPE   H4Y19922   5.802   0.775  10.096  3.1400  1.0973 -0.5464
  175SOPE   C3519923   5.725   0.644   9.926  0.7142  0.2871 -0.2440
  175SOPE   H5X19924   5.703   0.745   9.884  2.6949  0.7247 -0.2997
  175SOPE   H5Y19925   5.631   0.597   9.962  1.7143 -1.3932  0.2649
  175SOPE   C3619926   5.796   0.554   9.826  0.2305  0.2628 -0.0720
  175SOPE   H6X19927   5.839   0.469   9.883  1.9624  1.0834 -0.0828
  175SOPE   H6Y19928   5.881   0.616   9.788  0.4631 -1.0581 -1.7902
  175SOPE   C3719929   5.720   0.492   9.709 -0.4330 -0.5824  0.2225
  175SOPE   H7X19930   5.630   0.444   9.752  0.1198 -1.7282  0.1405
  175SOPE   H7Y19931   5.788   0.422   9.655  1.7769  2.6105 -1.5291
  175SOPE   C3819932   5.682   0.594   9.597 -0.3716 -0.0511 -0.4654
  175SOPE   H8X19933   5.768   0.661   9.578  1.4882 -1.6273  1.7438
  175SOPE   H8Y19934   5.603   0.659   9.642 -0.9069  0.2532 -1.7892
  175SOPE   C3919935   5.623   0.534   9.466 -0.4524  0.3723  0.2594
  175SOPE   H9X19936   5.709   0.493   9.410  0.3751  2.3005  0.0326
  175SOPE   H9Y19937   5.589   0.620   9.403 -0.8197  1.6435  2.1025
  175SOPE  C31019938   5.508   0.436   9.478  0.2951 -0.1958  0.1385
  175SOPE  H10X19939   5.431   0.498   9.529 -0.5917 -0.1155 -1.2597
  175SOPE  H10Y19940   5.544   0.343   9.527 -2.7169 -2.1227 -1.0155
  175SOPE  C31119941   5.457   0.377   9.346 -0.1526 -0.5414 -0.4856
  175SOPE  H11X19942   5.379   0.300   9.363 -0.2084 -0.4431 -0.3008
  175SOPE  H11Y19943   5.543   0.333   9.292  1.0676  0.1346  0.8601
  175SOPE  C31219944   5.400   0.481   9.251 -0.0735  0.3307  0.3639
  175SOPE  H12X19945   5.487   0.546   9.226  1.1353 -1.0853  0.7632
  175SOPE  H12Y19946   5.325   0.552   9.293 -0.3512  0.5613 -0.4848
  175SOPE  C31319947   5.351   0.425   9.125 -0.0645  0.2545  0.3577
  175SOPE  H13X19948   5.252   0.381   9.148 -0.4051  0.6372 -0.3511
  175SOPE  H13Y19949   5.417   0.347   9.081  1.6212  3.0773 -2.5717
  175SOPE  C31419950   5.330   0.540   9.023 -0.3756  0.0435  0.2632
  175SOPE  H14X19951   5.429   0.588   9.005 -0.5504  0.0928 -0.6476
  175SOPE  H14Y19952   5.265   0.621   9.063  0.3723  0.2024  1.1831
  175SOPE  C31519953   5.284   0.498   8.882  0.0998  0.6699  0.2559
  175SOPE  H15X19954   5.341   0.407   8.851 -0.7006 -0.2842  1.4701
  175SOPE  H15Y19955   5.314   0.580   8.813 -2.2712 -0.2215 -1.9946
  175SOPE  C31619956   5.138   0.460   8.880 -0.1601  0.2433 -0.0999
  175SOPE  H16X19957   5.078   0.552   8.892 -2.3382 -1.1610  0.3307
  175SOPE  H16Y19958   5.119   0.396   8.969  0.1639 -0.0693 -0.2481
  175SOPE  C31719959   5.097   0.379   8.765  1.7554  0.6219  0.2504
  175SOPE  H17X19960   4.987   0.364   8.753  1.9412  1.1784 -3.8873
  175SOPE  H17Y19961   5.145   0.279   8.766  1.6414  0.5170 -1.3829
  175SOPE  C31819962   5.137   0.452   8.633  0.9958 -0.4633  0.3316
  175SOPE  H18X19963   5.069   0.538   8.619 -0.1057 -1.0451  1.8149
  175SOPE  H18Y19964   5.131   0.389   8.542  1.4295  1.1662 -0.8585
  175SOPE  H18Z19965   5.241   0.492   8.638  0.5841  0.7143 -0.3407
  176SOPE     N19966   1.469   5.413  10.713  0.0320 -0.5963 -0.2285
  176SOPE   HN119967   1.435   5.386  10.808  0.1797 -0.5591 -0.1637
  176SOPE   HN219968   1.408   5.490  10.680 -1.1890 -1.2657  0.4181
  176SOPE   HN319969   1.460   5.332  10.649 -0.9811  0.0106 -0.8789
  176SOPE   C1219970   1.613   5.468  10.739  0.1859 -0.4768  0.9119
  176SOPE  H12A19971   1.669   5.379  10.776  1.4314 -0.0439  0.1067
  176SOPE  H12B19972   1.620   5.551  10.813 -2.0625  0.1661  0.4813
  176SOPE   C1119973   1.667   5.517  10.600  0.0108 -0.7351  0.1919
  176SOPE  H11A19974   1.652   5.436  10.525 -2.6187 -0.2954  0.1204
  176SOPE  H11B19975   1.774   5.536  10.621 -0.4096  2.4676  0.0009
  176SOPE     P19976   1.641   5.771  10.604  0.0430 -0.1001  0.0952
  176SOPE   O1319977   1.785   5.786  10.585  0.5967  0.0472 -0.1521
  176SOPE   O1419978   1.594   5.781  10.743 -0.4537  0.4833 -0.7214
  176SOPE   O1219979   1.600   5.631  10.555  0.0934  0.0867 -0.4540
  176SOPE   O1119980   1.555   5.868  10.514 -0.2548 -0.8939  0.6076
  176SOPE    C119981   1.415   5.873  10.496 -0.3100  0.6344 -0.1822
  176SOPE    HA19982   1.367   5.966  10.535 -0.5907  0.2501  0.4024
  176SOPE    HB19983   1.372   5.785  10.549  0.6877  0.3765  0.2097
  176SOPE    C219984   1.385   5.877  10.343  0.4455 -0.6844 -0.2506
  176SOPE    HS19985   1.275   5.883  10.328  0.5041  2.0152 -0.0115
  176SOPE   O2119986   1.431   5.757  10.277  0.4845  0.2175 -0.2477
  176SOPE   C2119987   1.364   5.651  10.320  0.1731 -0.1947 -0.6259
  176SOPE   O2219988   1.268   5.641  10.397  0.0263  0.1521  0.8484
  176SOPE   C2219989   1.427   5.532  10.255 -0.0241  0.0665  0.1289
  176SOPE   H2R19990   1.420   5.443  10.320 -1.4955 -0.3836 -0.5937
  176SOPE   H2S19991   1.534   5.556  10.239  0.2237 -0.4778  0.9305
  176SOPE    C319992   1.448   6.009  10.281 -0.1239  0.6804 -0.0175
  176SOPE    HX19993   1.557   5.999  10.301  0.2473  0.5533 -1.9409
  176SOPE    HY19994   1.417   6.101  10.335 -1.2891 -1.3784  3.1159
  176SOPE   O3119995   1.428   6.020  10.136 -0.4784 -0.4549 -0.1890
  176SOPE   C3119996   1.315   6.085  10.109  0.4752  0.0301 -0.5048
  176SOPE   O3219997   1.232   6.123  10.192 -0.0596 -0.3204 -0.0963
  176SOPE   C3219998   1.295   6.108   9.963 -0.3581 -0.9188  0.1329
  176SOPE   H2X19999   1.235   6.200   9.947 -1.4039 -1.1765  2.1810
  176SOPE   H2Y20000   1.229   6.029   9.922 -0.0483 -0.2423 -1.7354
  176SOPE   C2320001   1.359   5.486  10.116  0.0401 -0.1792  0.3321
  176SOPE   H3R20002   1.251   5.473  10.138  0.1436 -1.0539  0.3915
  176SOPE   H3S20003   1.404   5.388  10.087 -1.6623 -0.2098 -2.5885
  176SOPE   C2420004   1.388   5.590  10.011 -0.3821 -0.1504 -0.2478
  176SOPE   H4R20005   1.363   5.694  10.040 -1.9715 -0.3301 -0.8689
  176SOPE   H4S20006   1.497   5.586   9.993 -0.0602  1.6783  1.1060
  176SOPE   C2520007   1.317   5.571   9.876 -0.0502 -0.0383  0.4074
  176SOPE   H5R20008   1.347   5.477   9.825 -0.2960  1.3299 -2.4291
  176SOPE   H5S20009   1.208   5.568   9.897 -0.2160 -1.4193 -0.4986
  176SOPE   C2620010   1.359   5.663   9.765  0.1731  0.2742  1.0222
  176SOPE   H6R20011   1.315   5.758   9.801 -1.8283 -0.0272 -0.4484
  176SOPE   H6S20012   1.469   5.662   9.751  0.1535  1.9835  0.5498
  176SOPE   C2720013   1.298   5.604   9.634 -0.7714 -0.3045  0.3002
  176SOPE   H7R20014   1.330   5.498   9.625  2.4272  0.6184 -0.2771
  176SOPE   H7S20015   1.187   5.599   9.640 -0.7243 -3.4903  0.1032
  176SOPE   C2820016   1.347   5.679   9.509  0.3547  0.2010  0.3829
  176SOPE   H8R20017   1.310   5.783   9.516 -1.6076 -0.0794 -3.0330
  176SOPE   H8S20018   1.456   5.697   9.496  0.4512  2.1855  3.1104
  176SOPE   C2920019   1.281   5.629   9.386 -0.2500 -0.5782  0.0137
  176SOPE   H9120020   1.172   5.640   9.386 -0.2517 -0.1717 -2.0110
  176SOPE  C21020021   1.335   5.581   9.274  0.1096 -0.8710  0.8225
  176SOPE  H10120022   1.264   5.552   9.195  1.7934 -0.5788 -0.8945
  176SOPE  C21120023   1.480   5.572   9.234 -0.7601  0.0149 -0.3186
  176SOPE  H11R20024   1.497   5.463   9.218  4.0713  0.7580 -1.8282
  176SOPE  H11S20025   1.539   5.607   9.322 -3.0863  2.3150  0.4393
  176SOPE  C21220026   1.520   5.652   9.113  0.2397  0.0920 -0.1352
  176SOPE  H12R20027   1.627   5.684   9.107  0.3382 -0.0911  0.5483
  176SOPE  H12S20028   1.456   5.742   9.112  0.2919  0.1203 -0.9269
  176SOPE  C21320029   1.461   5.580   8.988 -0.1327 -0.0629 -0.0377
  176SOPE  H13R20030   1.361   5.538   9.010  0.5027 -2.0788 -0.7518
  176SOPE  H13S20031   1.529   5.494   8.966 -0.0249  0.5571 -2.2893
  176SOPE  C21420032   1.448   5.653   8.854 -0.3137 -0.2969 -0.1786
  176SOPE  H14R20033   1.551   5.678   8.819 -0.4403 -0.8260 -0.9511
  176SOPE  H14S20034   1.400   5.752   8.871  0.6844 -0.0474  1.4886
  176SOPE  C21520035   1.361   5.577   8.752  0.1990 -0.1929  0.5418
  176SOPE  H15R20036   1.358   5.650   8.669  1.2316 -0.3311  0.3729
  176SOPE  H15S20037   1.261   5.554   8.796  1.5477  0.0985  4.0833
  176SOPE  C21620038   1.428   5.452   8.698 -0.2105  0.3433  0.3056
  176SOPE  H16R20039   1.426   5.383   8.786 -1.6768 -1.2536 -0.9139
  176SOPE  H16S20040   1.538   5.464   8.690 -0.2114  0.1183 -0.0520
  176SOPE  C21720041   1.358   5.399   8.574 -0.5666  0.3176 -0.1930
  176SOPE  H17R20042   1.248   5.415   8.567 -0.6556 -0.4746 -0.8249
  176SOPE  H17S20043   1.372   5.289   8.581  1.2914  0.1658 -3.8755
  176SOPE  C21820044   1.419   5.440   8.443 -0.3322  0.0416 -0.1323
  176SOPE  H18R20045   1.527   5.412   8.448 -0.5464 -0.6049  1.4643
  176SOPE  H18S20046   1.412   5.549   8.427 -1.1150 -0.1757 -1.3802
  176SOPE  H18T20047   1.375   5.399   8.349  0.1460  0.7448 -0.6798
  176SOPE   C3320048   1.427   6.118   9.879  0.1897  0.1947 -0.1117
  176SOPE   H3X20049   1.474   6.018   9.866  2.3093  1.2210 -0.9081
  176SOPE   H3Y20050   1.497   6.170   9.948  0.4019  0.4109 -0.4862
  176SOPE   C3420051   1.417   6.193   9.748  0.8599 -1.1701 -0.6406
  176SOPE   H4X20052   1.515   6.198   9.696  1.3648  1.9331  0.3592
  176SOPE   H4Y20053   1.383   6.298   9.765 -0.5296 -1.4988 -1.1956
  176SOPE   C3520054   1.320   6.138   9.648 -0.3077  0.0299 -0.1367
  176SOPE   H5X20055   1.215   6.143   9.684 -1.1124  2.3796 -2.5386
  176SOPE   H5Y20056   1.343   6.030   9.633 -1.6364 -0.2542 -0.1900
  176SOPE   C3620057   1.333   6.220   9.514  0.2926  0.5730 -0.2131
  176SOPE   H6X20058   1.439   6.225   9.480  0.7822  0.3062  1.1881
  176SOPE   H6Y20059   1.282   6.318   9.524 -1.4206  0.0364 -2.8383
  176SOPE   C3720060   1.263   6.150   9.397  0.0861 -0.0517  0.5853
  176SOPE   H7X20061   1.170   6.096   9.424 -0.2002  0.4834  0.6807
  176SOPE   H7Y20062   1.328   6.072   9.352  0.3956  1.6834 -2.2184
  176SOPE   C3820063   1.231   6.237   9.274  0.6921  0.2337  0.0787
  176SOPE   H8X20064   1.315   6.302   9.239  1.1550 -0.6252 -0.4216
  176SOPE   H8Y20065   1.141   6.297   9.301 -0.5000 -2.5129  2.6981
  176SOPE   C3920066   1.203   6.164   9.145 -0.0667  0.5234  0.2152
  176SOPE   H9X20067   1.116   6.095   9.147  0.6502 -0.3898  1.0827
  176SOPE   H9Y20068   1.286   6.094   9.119 -2.6404 -3.3212  1.5308
  176SOPE  C31020069   1.189   6.267   9.031 -0.5783  0.1376 -0.2051
  176SOPE  H10X20070   1.276   6.335   9.041  2.4287 -3.1612 -1.8438
  176SOPE  H10Y20071   1.092   6.319   9.048 -0.9110 -0.7153  0.5938
  176SOPE  C31120072   1.197   6.208   8.885  0.1036 -0.7136  0.5343
  176SOPE  H11X20073   1.302   6.207   8.848 -0.5895 -0.8768 -1.5103
  176SOPE  H11Y20074   1.159   6.294   8.826  0.4731  0.0251  1.3476
  176SOPE  C31220075   1.106   6.088   8.876 -0.2377 -0.0069 -0.1195
  176SOPE  H12X20076   1.004   6.114   8.910 -0.4550 -2.0593  0.9576
  176SOPE  H12Y20077   1.143   6.006   8.941  2.8021  0.7514 -0.7322
  176SOPE  C31320078   1.106   6.027   8.735  0.0544 -0.6926  0.2803
  176SOPE  H13X20079   1.213   6.023   8.702  0.2463  0.0043  0.7845
  176SOPE  H13Y20080   1.051   6.089   8.661 -2.8481 -1.4769  1.6538
  176SOPE  C31420081   1.041   5.887   8.741  0.4483 -0.4703  0.0802
  176SOPE  H14X20082   0.937   5.892   8.779  0.8019  1.1951  0.9018
  176SOPE  H14Y20083   1.096   5.820   8.810  0.9640 -1.3879 -1.1644
  176SOPE  C31520084   1.047   5.826   8.596 -0.0604  0.5242 -1.2265
  176SOPE  H15X20085   1.153   5.836   8.563  1.3461 -1.3807  2.1508
  176SOPE  H15Y20086   0.975   5.877   8.529 -2.2532 -2.4080 -1.3264
  176SOPE  C31620087   1.014   5.677   8.590 -0.4295 -0.2380  0.0855
  176SOPE  H16X20088   1.080   5.612   8.652  0.5924 -2.0055 -2.6826
  176SOPE  H16Y20089   1.037   5.632   8.491  1.1163 -1.6931  1.0609
  176SOPE  C31720090   0.876   5.626   8.629 -0.1496 -0.2709  0.4495
  176SOPE  H17X20091   0.873   5.656   8.735  1.1469  1.7076 -0.0238
  176SOPE  H17Y20092   0.875   5.515   8.620 -1.1743 -0.2791  0.5987
  176SOPE  C31820093   0.755   5.680   8.550 -0.1980 -0.1954 -0.0105
  176SOPE  H18X20094   0.773   5.680   8.441  0.4017 -1.2229  0.0729
  176SOPE  H18Y20095   0.747   5.785   8.584  0.0274 -0.6210  1.4607
  176SOPE  H18Z20096   0.664   5.620   8.572  0.4079 -1.7815 -1.5673
  177SOPE     N20097   1.268   3.490  10.963  0.3598  0.4123 -0.8983
  177SOPE   HN120098   1.175   3.474  11.008  1.6451 -3.3959  0.8102
  177SOPE   HN220099   1.302   3.393  10.949  0.6333  0.3698 -0.0084
  177SOPE   HN320100   1.329   3.536  11.034 -0.2757  1.1219 -0.7925
  177SOPE   C1220101   1.267   3.559  10.830 -0.0855  0.3339  0.1998
  177SOPE  H12A20102   1.212   3.653  10.854  0.1003  0.4596  0.1428
  177SOPE  H12B20103   1.206   3.502  10.757  1.3424 -3.7899  1.9438
  177SOPE   C1120104   1.407   3.599  10.783 -0.6743  0.1262  0.7039
  177SOPE  H11A20105   1.400   3.677  10.705  0.8138 -0.1495  0.2743
  177SOPE  H11B20106   1.456   3.515  10.729  1.3424  1.2850  0.6402
  177SOPE     P20107   1.603   3.744  10.866 -0.0725  0.1022  0.5712
  177SOPE   O1320108   1.660   3.761  10.997  0.8886  0.4201  0.2829
  177SOPE   O1420109   1.547   3.863  10.800  0.0599  0.1451  0.6657
  177SOPE   O1220110   1.497   3.637  10.894 -0.2664 -0.0446  0.5905
  177SOPE   O1120111   1.705   3.671  10.770 -0.2759 -0.0165 -0.3408
  177SOPE    C120112   1.735   3.534  10.767  0.0034 -0.0214 -0.4459
  177SOPE    HA20113   1.661   3.469  10.820  1.2340 -1.0018  0.1164
  177SOPE    HB20114   1.831   3.522  10.821  0.1625  1.3538 -0.4016
  177SOPE    C220115   1.755   3.472  10.625 -0.0721 -0.5431 -0.3058
  177SOPE    HS20116   1.861   3.472  10.593  1.0287  2.4662  2.7304
  177SOPE   O2120117   1.686   3.558  10.526 -0.1992 -0.3329  0.7428
  177SOPE   C2120118   1.744   3.662  10.486 -0.0370 -0.4433 -0.0925
  177SOPE   O2220119   1.855   3.704  10.515 -0.3907 -0.3253 -0.5096
  177SOPE   C2220120   1.649   3.723  10.383 -0.3925 -0.2451 -0.2911
  177SOPE   H2R20121   1.570   3.769  10.446  1.8461 -0.3760  2.8975
  177SOPE   H2S20122   1.595   3.645  10.325 -2.3773  0.0915  1.0090
  177SOPE    C320123   1.706   3.328  10.621  0.0526 -0.8322 -0.9319
  177SOPE    HX20124   1.598   3.328  10.646 -0.0219 -1.3948 -1.2328
  177SOPE    HY20125   1.769   3.274  10.695  1.1279  0.6573 -0.7046
  177SOPE   O3120126   1.734   3.281  10.490  0.4979 -0.4137 -0.0382
  177SOPE   C3120127   1.648   3.203  10.427 -0.4477 -0.1025 -0.2677
  177SOPE   O3220128   1.537   3.175  10.463  0.5074 -0.7072 -0.0938
  177SOPE   C3220129   1.718   3.147  10.301  0.2165  0.3416 -0.6290
  177SOPE   H2X20130   1.825   3.133  10.327  0.0012  2.1093  1.4373
  177SOPE   H2Y20131   1.717   3.234  10.231 -0.6937  1.7616  1.0852
  177SOPE   C2320132   1.720   3.828  10.300  0.4622 -0.3085 -0.3005
  177SOPE   H3R20133   1.783   3.896  10.361 -0.6051 -1.7616  2.6462
  177SOPE   H3S20134   1.640   3.889  10.254 -1.6115 -0.8322  2.3464
  177SOPE   C2420135   1.805   3.763  10.190 -0.2791  0.0037  0.3763
  177SOPE   H4R20136   1.856   3.847  10.138  0.2556 -0.5123  0.0452
  177SOPE   H4S20137   1.876   3.689  10.232 -0.1672  0.1759  0.4933
  177SOPE   C2520138   1.719   3.697  10.081 -0.5385 -0.1975 -0.3259
  177SOPE   H5R20139   1.664   3.614  10.130  0.7053 -0.2250  1.0806
  177SOPE   H5S20140   1.649   3.778  10.052 -2.0394 -1.0891  0.6642
  177SOPE   C2620141   1.814   3.666   9.965 -0.3690 -0.4256  0.3090
  177SOPE   H6R20142   1.852   3.764   9.929 -0.5564 -1.0739 -1.7639
  177SOPE   H6S20143   1.903   3.604   9.985 -0.2984  0.1131  1.8320
  177SOPE   C2720144   1.739   3.602   9.845  0.0330 -0.2798 -0.8457
  177SOPE   H7R20145   1.813   3.563   9.772 -0.4465 -1.0651 -0.9273
  177SOPE   H7S20146   1.682   3.524   9.900  2.2717  1.0263  3.8692
  177SOPE   C2820147   1.648   3.684   9.762 -0.2600  0.0979  0.6536
  177SOPE   H8R20148   1.588   3.617   9.697  0.1744  0.8407 -0.5519
  177SOPE   H8S20149   1.581   3.736   9.833 -1.2417 -1.3416  0.8344
  177SOPE   C2920150   1.717   3.779   9.666 -0.5472 -0.7181 -0.4020
  177SOPE   H9120151   1.751   3.873   9.711  0.2075 -0.0371 -2.2846
  177SOPE  C21020152   1.734   3.775   9.532 -0.7337  0.2691  0.1399
  177SOPE  H10120153   1.790   3.860   9.491  1.9745  0.0925  3.0238
  177SOPE  C21120154   1.694   3.657   9.443  0.4322 -0.2472  0.3357
  177SOPE  H11R20155   1.611   3.604   9.493  2.6269 -0.9119  3.5627
  177SOPE  H11S20156   1.775   3.584   9.421 -0.7845 -1.6890  0.4932
  177SOPE  C21220157   1.640   3.701   9.301  0.3188  0.1144  0.4389
  177SOPE  H12R20158   1.712   3.775   9.259  1.1830 -1.7177 -1.4911
  177SOPE  H12S20159   1.547   3.761   9.309 -0.4721 -1.2739  2.2012
  177SOPE  C21320160   1.601   3.585   9.209 -0.0137 -0.0310 -0.0074
  177SOPE  H13R20161   1.501   3.550   9.242 -1.0176  2.7933  0.2524
  177SOPE  H13S20162   1.675   3.502   9.217  1.6967  1.3550 -0.7339
  177SOPE  C21420163   1.596   3.628   9.060 -0.6390  0.3785 -0.5758
  177SOPE  H14R20164   1.498   3.677   9.041  0.2259  2.4355 -0.0368
  177SOPE  H14S20165   1.580   3.535   9.002 -2.5524 -0.5109  1.2602
  177SOPE  C21520166   1.709   3.708   9.018  0.5602 -0.2165 -0.5799
  177SOPE  H15R20167   1.799   3.693   9.082  1.3224 -0.2988 -1.6453
  177SOPE  H15S20168   1.687   3.817   9.025  1.2377 -0.1332  0.4500
  177SOPE  C21620169   1.756   3.675   8.875  0.7545  0.6758 -0.8443
  177SOPE  H16R20170   1.665   3.670   8.810  1.1618  0.3001 -1.3988
  177SOPE  H16S20171   1.790   3.570   8.888 -0.7572  0.0841 -1.4101
  177SOPE  C21720172   1.871   3.754   8.818 -0.6434 -0.1321  0.2152
  177SOPE  H17R20173   1.860   3.864   8.803  2.0198  0.3252  0.9627
  177SOPE  H17S20174   1.879   3.711   8.716  0.8797 -1.3914  0.8224
  177SOPE  C21820175   2.009   3.738   8.883  0.3869 -0.7982 -0.3290
  177SOPE  H18R20176   2.095   3.776   8.823 -1.2113  0.7473 -1.7883
  177SOPE  H18S20177   2.020   3.629   8.899 -0.6824 -0.5859  2.4804
  177SOPE  H18T20178   2.011   3.785   8.983  1.0594 -1.3338 -0.0844
  177SOPE   C3320179   1.646   3.025  10.227 -0.0224 -0.7373  0.2223
  177SOPE   H3X20180   1.542   3.060  10.207  0.6624  1.3363  0.0066
  177SOPE   H3Y20181   1.652   2.935  10.293  2.0350 -1.0739 -0.3603
  177SOPE   C3420182   1.715   3.005  10.090  0.0719 -0.2021 -0.1961
  177SOPE   H4X20183   1.812   2.954  10.109  0.3665  0.7290  0.9525
  177SOPE   H4Y20184   1.745   3.105  10.052 -1.8408 -0.4019 -2.4462
  177SOPE   C3520185   1.633   2.928   9.987  0.4947  0.7183 -0.1912
  177SOPE   H5X20186   1.556   3.004   9.965 -0.9437  0.3137  2.8469
  177SOPE   H5Y20187   1.575   2.844  10.031  0.4983 -1.1732 -3.5173
  177SOPE   C3620188   1.712   2.894   9.854  0.3591  0.2963  0.5504
  177SOPE   H6X20189   1.791   2.818   9.876 -0.7323 -1.4700 -1.2075
  177SOPE   H6Y20190   1.764   2.987   9.822  0.4666 -0.4062 -1.4649
  177SOPE   C3720191   1.630   2.828   9.739 -0.1039  0.7483  0.9704
  177SOPE   H7X20192   1.553   2.901   9.707  0.5989  0.3148 -2.0229
  177SOPE   H7Y20193   1.578   2.737   9.778 -0.4738  0.0106 -1.1116
  177SOPE   C3820194   1.712   2.788   9.613 -0.3296 -0.3751 -1.1023
  177SOPE   H8X20195   1.745   2.682   9.621  1.6625  0.3521  3.6248
  177SOPE   H8Y20196   1.801   2.854   9.598  0.9502 -1.2037  2.0419
  177SOPE   C3920197   1.629   2.810   9.481  0.4692  0.4755  0.1776
  177SOPE   H9X20198   1.584   2.911   9.489 -0.6124 -0.0522  0.9241
  177SOPE   H9Y20199   1.534   2.754   9.487  0.6510  0.2267  6.0332
  177SOPE  C31020200   1.704   2.798   9.351 -0.7162 -0.0718 -0.6656
  177SOPE  H10X20201   1.749   2.697   9.349  4.1093  1.6583  2.4695
  177SOPE  H10Y20202   1.788   2.868   9.328  1.1574 -2.3279 -1.0410
  177SOPE  C31120203   1.615   2.815   9.226  0.3218 -0.0113  0.0751
  177SOPE  H11X20204   1.590   2.923   9.222  2.2830  0.4554 -0.9081
  177SOPE  H11Y20205   1.531   2.744   9.244  1.3727 -1.3592 -0.1608
  177SOPE  C31220206   1.686   2.788   9.092 -0.3662  0.6488  0.1949
  177SOPE  H12X20207   1.728   2.685   9.086  2.0106  1.6454 -2.5869
  177SOPE  H12Y20208   1.774   2.854   9.097  3.1638 -3.3267 -2.2792
  177SOPE  C31320209   1.594   2.821   8.972 -0.1194  0.4228 -0.4680
  177SOPE  H13X20210   1.635   2.914   8.927  1.5352 -0.2372 -0.4028
  177SOPE  H13Y20211   1.489   2.840   9.004 -0.4373 -0.6946 -0.8300
  177SOPE  C31420212   1.610   2.706   8.872  0.6658 -0.2502  0.0258
  177SOPE  H14X20213   1.717   2.680   8.858  0.6039  0.8457 -3.6153
  177SOPE  H14Y20214   1.574   2.755   8.778  0.3322  1.4992  1.0199
  177SOPE  C31520215   1.527   2.590   8.897  0.4488  0.0397 -1.0677
  177SOPE  H15X20216   1.422   2.608   8.929  0.1667 -0.8480 -1.4690
  177SOPE  H15Y20217   1.566   2.532   8.984  1.8012  0.0412 -1.6524
  177SOPE  C31620218   1.506   2.484   8.789 -0.1423 -0.1986 -0.1959
  177SOPE  H16X20219   1.451   2.403   8.842  1.2390 -0.4674  0.8850
  177SOPE  H16Y20220   1.607   2.439   8.776  0.9800  2.2195 -0.3587
  177SOPE  C31720221   1.434   2.526   8.658  0.9958  0.1550  0.0579
  177SOPE  H17X20222   1.422   2.431   8.602 -0.5410  0.8549 -0.8654
  177SOPE  H17Y20223   1.491   2.596   8.593 -2.0206  1.6625 -1.1317
  177SOPE  C31820224   1.290   2.579   8.668 -0.2152  0.0365  0.1770
  177SOPE  H18X20225   1.282   2.661   8.743 -3.3635  0.0997 -0.1043
  177SOPE  H18Y20226   1.231   2.496   8.713 -0.7274  0.3947  0.1661
  177SOPE  H18Z20227   1.249   2.613   8.571 -0.0393 -2.0931 -0.6872
  178SOPE     N20228   2.725   1.143  10.930 -0.0236 -0.1726 -0.2092
  178SOPE   HN120229   2.796   1.107  10.863 -0.4519 -0.4027 -0.5402
  178SOPE   HN220230   2.700   1.072  11.002 -1.4103  0.8084  0.3189
  178SOPE   HN320231   2.636   1.161  10.880  0.6252  0.3438 -1.2044
  178SOPE   C1220232   2.783   1.274  10.984  0.3793 -0.4538 -0.1107
  178SOPE  H12A20233   2.870   1.248  11.048  0.5317  0.9257  0.2694
  178SOPE  H12B20234   2.709   1.323  11.050  0.5343 -0.2088 -0.1152
  178SOPE   C1120235   2.839   1.358  10.870  0.3201 -0.3934 -0.1739
  178SOPE  H11A20236   2.866   1.456  10.915 -1.6991 -0.0243  0.3340
  178SOPE  H11B20237   2.764   1.371  10.788  1.5404 -0.7460 -1.3853
  178SOPE     P20238   3.071   1.380  10.757 -0.2880 -0.3140  0.1115
  178SOPE   O1320239   3.200   1.310  10.740  0.6741  0.5043  0.2728
  178SOPE   O1420240   3.080   1.504  10.832 -0.4950  0.0411  0.6736
  178SOPE   O1220241   2.955   1.288  10.815  0.1955  0.6837  0.0043
  178SOPE   O1120242   3.017   1.417  10.609  0.2854 -0.6509  0.4107
  178SOPE    C120243   2.924   1.526  10.587  0.2100 -0.4731 -0.3950
  178SOPE    HA20244   2.906   1.584  10.679  2.2268 -1.3103  0.5732
  178SOPE    HB20245   2.827   1.484  10.552 -1.0073  0.7749  1.3114
  178SOPE    C220246   2.960   1.623  10.472 -0.4323 -0.1500 -0.3654
  178SOPE    HS20247   2.878   1.695  10.451 -0.7743 -0.4457 -0.0661
  178SOPE   O2120248   3.004   1.542  10.354  0.8006  0.2426 -0.2891
  178SOPE   C2120249   2.898   1.492  10.291 -0.0575  0.1355  0.0075
  178SOPE   O2220250   2.783   1.506  10.320 -0.3760  0.0583 -0.0285
  178SOPE   C2220251   2.951   1.400  10.177 -0.4780 -0.3549 -0.8963
  178SOPE   H2R20252   2.867   1.330  10.157 -1.2639  0.6722 -1.2230
  178SOPE   H2S20253   3.042   1.348  10.214 -0.3912 -0.9107 -1.8342
  178SOPE    C320254   3.088   1.711  10.520  0.2303  0.0124 -0.0613
  178SOPE    HX20255   3.166   1.640  10.557  1.6518  0.7780 -1.4923
  178SOPE    HY20256   3.050   1.774  10.603  2.1967 -1.2674  1.9296
  178SOPE   O3120257   3.134   1.797  10.415 -0.0073 -0.3414  0.0213
  178SOPE   C3120258   3.229   1.759  10.323  1.0444 -0.6422  0.5502
  178SOPE   O3220259   3.296   1.662  10.329 -0.0617  0.0380  0.1547
  178SOPE   C3220260   3.245   1.877  10.227 -0.3298  0.3297  0.2695
  178SOPE   H2X20261   3.340   1.930  10.245 -0.7809  1.2224  0.0691
  178SOPE   H2Y20262   3.174   1.962  10.236 -0.2345  0.4329  0.0627
  178SOPE   C2320263   2.989   1.485  10.049  0.0761 -0.5687  0.2353
  178SOPE   H3R20264   3.033   1.408   9.982  2.0714 -1.9078  2.8919
  178SOPE   H3S20265   3.072   1.545  10.093  0.8345 -0.1765 -1.6682
  178SOPE   C2420266   2.878   1.566   9.989  0.1320 -0.9514 -0.3790
  178SOPE   H4R20267   2.832   1.639  10.060 -3.4103 -1.5285 -1.8509
  178SOPE   H4S20268   2.919   1.622   9.903 -1.0497 -1.8354 -1.5663
  178SOPE   C2520269   2.755   1.487   9.932 -0.1175 -0.3171 -0.0078
  178SOPE   H5R20270   2.710   1.419  10.008 -0.1633 -3.3343 -2.5390
  178SOPE   H5S20271   2.669   1.555   9.911 -1.0617 -0.3845  3.0449
  178SOPE   C2620272   2.799   1.400   9.813 -0.0626  0.0061 -0.4415
  178SOPE   H6R20273   2.893   1.349   9.840 -0.8365 -0.8163  0.8044
  178SOPE   H6S20274   2.725   1.323   9.783  0.6533 -1.1894  0.7759
  178SOPE   C2720275   2.814   1.481   9.685 -0.0493  0.0158 -0.3931
  178SOPE   H7R20276   2.721   1.539   9.670  0.1597 -0.1248 -2.4725
  178SOPE   H7S20277   2.896   1.554   9.706  0.7091 -0.8893 -0.1332
  178SOPE   C2820278   2.848   1.411   9.554  0.7934  0.1016 -0.7687
  178SOPE   H8R20279   2.920   1.484   9.509  2.5310 -1.4791 -0.6608
  178SOPE   H8S20280   2.900   1.314   9.567  0.9195  0.1599 -0.8349
  178SOPE   C2920281   2.738   1.393   9.455  0.3366 -0.5914 -0.1005
  178SOPE   H9120282   2.694   1.292   9.459 -1.4263  0.1871  1.5920
  178SOPE  C21020283   2.703   1.478   9.354  0.5946  0.1645 -0.2774
  178SOPE  H10120284   2.616   1.449   9.294 -0.9465  2.4874  0.6607
  178SOPE  C21120285   2.757   1.616   9.323 -0.2299 -0.1442  0.4186
  178SOPE  H11R20286   2.816   1.662   9.405  0.3511  0.2515 -0.2150
  178SOPE  H11S20287   2.670   1.683   9.312 -1.5485 -2.0528 -1.6527
  178SOPE  C21220288   2.848   1.648   9.203 -0.0866 -0.1841 -0.2137
  178SOPE  H12R20289   2.952   1.616   9.227 -0.4675  0.2949  2.4433
  178SOPE  H12S20290   2.859   1.758   9.213  2.3920 -0.5452  2.0887
  178SOPE  C21320291   2.813   1.592   9.065 -0.4823  0.3510  0.0369
  178SOPE  H13R20292   2.719   1.628   9.018  0.7447  1.6657 -1.5151
  178SOPE  H13S20293   2.814   1.481   9.070  2.0973  0.3427  0.5719
  178SOPE  C21420294   2.931   1.629   8.969  0.2283 -0.0903  0.1734
  178SOPE  H14R20295   3.028   1.586   9.001 -0.1571 -1.9789 -1.0319
  178SOPE  H14S20296   2.928   1.740   8.966 -0.7495 -0.0461  1.8150
  178SOPE  C21520297   2.890   1.598   8.831 -0.5722  0.2432 -0.0232
  178SOPE  H15R20298   2.811   1.670   8.799 -1.5522 -1.0674 -0.6262
  178SOPE  H15S20299   2.834   1.502   8.833 -1.1206  0.4714 -1.9402
  178SOPE  C21620300   3.001   1.585   8.726 -0.1782 -0.6680 -0.5127
  178SOPE  H16R20301   3.075   1.511   8.761 -0.7528 -0.6333  0.8165
  178SOPE  H16S20302   3.060   1.679   8.724  0.2548 -0.8261  2.1280
  178SOPE  C21720303   2.951   1.562   8.581 -0.0613 -0.1991  0.0698
  178SOPE  H17R20304   2.894   1.653   8.555  0.9067  0.3298 -0.2798
  178SOPE  H17S20305   2.885   1.473   8.581 -0.2769 -0.0438 -0.7398
  178SOPE  C21820306   3.063   1.535   8.473 -0.3887  0.3091 -0.0931
  178SOPE  H18R20307   3.126   1.452   8.510  0.9141  1.6854  0.8935
  178SOPE  H18S20308   3.141   1.614   8.463  1.3620 -1.0037  2.1676
  178SOPE  H18T20309   3.030   1.514   8.369  2.2795  0.1193 -0.9842
  178SOPE   C3320310   3.226   1.818  10.085 -0.3836 -0.0691 -0.3567
  178SOPE   H3X20311   3.130   1.762  10.079 -1.0164  0.9671 -0.0956
  178SOPE   H3Y20312   3.310   1.747  10.069  0.4823  1.2623 -2.1593
  178SOPE   C3420313   3.228   1.913   9.965  0.1794  0.7057  0.5974
  178SOPE   H4X20314   3.332   1.948   9.949  0.6489 -0.7260  0.2907
  178SOPE   H4Y20315   3.178   2.004  10.002 -0.4493  0.4032  0.5058
  178SOPE   C3520316   3.158   1.854   9.835 -0.4208  0.2702 -0.2871
  178SOPE   H5X20317   3.116   1.944   9.785  0.7304  1.9027  1.5056
  178SOPE   H5Y20318   3.073   1.788   9.862 -0.3322  0.3865  0.2900
  178SOPE   C3620319   3.255   1.768   9.759  1.1339  0.6461  0.6357
  178SOPE   H6X20320   3.280   1.680   9.822  1.5689 -1.1905 -1.9725
  178SOPE   H6Y20321   3.341   1.829   9.726 -1.0629  3.2203 -0.7336
  178SOPE   C3720322   3.208   1.721   9.627  0.4967  0.5412 -0.2605
  178SOPE   H7X20323   3.105   1.682   9.644  1.3331 -1.8329 -0.3568
  178SOPE   H7Y20324   3.273   1.645   9.579 -0.2947 -0.0304 -0.4520
  178SOPE   C3820325   3.224   1.836   9.525 -0.1318  0.0166  0.9580
  178SOPE   H8X20326   3.327   1.877   9.523 -0.1650  0.2880 -3.1779
  178SOPE   H8Y20327   3.154   1.907   9.575  1.1937  0.5759  2.0929
  178SOPE   C3920328   3.167   1.801   9.385 -0.6316 -0.6621  0.4909
  178SOPE   H9X20329   3.068   1.751   9.391  0.2110 -2.9057 -1.9056
  178SOPE   H9Y20330   3.225   1.713   9.349 -0.2703  0.1307 -0.9749
  178SOPE  C31020331   3.185   1.905   9.272 -0.0022  0.5879  0.4927
  178SOPE  H10X20332   3.286   1.950   9.273  0.9648 -1.1376 -2.9801
  178SOPE  H10Y20333   3.118   1.992   9.292  0.6559  0.5259  3.4501
  178SOPE  C31120334   3.161   1.854   9.128  0.7084  1.3808 -0.4308
  178SOPE  H11X20335   3.052   1.830   9.119  0.7499  1.4968 -1.3446
  178SOPE  H11Y20336   3.228   1.766   9.125  0.2657  0.9240  1.6233
  178SOPE  C31220337   3.205   1.950   9.014  0.2000  0.1183 -0.3697
  178SOPE  H12X20338   3.312   1.975   9.028 -0.1157  0.5566  1.5686
  178SOPE  H12Y20339   3.151   2.043   9.039  0.8056  0.1441  0.9446
  178SOPE  C31320340   3.179   1.892   8.869 -0.1712  0.2661  0.3076
  178SOPE  H13X20341   3.069   1.876   8.860 -0.1592 -0.0725  0.7855
  178SOPE  H13Y20342   3.233   1.797   8.853 -1.2503 -0.6549  1.8720
  178SOPE  C31420343   3.213   1.989   8.756  0.1039 -0.2530  0.5728
  178SOPE  H14X20344   3.319   2.024   8.765  1.1167 -3.1751  1.1330
  178SOPE  H14Y20345   3.147   2.078   8.769  0.0542 -0.5976  3.0835
  178SOPE  C31520346   3.211   1.928   8.611 -0.1762  0.8958 -0.8652
  178SOPE  H15X20347   3.120   1.869   8.589  0.8626 -1.2740  0.3427
  178SOPE  H15Y20348   3.290   1.850   8.612  0.8800  1.9265 -0.4889
  178SOPE  C31620349   3.237   2.024   8.494 -0.4871  0.4566 -0.0601
  178SOPE  H16X20350   3.330   2.081   8.514 -1.9713  2.2529  2.2951
  178SOPE  H16Y20351   3.161   2.105   8.489  0.0984  0.9642 -0.9738
  178SOPE  C31720352   3.232   1.955   8.354 -0.4780 -0.5318 -0.2757
  178SOPE  H17X20353   3.311   1.878   8.368  0.5601  0.8237  1.7788
  178SOPE  H17Y20354   3.272   2.021   8.274  1.1264 -2.3498 -1.0604
  178SOPE  C31820355   3.097   1.907   8.305 -0.0960 -0.7362 -0.8248
  178SOPE  H18X20356   3.033   1.996   8.286 -0.0416 -0.8152 -1.4023
  178SOPE  H18Y20357   3.048   1.837   8.376  1.6113  0.8070  2.0482
  178SOPE  H18Z20358   3.111   1.852   8.209  3.5550 -0.0841 -0.8076
  179SOPE     N20359   1.086   2.198   6.391  0.1650 -1.1420 -0.3644
  179SOPE   HN120360   1.055   2.290   6.353  0.2548 -0.8698  0.2218
  179SOPE   HN220361   1.186   2.180   6.367  0.9889  1.8056  0.5306
  179SOPE   HN320362   1.023   2.128   6.345 -1.1005 -0.9345  0.9681
  179SOPE   C1220363   1.081   2.199   6.542 -0.2209  0.5637  0.4819
  179SOPE  H12A20364   1.156   2.275   6.572 -0.3403  0.3947  1.2236
  179SOPE  H12B20365   1.105   2.096   6.576 -1.7634 -1.1120 -2.9613
  179SOPE   C1120366   0.948   2.241   6.606  0.1129  0.6751 -0.8468
  179SOPE  H11A20367   0.959   2.210   6.713  0.4002  0.0282 -1.0600
  179SOPE  H11B20368   0.870   2.176   6.562 -2.4071  3.5077 -0.9222
  179SOPE     P20369   0.799   2.442   6.549 -0.1336 -0.2775  0.5339
  179SOPE   O1320370   0.758   2.365   6.432 -0.1481  0.0856  0.4009
  179SOPE   O1420371   0.833   2.586   6.524 -0.1264 -0.0705 -0.3675
  179SOPE   O1220372   0.927   2.377   6.598  0.2684  0.6313  0.1640
  179SOPE   O1120373   0.691   2.421   6.666  0.1466 -0.2493  0.0112
  179SOPE    C120374   0.708   2.489   6.796 -0.0348  0.0187  0.1463
  179SOPE    HA20375   0.607   2.526   6.826 -0.3226  0.3659 -1.1938
  179SOPE    HB20376   0.761   2.586   6.787 -0.2060  0.1056  0.0695
  179SOPE    C220377   0.750   2.401   6.913  0.2519 -0.8703 -0.2200
  179SOPE    HS20378   0.713   2.450   7.006 -2.3195 -1.1254 -1.0364
  179SOPE   O2120379   0.885   2.375   6.912 -0.2698  0.1709  0.8897
  179SOPE   C2120380   0.967   2.478   6.938 -0.7614 -0.1548 -0.0120
  179SOPE   O2220381   0.929   2.586   6.980 -0.0461 -0.7555 -0.5100
  179SOPE   C2220382   1.114   2.443   6.919  0.5485 -0.0184 -0.5179
  179SOPE   H2R20383   1.126   2.457   6.810 -1.2068  4.7124 -0.3220
  179SOPE   H2S20384   1.133   2.335   6.934 -3.8581 -1.1907 -2.0112
  179SOPE    C320385   0.667   2.266   6.910  0.1238 -0.1835  1.0090
  179SOPE    HX20386   0.721   2.191   6.848 -0.6201 -0.3386  0.5370
  179SOPE    HY20387   0.565   2.291   6.875 -0.2338 -1.6201  0.9674
  179SOPE   O3120388   0.653   2.218   7.046 -0.0466 -0.5408  0.3221
  179SOPE   C3120389   0.609   2.098   7.059 -0.4556  0.1578 -0.2538
  179SOPE   O3220390   0.603   2.013   6.974  0.1838 -0.0044  0.2690
  179SOPE   C3220391   0.561   2.088   7.209  0.4319  0.0007 -0.3464
  179SOPE   H2X20392   0.450   2.082   7.209  0.4855 -1.2536 -0.0150
  179SOPE   H2Y20393   0.608   2.172   7.265  2.8313 -1.9980  0.8241
  179SOPE   C2320394   1.220   2.537   6.987 -0.4395  0.2185 -0.0102
  179SOPE   H3R20395   1.226   2.645   6.963  0.0455  0.1449 -0.2307
  179SOPE   H3S20396   1.318   2.500   6.949 -0.0292  3.6897 -2.9259
  179SOPE   C2420397   1.205   2.522   7.136 -0.1249 -0.8321  0.1451
  179SOPE   H4R20398   1.106   2.560   7.167 -0.5642 -1.3279 -0.6098
  179SOPE   H4S20399   1.198   2.411   7.141  2.0168 -1.1757 -2.3183
  179SOPE   C2520400   1.317   2.585   7.229  0.4597  0.2317 -0.2033
  179SOPE   H5R20401   1.410   2.528   7.207 -1.0288 -1.8082 -1.5850
  179SOPE   H5S20402   1.326   2.691   7.200  3.0365  0.2350  0.3875
  179SOPE   C2620403   1.284   2.573   7.377  0.2484  0.2896  0.0194
  179SOPE   H6R20404   1.195   2.626   7.416 -0.8069 -0.2639 -1.5402
  179SOPE   H6S20405   1.268   2.466   7.404 -0.6577  0.3335 -0.3234
  179SOPE   C2720406   1.400   2.616   7.464 -1.2208 -0.5386  0.3052
  179SOPE   H7R20407   1.497   2.610   7.410 -0.8672 -1.9018  1.0428
  179SOPE   H7S20408   1.382   2.724   7.483 -0.0906 -0.5424  1.5520
  179SOPE   C2820409   1.417   2.535   7.598  0.0213 -0.0982  0.6070
  179SOPE   H8R20410   1.441   2.430   7.571  1.6330  1.0731 -3.1354
  179SOPE   H8S20411   1.513   2.567   7.645  1.8518 -1.4608 -2.0126
  179SOPE   C2920412   1.293   2.561   7.681  0.8948  0.8869  0.2106
  179SOPE   H9120413   1.240   2.655   7.664  0.0555  0.5592  0.9458
  179SOPE  C21020414   1.231   2.470   7.753 -0.0832 -0.2489 -0.2270
  179SOPE  H10120415   1.135   2.499   7.798 -0.3988  0.9037 -1.5808
  179SOPE  C21120416   1.277   2.331   7.785 -0.4958 -0.1724  0.1373
  179SOPE  H11R20417   1.377   2.314   7.739 -2.3175 -1.9153 -3.5151
  179SOPE  H11S20418   1.215   2.254   7.736  2.9329 -1.8685 -1.9491
  179SOPE  C21220419   1.282   2.306   7.942  0.1637 -0.7222  0.7713
  179SOPE  H12R20420   1.296   2.196   7.952  1.5515 -0.5797  0.6304
  179SOPE  H12S20421   1.185   2.328   7.991  1.0095  2.7154  1.1594
  179SOPE  C21320422   1.412   2.365   8.003  0.2200 -0.6085  0.5622
  179SOPE  H13R20423   1.416   2.470   7.968  1.8686 -1.0354 -0.6454
  179SOPE  H13S20424   1.504   2.325   7.956  1.4834  4.0162 -1.5272
  179SOPE  C21420425   1.419   2.359   8.157  0.4032 -0.1633 -0.0891
  179SOPE  H14R20426   1.318   2.383   8.198  0.1111 -1.3651 -0.0521
  179SOPE  H14S20427   1.493   2.430   8.199 -1.0088  1.5464 -0.3727
  179SOPE  C21520428   1.448   2.223   8.226  0.0457 -0.5790 -0.2090
  179SOPE  H15R20429   1.547   2.195   8.184  0.3394 -1.2541  0.8897
  179SOPE  H15S20430   1.364   2.160   8.191 -1.8529  2.1879 -0.9165
  179SOPE  C21620431   1.466   2.229   8.375 -0.2038  0.0400  0.4108
  179SOPE  H16R20432   1.367   2.211   8.423 -1.1368  3.5960  0.1203
  179SOPE  H16S20433   1.510   2.325   8.408 -0.0567 -0.6402  2.3222
  179SOPE  C21720434   1.546   2.112   8.434 -0.3724  0.3062 -0.0072
  179SOPE  H17R20435   1.540   2.128   8.543  0.9103  1.9853 -0.1486
  179SOPE  H17S20436   1.651   2.120   8.399 -0.0267  1.8494  1.2989
  179SOPE  C21820437   1.477   1.972   8.401  0.0035 -0.6925 -0.2524
  179SOPE  H18R20438   1.378   1.976   8.450 -0.2486  1.7970 -0.8432
  179SOPE  H18S20439   1.543   1.889   8.435  2.2457  1.2652  0.4952
  179SOPE  H18T20440   1.462   1.957   8.292 -2.0656  0.8755 -0.2460
  179SOPE   C3320441   0.605   1.962   7.276 -0.6354  0.2879 -0.3489
  179SOPE   H3X20442   0.715   1.951   7.272 -0.6298 -1.3281  2.1737
  179SOPE   H3Y20443   0.558   1.877   7.222 -0.8703 -1.1840  2.0514
  179SOPE   C3420444   0.566   1.967   7.424  0.2485 -0.4665 -0.2674
  179SOPE   H4X20445   0.463   2.007   7.432  0.0238 -0.3322 -3.0016
  179SOPE   H4Y20446   0.640   2.031   7.477  0.1858 -0.6509  0.0510
  179SOPE   C3520447   0.582   1.833   7.490 -0.4008 -0.1340 -0.0830
  179SOPE   H5X20448   0.686   1.795   7.501  1.3468  3.4018 -2.6043
  179SOPE   H5Y20449   0.517   1.761   7.436 -0.4370 -0.5030  0.4413
  179SOPE   C3620450   0.529   1.840   7.636 -0.0765  0.4668  0.1616
  179SOPE   H6X20451   0.487   1.739   7.656  1.8536 -0.5587 -0.7098
  179SOPE   H6Y20452   0.448   1.915   7.650 -1.5551 -1.1265  0.5896
  179SOPE   C3720453   0.655   1.867   7.725  0.1400 -0.0773  0.3983
  179SOPE   H7X20454   0.712   1.951   7.680  3.4048 -0.7708  2.8794
  179SOPE   H7Y20455   0.732   1.787   7.716 -0.7124 -0.9171  0.3915
  179SOPE   C3820456   0.632   1.893   7.871  0.0981 -0.3648  0.2551
  179SOPE   H8X20457   0.570   1.982   7.896 -1.7573 -1.5455  0.0576
  179SOPE   H8Y20458   0.727   1.898   7.929 -0.3386  0.3245  0.9402
  179SOPE   C3920459   0.562   1.778   7.936  0.4108 -0.4863 -0.1629
  179SOPE   H9X20460   0.595   1.678   7.900 -1.2615 -0.8755 -0.6916
  179SOPE   H9Y20461   0.460   1.780   7.894  0.2568  1.2943  0.2486
  179SOPE  C31020462   0.547   1.786   8.089 -0.4383  0.2708 -0.0093
  179SOPE  H10X20463   0.541   1.893   8.122  0.1708 -0.4649  2.8036
  179SOPE  H10Y20464   0.642   1.749   8.133 -0.7869  1.8276  2.2822
  179SOPE  C31120465   0.425   1.724   8.151  0.4769 -0.0937  0.1420
  179SOPE  H11X20466   0.430   1.729   8.262  1.7329 -0.7509  0.1288
  179SOPE  H11Y20467   0.424   1.618   8.117  1.1801  0.4856 -1.8609
  179SOPE  C31220468   0.296   1.794   8.108 -0.0518 -0.6126  0.1499
  179SOPE  H12X20469   0.275   1.754   8.007  0.9765 -0.1689 -0.2538
  179SOPE  H12Y20470   0.312   1.903   8.093 -0.2660 -0.8854 -2.5928
  179SOPE  C31320471   0.172   1.769   8.195 -0.5548 -0.0382 -0.0517
  179SOPE  H13X20472   0.182   1.821   8.293  0.2647  0.4731 -0.4001
  179SOPE  H13Y20473   0.166   1.659   8.209 -0.4010  0.0212  0.5336
  179SOPE  C31420474   0.049   1.823   8.122 -0.1987  0.2816  0.1800
  179SOPE  H14X20475   0.042   1.785   8.017 -1.6653  2.9985 -0.8048
  179SOPE  H14Y20476   0.036   1.933   8.126  0.2453  0.3905 -0.9464
  179SOPE  C31520477  -0.081   1.761   8.174  0.6534 -0.2386  0.1585
  179SOPE  H15X20478  -0.169   1.801   8.119 -1.0959 -1.0134  2.2249
  179SOPE  H15Y20479  -0.101   1.784   8.281  0.1989 -2.4369  0.6004
  179SOPE  C31620480  -0.085   1.608   8.160 -0.0172 -0.2398  0.4598
  179SOPE  H16X20481  -0.002   1.564   8.220  0.4609 -0.3587 -0.2794
  179SOPE  H16Y20482  -0.059   1.576   8.057  0.1607  0.2812  0.3432
  179SOPE  C31720483  -0.224   1.570   8.206 -0.5101  0.5898 -0.0219
  179SOPE  H17X20484  -0.291   1.657   8.222 -1.9354 -0.3078 -0.9542
  179SOPE  H17Y20485  -0.215   1.507   8.297  2.6223 -1.5434 -1.6101
  179SOPE  C31820486  -0.307   1.487   8.105 -0.5982  0.3207  0.9879
  179SOPE  H18X20487  -0.235   1.415   8.060 -1.7161  0.6395 -1.4437
  179SOPE  H18Y20488  -0.352   1.550   8.026  1.8552 -0.0247 -0.8105
  179SOPE  H18Z20489  -0.381   1.439   8.172  1.4732  0.2657  3.4035
  180SOPE     N20490   6.608   1.901   6.144  0.1255  0.1109 -0.0476
  180SOPE   HN120491   6.511   1.930   6.120  0.8614  2.4192 -0.5673
  180SOPE   HN220492   6.653   1.992   6.168  1.1247 -0.7025  1.3449
  180SOPE   HN320493   6.648   1.863   6.056 -0.8153  1.4338 -1.0977
  180SOPE   C1220494   6.631   1.804   6.259 -0.4528  0.3487  0.1333
  180SOPE  H12A20495   6.543   1.809   6.326 -0.4810 -1.6817  0.2891
  180SOPE  H12B20496   6.720   1.841   6.315  0.6393  0.5923 -1.6779
  180SOPE   C1120497   6.644   1.656   6.217 -0.6777 -0.0573  1.0390
  180SOPE  H11A20498   6.541   1.628   6.188 -1.1912  1.2779  1.5178
  180SOPE  H11B20499   6.679   1.592   6.301  0.1675  0.1324  0.8387
  180SOPE     P20500   6.878   1.649   6.100 -0.0483  0.4167  0.4686
  180SOPE   O1320501   6.903   1.791   6.057  0.1164 -0.5805  0.1584
  180SOPE   O1420502   6.943   1.543   6.019  0.2482  0.7949 -0.1154
  180SOPE   O1220503   6.722   1.622   6.099 -0.2897  0.2909  0.2646
  180SOPE   O1120504   6.919   1.636   6.251 -0.0200  0.2459  0.5451
  180SOPE    C120505   7.037   1.701   6.295  0.3794  0.5337 -0.5562
  180SOPE    HA20506   7.022   1.811   6.294 -0.2136  0.4768 -2.3934
  180SOPE    HB20507   7.123   1.691   6.225 -0.5734  2.8351 -2.2122
  180SOPE    C220508   7.073   1.656   6.437  0.1361 -0.2701 -0.5642
  180SOPE    HS20509   7.079   1.545   6.431 -2.8422 -0.6352  1.0698
  180SOPE   O2120510   6.976   1.693   6.531  0.3254 -0.0220  0.1678
  180SOPE   C2120511   6.896   1.595   6.577 -0.0198 -0.2285  0.6122
  180SOPE   O2220512   6.910   1.477   6.546  0.4886  0.0137  0.1529
  180SOPE   C2220513   6.791   1.651   6.669 -0.3027  0.2464  0.1311
  180SOPE   H2R20514   6.688   1.644   6.626  0.2308  2.6635 -1.7626
  180SOPE   H2S20515   6.804   1.760   6.681 -1.3426  0.3814  0.1336
  180SOPE    C320516   7.209   1.713   6.489 -0.3125  0.6762  1.2096
  180SOPE    HX20517   7.202   1.823   6.478 -1.5688  0.3971 -1.6394
  180SOPE    HY20518   7.294   1.693   6.421 -1.9537  3.4918 -1.9496
  180SOPE   O3120519   7.238   1.693   6.629 -0.0762 -0.2141 -0.5076
  180SOPE   C3120520   7.302   1.577   6.656  0.6791  0.0916  0.3213
  180SOPE   O3220521   7.353   1.506   6.572  0.2412  0.2570  0.1460
  180SOPE   C3220522   7.303   1.548   6.803  0.1294 -0.0434  0.3593
  180SOPE   H2X20523   7.250   1.633   6.851 -0.0644  0.9297 -1.4602
  180SOPE   H2Y20524   7.406   1.554   6.844  0.4338 -2.2376  0.0148
  180SOPE   C2320525   6.790   1.582   6.807 -0.0416  0.6220 -0.3066
  180SOPE   H3R20526   6.726   1.635   6.881 -1.3349 -0.7749 -0.3777
  180SOPE   H3S20527   6.889   1.583   6.859 -0.0042  3.7890 -0.2368
  180SOPE   C2420528   6.741   1.433   6.802 -0.4674 -0.6856  0.5866
  180SOPE   H4R20529   6.630   1.426   6.804 -0.3838 -2.3711  1.9300
  180SOPE   H4S20530   6.776   1.383   6.709  1.3049 -0.1594  0.9346
  180SOPE   C2520531   6.791   1.361   6.925 -0.5998  0.4017  0.3852
  180SOPE   H5R20532   6.759   1.255   6.916  0.8295 -0.0333  0.1143
  180SOPE   H5S20533   6.901   1.360   6.937 -0.7406 -0.5062  1.7874
  180SOPE   C2620534   6.727   1.420   7.053 -0.8599  0.6292  0.5941
  180SOPE   H6R20535   6.749   1.527   7.070 -0.7409  0.5111  1.2246
  180SOPE   H6S20536   6.621   1.392   7.034 -0.1444 -0.4896 -2.2246
  180SOPE   C2720537   6.789   1.346   7.181 -0.7849  0.1746  0.0806
  180SOPE   H7R20538   6.799   1.236   7.167  2.1165  0.5262 -1.3126
  180SOPE   H7S20539   6.893   1.382   7.189 -1.0763  0.9683  0.4124
  180SOPE   C2820540   6.711   1.381   7.311  0.0799  0.3072 -0.1816
  180SOPE   H8R20541   6.698   1.491   7.313 -0.8894  0.1874  0.4539
  180SOPE   H8S20542   6.609   1.339   7.321  0.4496 -0.7123 -0.5953
  180SOPE   C2920543   6.800   1.344   7.432 -0.4276  0.1685 -0.4287
  180SOPE   H9120544   6.907   1.342   7.408 -0.1653  1.3073  0.5316
  180SOPE  C21020545   6.765   1.342   7.561 -0.1855  0.2066 -0.1012
  180SOPE  H10120546   6.842   1.308   7.632 -1.8201 -3.5624  0.0996
  180SOPE  C21120547   6.632   1.358   7.620 -0.4406 -0.1889  0.3649
  180SOPE  H11R20548   6.612   1.261   7.672 -0.7956  0.3784  1.3250
  180SOPE  H11S20549   6.547   1.368   7.549  0.0822 -1.7948 -0.5195
  180SOPE  C21220550   6.628   1.473   7.727 -0.1263  0.0910  0.6546
  180SOPE  H12R20551   6.725   1.469   7.781  0.7713 -0.9977 -0.9413
  180SOPE  H12S20552   6.550   1.440   7.798  0.1962 -0.5805  0.7065
  180SOPE  C21320553   6.613   1.616   7.676  0.4214  0.1615  0.2987
  180SOPE  H13R20554   6.544   1.627   7.590  0.5933 -0.7203  0.0438
  180SOPE  H13S20555   6.709   1.657   7.637 -1.0440  1.3735 -2.2613
  180SOPE  C21420556   6.575   1.726   7.774 -0.3685  0.1727 -0.3990
  180SOPE  H14R20557   6.603   1.826   7.735 -1.0124  1.0189  1.2150
  180SOPE  H14S20558   6.630   1.711   7.869 -0.5574  2.0062  0.0391
  180SOPE  C21520559   6.426   1.732   7.787  0.6360  0.5932 -0.3282
  180SOPE  H15R20560   6.388   1.630   7.811 -3.7814  1.8756 -1.0128
  180SOPE  H15S20561   6.390   1.751   7.683  1.9753  0.2616 -0.8780
  180SOPE  C21620562   6.364   1.832   7.887 -0.4723  0.9432  0.1184
  180SOPE  H16R20563   6.428   1.923   7.885  0.9577 -0.0332 -0.7490
  180SOPE  H16S20564   6.382   1.784   7.986 -1.7871 -1.3921 -0.6967
  180SOPE  C21720565   6.222   1.864   7.854  0.7095  0.3294  0.0410
  180SOPE  H17R20566   6.160   1.772   7.858  1.0284  0.0553 -1.1131
  180SOPE  H17S20567   6.218   1.913   7.754  2.0157  0.0956 -0.1443
  180SOPE  C21820568   6.180   1.959   7.964  0.4345  0.5068  0.0242
  180SOPE  H18R20569   6.071   1.980   7.973  0.5730  1.9197 -1.0820
  180SOPE  H18S20570   6.208   2.064   7.940  0.3003  0.6610  0.5287
  180SOPE  H18T20571   6.220   1.922   8.060 -0.7319  0.5549  0.5470
  180SOPE   C3320572   7.244   1.418   6.848 -0.2387  0.0952  0.4488
  180SOPE   H3X20573   7.313   1.332   6.841 -0.2774  0.1353 -0.5969
  180SOPE   H3Y20574   7.162   1.404   6.775  0.7535 -0.5294 -0.5838
  180SOPE   C3420575   7.176   1.418   6.995  1.4851  0.3473  1.4119
  180SOPE   H4X20576   7.112   1.328   7.006  1.0778  0.6785  1.8349
  180SOPE   H4Y20577   7.109   1.507   6.994  1.3210  0.2585 -0.9495
  180SOPE   C3520578   7.274   1.423   7.111 -0.1982 -1.1444  0.3497
  180SOPE   H5X20579   7.330   1.519   7.102  0.1105 -1.2641  0.9157
  180SOPE   H5Y20580   7.353   1.345   7.118 -0.2038 -1.1464  0.3913
  180SOPE   C3620581   7.200   1.424   7.248  0.1360  0.8244 -0.0614
  180SOPE   H6X20582   7.158   1.324   7.269 -0.3068  1.2397  1.1193
  180SOPE   H6Y20583   7.114   1.494   7.244 -1.1552 -0.7716 -3.7247
  180SOPE   C3720584   7.292   1.441   7.373  0.3186  0.2470  0.0539
  180SOPE   H7X20585   7.317   1.549   7.366 -1.2874  0.5457 -2.3235
  180SOPE   H7Y20586   7.382   1.381   7.347  0.3095  0.5894 -0.8032
  180SOPE   C3820587   7.222   1.417   7.512 -1.4891  0.6370 -0.7713
  180SOPE   H8X20588   7.186   1.312   7.518  0.1797  0.1409  2.2689
  180SOPE   H8Y20589   7.134   1.483   7.498 -0.8433  1.2766 -1.9465
  180SOPE   C3920590   7.307   1.456   7.636 -0.1263  0.3836 -0.2833
  180SOPE   H9X20591   7.379   1.537   7.609  0.6355 -0.1592  0.0903
  180SOPE   H9Y20592   7.382   1.379   7.663 -1.1236  0.3427  2.7189
  180SOPE  C31020593   7.219   1.476   7.759  0.5979 -0.2668 -0.9382
  180SOPE  H10X20594   7.162   1.570   7.740  1.8147  0.8718  0.7787
  180SOPE  H10Y20595   7.281   1.497   7.849  1.3358 -0.4453 -1.3979
  180SOPE  C31120596   7.127   1.355   7.781  0.0500  0.0107 -0.2880
  180SOPE  H11X20597   7.194   1.267   7.793 -0.5684 -0.4793 -0.3279
  180SOPE  H11Y20598   7.061   1.337   7.692  0.0627  0.8266 -0.4669
  180SOPE  C31220599   7.042   1.365   7.909  0.1601 -0.3193  0.4146
  180SOPE  H12X20600   6.952   1.302   7.894  0.7544 -1.1074  0.0663
  180SOPE  H12Y20601   7.010   1.470   7.926  3.7717  0.5695  2.8022
  180SOPE  C31320602   7.115   1.327   8.038 -0.4434 -0.2575 -0.0163
  180SOPE  H13X20603   7.210   1.384   8.029 -1.8600  1.9283 -2.7711
  180SOPE  H13Y20604   7.141   1.220   8.031  0.1001 -0.0667 -1.0251
  180SOPE  C31420605   7.050   1.355   8.168  0.2013  0.2294 -0.4752
  180SOPE  H14X20606   6.959   1.292   8.165 -0.6077  1.2569  0.9027
  180SOPE  H14Y20607   6.998   1.453   8.166 -1.5544 -0.6778 -1.2915
  180SOPE  C31520608   7.151   1.337   8.286  0.0252 -0.3202  0.1170
  180SOPE  H15X20609   7.110   1.379   8.380  0.9784 -0.1196  0.4639
  180SOPE  H15Y20610   7.244   1.394   8.264 -1.6495  2.1520 -0.9871
  180SOPE  C31620611   7.184   1.193   8.309  0.0344 -0.0738  0.4629
  180SOPE  H16X20612   7.213   1.151   8.210 -0.9781  1.5627 -0.5610
  180SOPE  H16Y20613   7.094   1.140   8.346  1.6317 -4.2988 -1.0108
  180SOPE  C31720614   7.284   1.178   8.417  0.0576  0.4730 -0.3271
  180SOPE  H17X20615   7.385   1.220   8.395 -0.0481  0.3396 -1.0987
  180SOPE  H17Y20616   7.294   1.071   8.444 -1.4025 -0.3114 -2.6073
  180SOPE  C31820617   7.247   1.250   8.549  0.2536  0.3859  0.4844
  180SOPE  H18X20618   7.272   1.357   8.538  0.2426  0.3326 -0.1016
  180SOPE  H18Y20619   7.312   1.204   8.626  1.6077 -1.5608 -1.6849
  180SOPE  H18Z20620   7.139   1.243   8.575  0.2255 -0.4576  0.1749
  181SOPE     N20621   1.518   6.626   6.263  0.4402  0.2491  0.1173
  181SOPE   HN120622   1.562   6.709   6.218  1.0091 -0.6331 -1.0260
  181SOPE   HN220623   1.567   6.592   6.348 -0.8489 -1.2207  0.3330
  181SOPE   HN320624   1.530   6.555   6.188 -0.6985 -1.1185  1.1561
  181SOPE   C1220625   1.368   6.657   6.272  0.3689  0.0450 -0.6644
  181SOPE  H12A20626   1.358   6.743   6.342  0.1382 -0.1232 -0.4930
  181SOPE  H12B20627   1.310   6.568   6.303  0.7793  0.2491  0.7394
  181SOPE   C1120628   1.324   6.695   6.127  0.3825  0.8019  0.4270
  181SOPE  H11A20629   1.390   6.766   6.073  2.4239 -2.4394 -1.7507
  181SOPE  H11B20630   1.227   6.744   6.149  0.0552 -0.4096  1.8295
  181SOPE     P20631   1.188   6.508   6.021 -0.0251 -0.0454  0.4475
  181SOPE   O1320632   1.208   6.378   5.956  0.0029  0.1737 -0.0067
  181SOPE   O1420633   1.099   6.610   5.962 -0.0149  0.1767  0.3815
  181SOPE   O1220634   1.329   6.576   6.048 -0.3590 -0.0402  0.1191
  181SOPE   O1120635   1.126   6.470   6.160 -0.7060  0.2544  0.1408
  181SOPE    C120636   1.151   6.339   6.213  0.1662 -0.1326 -0.3662
  181SOPE    HA20637   1.257   6.306   6.221 -0.5847 -2.3400  1.8867
  181SOPE    HB20638   1.101   6.266   6.145  2.9229 -1.4407 -1.1363
  181SOPE    C220639   1.107   6.315   6.367  0.3727  0.4181 -0.3279
  181SOPE    HS20640   1.110   6.212   6.410  0.0261  0.4474 -0.2329
  181SOPE   O2120641   0.972   6.356   6.378  0.8879 -0.1099 -0.8424
  181SOPE   C2120642   0.879   6.268   6.335 -0.1874 -1.4308  1.0725
  181SOPE   O2220643   0.907   6.160   6.294 -0.1562 -0.7497 -0.0288
  181SOPE   C2220644   0.737   6.327   6.356  0.5332  0.1339 -0.0366
  181SOPE   H2R20645   0.681   6.317   6.261  0.5979  0.1082 -0.0727
  181SOPE   H2S20646   0.745   6.437   6.368  1.8420  0.1611 -0.9182
  181SOPE    C320647   1.180   6.406   6.473  0.2169 -0.1664  0.2869
  181SOPE    HX20648   1.136   6.395   6.574  2.5764 -0.6785  1.3400
  181SOPE    HY20649   1.161   6.509   6.437 -1.5043 -1.3860 -2.6926
  181SOPE   O3120650   1.319   6.374   6.484 -0.0192 -0.8587 -0.2492
  181SOPE   C3120651   1.361   6.270   6.564  0.0130 -0.7021  0.1929
  181SOPE   O3220652   1.290   6.220   6.650 -0.7973 -0.9580 -0.0960
  181SOPE   C3220653   1.500   6.224   6.527  0.1106  0.5001  0.3251
  181SOPE   H2X20654   1.555   6.306   6.475  0.4245  0.8656  1.2154
  181SOPE   H2Y20655   1.480   6.142   6.455 -0.1093  0.0829  0.8556
  181SOPE   C2320656   0.664   6.262   6.473  0.7807  0.4250 -0.6051
  181SOPE   H3R20657   0.674   6.151   6.473  0.2941  0.2358  3.4016
  181SOPE   H3S20658   0.556   6.286   6.465  0.7502 -0.1503 -2.9462
  181SOPE   C2420659   0.728   6.304   6.612 -0.0095 -0.2334 -0.4490
  181SOPE   H4R20660   0.836   6.277   6.607 -0.0146 -0.1666 -1.0436
  181SOPE   H4S20661   0.714   6.413   6.623  1.0517 -0.0752 -0.6359
  181SOPE   C2520662   0.661   6.235   6.735  0.0978 -0.0417  0.5043
  181SOPE   H5R20663   0.556   6.264   6.712 -0.2403 -1.4310  0.2165
  181SOPE   H5S20664   0.666   6.126   6.713  2.4643 -0.0841  0.9356
  181SOPE   C2620665   0.699   6.277   6.876 -0.5708 -0.0364 -0.4272
  181SOPE   H6R20666   0.807   6.257   6.893 -0.6679 -0.1784  0.0451
  181SOPE   H6S20667   0.675   6.385   6.880  1.1925  0.4133 -0.9563
  181SOPE   C2720668   0.605   6.206   6.977  0.1330 -0.2015  0.3536
  181SOPE   H7R20669   0.501   6.216   6.940  0.8884 -1.5738 -2.3853
  181SOPE   H7S20670   0.631   6.098   6.988  0.8902 -0.2993 -1.8812
  181SOPE   C2820671   0.622   6.272   7.113 -0.6815  0.3279 -0.8497
  181SOPE   H8R20672   0.596   6.378   7.095  0.2332  0.7971  0.5405
  181SOPE   H8S20673   0.541   6.247   7.185  1.4884  0.9381  1.9824
  181SOPE   C2920674   0.758   6.241   7.181  0.1733  0.2119 -0.1308
  181SOPE   H9120675   0.840   6.233   7.109  0.5635  1.9059  0.0700
  181SOPE  C21020676   0.768   6.224   7.313  0.3361 -0.0096  0.1079
  181SOPE  H10120677   0.871   6.222   7.352  0.2434  0.1548  0.3672
  181SOPE  C21120678   0.666   6.242   7.427 -0.0597  0.1488 -0.1746
  181SOPE  H11R20679   0.568   6.199   7.399  0.1239 -0.5211  0.2035
  181SOPE  H11S20680   0.641   6.347   7.456 -1.4744  0.2043 -1.4495
  181SOPE  C21220681   0.703   6.165   7.558 -0.0392  0.2642 -0.2713
  181SOPE  H12R20682   0.798   6.202   7.602 -0.3871 -0.5523  1.2471
  181SOPE  H12S20683   0.702   6.057   7.534 -0.3282  0.3632 -0.7052
  181SOPE  C21320684   0.596   6.204   7.660 -0.1664  0.7268 -0.5556
  181SOPE  H13R20685   0.495   6.163   7.641  1.0195 -3.2117  0.6572
  181SOPE  H13S20686   0.594   6.313   7.678 -0.0318  0.2583  3.0251
  181SOPE  C21420687   0.629   6.127   7.792  0.0217  0.1176 -0.0175
  181SOPE  H14R20688   0.701   6.196   7.841  0.1480 -0.2546  0.3217
  181SOPE  H14S20689   0.689   6.039   7.762 -0.7475  0.2450 -2.0721
  181SOPE  C21520690   0.512   6.082   7.877 -0.0603  0.2505 -0.1555
  181SOPE  H15R20691   0.450   6.013   7.816  1.4223 -0.5063 -0.8757
  181SOPE  H15S20692   0.444   6.160   7.916 -1.8276 -1.0748 -0.4721
  181SOPE  C21620693   0.556   6.005   8.008 -0.0242  0.5260  0.1931
  181SOPE  H16R20694   0.638   6.061   8.057 -0.1663  0.8247  0.0918
  181SOPE  H16S20695   0.600   5.905   7.986 -2.9740 -1.1307  1.2726
  181SOPE  C21720696   0.430   5.979   8.097  0.0206  0.1582 -0.2625
  181SOPE  H17R20697   0.358   5.916   8.042  1.1596  0.1276 -1.7864
  181SOPE  H17S20698   0.383   6.076   8.125 -1.9915 -0.8798  0.1706
  181SOPE  C21820699   0.459   5.922   8.236 -0.3234 -0.0899  0.0853
  181SOPE  H18R20700   0.537   5.983   8.286  0.5418 -0.7979 -0.3771
  181SOPE  H18S20701   0.492   5.816   8.230 -0.5928 -0.1728  0.0157
  181SOPE  H18T20702   0.372   5.929   8.306 -0.0940 -0.2569  0.3897
  181SOPE   C3320703   1.577   6.176   6.648 -0.8073 -0.3466 -0.1643
  181SOPE   H3X20704   1.675   6.133   6.619  0.7666  1.9297  1.3582
  181SOPE   H3Y20705   1.517   6.094   6.693 -1.5596  0.8123  1.0746
  181SOPE   C3420706   1.590   6.282   6.762 -0.3206  0.2709  0.1337
  181SOPE   H4X20707   1.490   6.329   6.776 -0.3390  0.6135 -1.0538
  181SOPE   H4Y20708   1.662   6.360   6.729 -1.1737  0.9971 -0.0487
  181SOPE   C3520709   1.645   6.205   6.886 -0.1213  0.1038  0.6771
  181SOPE   H5X20710   1.738   6.150   6.863  0.5650  1.2791  0.5840
  181SOPE   H5Y20711   1.569   6.127   6.908 -1.2045  1.5268  2.2098
  181SOPE   C3620712   1.647   6.303   7.004  0.3132  0.3136  0.0100
  181SOPE   H6X20713   1.552   6.309   7.061  1.9441  2.8418  2.7298
  181SOPE   H6Y20714   1.669   6.403   6.960 -0.2799  0.2026 -0.5530
  181SOPE   C3720715   1.750   6.264   7.109  0.4561 -0.6237  0.3955
  181SOPE   H7X20716   1.838   6.229   7.052  0.6597 -0.7989  0.8127
  181SOPE   H7Y20717   1.715   6.178   7.171 -0.8744  0.7190  1.6087
  181SOPE   C3820718   1.798   6.389   7.188  0.7718  0.3017 -0.0454
  181SOPE   H8X20719   1.822   6.475   7.122 -0.7379  1.1227  0.4278
  181SOPE   H8Y20720   1.889   6.368   7.249  1.3652  0.4681 -0.8511
  181SOPE   C3920721   1.684   6.439   7.281  0.3388 -0.0358  0.1506
  181SOPE   H9X20722   1.670   6.355   7.352 -0.2101  0.0310  0.1210
  181SOPE   H9Y20723   1.581   6.465   7.249 -0.9194 -3.4799  0.9934
  181SOPE  C31020724   1.739   6.567   7.346  0.3999  0.8392 -0.3386
  181SOPE  H10X20725   1.729   6.646   7.269 -2.4338  0.6084 -0.3189
  181SOPE  H10Y20726   1.846   6.554   7.373 -0.0807 -1.8899  0.6241
  181SOPE  C31120727   1.669   6.609   7.477  0.0441 -0.0728  0.4100
  181SOPE  H11X20728   1.562   6.584   7.466 -0.0361  0.8041 -1.0669
  181SOPE  H11Y20729   1.673   6.719   7.495 -2.4455 -0.0135  0.8878
  181SOPE  C31220730   1.724   6.535   7.603  0.4404  0.6894 -0.5011
  181SOPE  H12X20731   1.833   6.557   7.596  0.3796  0.9550 -0.6240
  181SOPE  H12Y20732   1.707   6.425   7.601 -0.5115  0.7885  0.8481
  181SOPE  C31320733   1.659   6.583   7.728  0.3411 -0.3259  0.4741
  181SOPE  H13X20734   1.562   6.532   7.746 -0.8014  1.0463 -1.3980
  181SOPE  H13Y20735   1.632   6.691   7.725  0.8548 -0.2167 -0.4623
  181SOPE  C31420736   1.745   6.569   7.849 -0.0757 -0.1210 -0.1146
  181SOPE  H14X20737   1.832   6.637   7.836 -1.3841  1.3469 -1.5630
  181SOPE  H14Y20738   1.776   6.462   7.849 -1.1356 -0.4389  0.1293
  181SOPE  C31520739   1.663   6.596   7.979 -0.4771 -0.5078 -0.5631
  181SOPE  H15X20740   1.572   6.532   7.968  0.1798 -1.8674  1.3328
  181SOPE  H15Y20741   1.640   6.705   7.978  1.7070 -0.0067 -0.6836
  181SOPE  C31620742   1.720   6.546   8.111  0.5044  0.0292 -0.5422
  181SOPE  H16X20743   1.809   6.608   8.132  0.1356 -0.1849  1.9351
  181SOPE  H16Y20744   1.736   6.436   8.107 -0.2487 -0.2243  1.7875
  181SOPE  C31720745   1.624   6.559   8.237  0.3110  0.3292 -0.0943
  181SOPE  H17X20746   1.672   6.517   8.329  0.0602 -1.4937 -0.7592
  181SOPE  H17Y20747   1.520   6.524   8.225  0.1974  0.9987 -1.1638
  181SOPE  C31820748   1.590   6.707   8.263 -0.4927 -0.1151 -0.6067
  181SOPE  H18X20749   1.683   6.768   8.274 -0.5063  0.1726 -1.9345
  181SOPE  H18Y20750   1.545   6.721   8.363  2.8105  0.8665  0.8961
  181SOPE  H18Z20751   1.516   6.755   8.195 -0.6461  0.0479 -0.3246
  182SOPE     N20752   5.648   0.920   5.894 -0.0427 -0.3380  1.1833
  182SOPE   HN120753   5.672   0.999   5.958 -2.4737  0.3506  1.3369
  182SOPE   HN220754   5.698   0.913   5.803 -2.6223  2.0806 -0.6057
  182SOPE   HN320755   5.547   0.934   5.874  0.1336 -0.8590 -0.2049
  182SOPE   C1220756   5.639   0.794   5.975 -0.0253 -0.5666 -0.7250
  182SOPE  H12A20757   5.736   0.746   6.001 -0.4672 -1.4858 -0.7236
  182SOPE  H12B20758   5.589   0.719   5.911 -0.6756 -0.3220 -0.5150
  182SOPE   C1120759   5.553   0.811   6.103 -0.4444  0.5867  0.0765
  182SOPE  H11A20760   5.600   0.885   6.171  0.6702 -0.7606  0.8270
  182SOPE  H11B20761   5.546   0.719   6.164 -0.8867  2.0483  2.3230
  182SOPE     P20762   5.320   0.940   6.146 -0.3883  0.7370  0.2000
  182SOPE   O1320763   5.224   0.847   6.213  0.2625 -0.1448 -0.6581
  182SOPE   O1420764   5.266   1.038   6.046 -0.4982  0.2122 -0.7010
  182SOPE   O1220765   5.419   0.847   6.062 -0.1424 -0.1272  1.0036
  182SOPE   O1120766   5.413   1.002   6.257  0.4654 -0.1137  0.1930
  182SOPE    C120767   5.400   0.965   6.394  0.1325  0.1637  0.2191
  182SOPE    HA20768   5.351   0.867   6.408  1.3997 -0.7328 -1.3021
  182SOPE    HB20769   5.339   1.039   6.450 -0.8051 -1.0221  0.7863
  182SOPE    C220770   5.540   0.968   6.465 -0.3382 -0.5592  0.1326
  182SOPE    HS20771   5.609   0.899   6.411  0.9401  0.9628 -0.2665
  182SOPE   O2120772   5.518   0.948   6.601  0.5909  0.1921 -0.5027
  182SOPE   C2120773   5.503   0.817   6.640 -0.4535  0.6609  0.6220
  182SOPE   O2220774   5.516   0.719   6.565 -0.1399 -1.2534  0.3315
  182SOPE   C2220775   5.469   0.811   6.789 -0.3481  0.8529  0.7696
  182SOPE   H2R20776   5.380   0.746   6.797  1.8513 -2.4303  0.7207
  182SOPE   H2S20777   5.457   0.917   6.821  2.1471  2.5053 -2.9741
  182SOPE    C320778   5.605   1.114   6.456  0.8076  0.4505  0.1717
  182SOPE    HX20779   5.541   1.187   6.509 -0.2949 -0.2875 -0.1115
  182SOPE    HY20780   5.601   1.144   6.350  0.0681 -0.5490 -0.0922
  182SOPE   O3120781   5.735   1.114   6.514  0.2480 -0.3442 -0.3303
  182SOPE   C3120782   5.832   1.084   6.425  0.1966  0.2379  0.0356
  182SOPE   O3220783   5.814   1.025   6.322 -0.4799  0.0929 -0.3056
  182SOPE   C3220784   5.970   1.124   6.482 -0.3386  0.4385  0.1337
  182SOPE   H2X20785   5.963   1.192   6.569 -0.8787  1.3741 -0.6224
  182SOPE   H2Y20786   6.016   1.174   6.394 -2.0161 -0.7780 -1.5300
  182SOPE   C2320787   5.573   0.731   6.886  0.5848 -0.5506  0.0409
  182SOPE   H3R20788   5.671   0.765   6.847  0.3844 -0.3105 -0.2499
  182SOPE   H3S20789   5.558   0.621   6.876 -0.9939 -0.1710 -2.1970
  182SOPE   C2420790   5.571   0.781   7.029  0.6609  0.0813 -0.6330
  182SOPE   H4R20791   5.670   0.741   7.060  0.1705 -0.3188  0.4909
  182SOPE   H4S20792   5.581   0.891   7.028  1.0821  0.0417 -1.3271
  182SOPE   C2520793   5.444   0.727   7.108 -0.4696 -0.3759  0.1488
  182SOPE   H5R20794   5.353   0.748   7.048  0.4738 -1.7910 -1.9185
  182SOPE   H5S20795   5.462   0.618   7.095  5.7604  0.5495 -3.3886
  182SOPE   C2620796   5.432   0.763   7.253 -0.3898 -0.8679 -0.8652
  182SOPE   H6R20797   5.435   0.873   7.265  0.9282 -0.9594 -0.0290
  182SOPE   H6S20798   5.325   0.741   7.274 -0.3618  0.7758  1.3324
  182SOPE   C2720799   5.524   0.683   7.349 -0.5852  0.5587 -0.1922
  182SOPE   H7R20800   5.566   0.596   7.294 -1.5106 -0.6634  1.0075
  182SOPE   H7S20801   5.613   0.747   7.370  0.4657 -0.1877 -2.0304
  182SOPE   C2820802   5.445   0.648   7.481 -0.8269  0.9053  0.2177
  182SOPE   H8R20803   5.415   0.746   7.523  1.1958  1.4091  0.5901
  182SOPE   H8S20804   5.357   0.585   7.456 -0.4883 -0.0910  1.4640
  182SOPE   C2920805   5.538   0.595   7.589  0.8086  0.4876 -0.4194
  182SOPE   H9120806   5.608   0.516   7.560 -2.1827 -2.5089 -0.0935
  182SOPE  C21020807   5.542   0.625   7.722 -0.3260 -0.0675 -0.1090
  182SOPE  H10120808   5.617   0.570   7.779  0.2886  0.3196 -0.5301
  182SOPE  C21120809   5.445   0.725   7.793  0.5458 -0.3770 -0.3219
  182SOPE  H11R20810   5.353   0.743   7.734  1.3149  3.9487 -0.5754
  182SOPE  H11S20811   5.505   0.819   7.803 -0.7595  0.3557  0.9888
  182SOPE  C21220812   5.396   0.677   7.937 -0.1123 -0.3419 -0.4909
  182SOPE  H12R20813   5.339   0.582   7.929 -1.7525  0.3818  1.5365
  182SOPE  H12S20814   5.334   0.758   7.980 -0.1773 -0.9042  0.5001
  182SOPE  C21320815   5.520   0.670   8.040  0.9850  0.2867  0.2212
  182SOPE  H13R20816   5.566   0.770   8.030 -2.6291  1.9915 -1.5041
  182SOPE  H13S20817   5.584   0.587   8.003  0.1018  0.0075 -0.7458
  182SOPE  C21420818   5.477   0.610   8.169  0.4081 -0.2399 -0.3190
  182SOPE  H14R20819   5.400   0.675   8.215 -1.0819 -2.8068  1.0334
  182SOPE  H14S20820   5.556   0.614   8.247  1.0336 -1.1126 -0.8881
  182SOPE  C21520821   5.431   0.467   8.177 -0.1569  0.4140  0.6014
  182SOPE  H15R20822   5.505   0.404   8.123  0.2214 -1.0752  2.7350
  182SOPE  H15S20823   5.330   0.460   8.130 -0.4736 -0.0454  1.3302
  182SOPE  C21620824   5.424   0.413   8.322 -0.2421 -0.1126 -0.4194
  182SOPE  H16R20825   5.376   0.477   8.399 -0.4233  0.5990 -1.1011
  182SOPE  H16S20826   5.530   0.400   8.352 -0.6907 -2.8340  0.2191
  182SOPE  C21720827   5.355   0.273   8.339 -0.7402 -0.4746  0.1884
  182SOPE  H17R20828   5.397   0.211   8.257 -1.8737  0.0579 -0.8284
  182SOPE  H17S20829   5.245   0.277   8.325 -0.5788  1.0567 -0.9578
  182SOPE  C21820830   5.399   0.204   8.470 -0.4256 -0.0689  0.1639
  182SOPE  H18R20831   5.350   0.105   8.482  1.1173 -0.6725  1.9679
  182SOPE  H18S20832   5.377   0.266   8.559 -0.6740 -1.1628  0.8867
  182SOPE  H18T20833   5.509   0.188   8.481 -0.4878 -1.4469 -0.8829
  182SOPE   C3320834   6.066   1.006   6.509 -0.1637 -0.1719 -0.1302
  182SOPE   H3X20835   6.161   1.062   6.524 -0.3470  0.3469 -0.8654
  182SOPE   H3Y20836   6.065   0.936   6.422 -2.3277 -1.4564  0.8586
  182SOPE   C3420837   6.037   0.919   6.624  0.4238  0.7240  0.1060
  182SOPE   H4X20838   6.118   0.846   6.646  0.5393  0.4942 -1.0123
  182SOPE   H4Y20839   5.943   0.866   6.599  1.2586 -0.7591 -0.0206
  182SOPE   C3520840   6.029   0.996   6.756  0.3729 -0.1105 -0.3460
  182SOPE   H5X20841   5.951   1.075   6.749  1.3139  0.7700 -1.2445
  182SOPE   H5Y20842   6.116   1.064   6.764 -0.2719  0.5578  2.2515
  182SOPE   C3620843   6.015   0.910   6.880  0.0359  0.1379  0.3951
  182SOPE   H6X20844   6.098   0.836   6.884 -0.4342 -0.3862  0.5937
  182SOPE   H6Y20845   5.918   0.858   6.867 -1.8476  3.1673  1.2211
  182SOPE   C3720846   6.016   0.990   7.011  0.0112 -0.6128  0.0771
  182SOPE   H7X20847   5.938   1.062   6.978  1.3838  0.9440  0.0886
  182SOPE   H7Y20848   6.112   1.044   7.024 -0.2372 -0.0712 -0.3035
  182SOPE   C3820849   5.972   0.910   7.134  0.0650 -0.5007 -0.4421
  182SOPE   H8X20850   6.058   0.843   7.158  1.7617  0.9854 -2.0061
  182SOPE   H8Y20851   5.877   0.859   7.108 -0.5242 -1.4551  3.0533
  182SOPE   C3920852   5.957   0.999   7.260  0.3271 -0.7227 -0.0009
  182SOPE   H9X20853   5.876   1.071   7.240  0.5723 -0.2887  0.5338
  182SOPE   H9Y20854   6.044   1.065   7.283 -0.4490  0.5541 -0.6405
  182SOPE  C31020855   5.914   0.911   7.388  0.0262 -1.0577 -0.6943
  182SOPE  H10X20856   5.995   0.846   7.426 -0.2746 -0.4947  1.0038
  182SOPE  H10Y20857   5.829   0.850   7.351 -1.0884  1.2816 -2.2062
  182SOPE  C31120858   5.859   1.007   7.497  0.2555  0.1242 -0.8092
  182SOPE  H11X20859   5.764   1.046   7.455 -1.6903 -3.0238  0.4127
  182SOPE  H11Y20860   5.935   1.086   7.518 -1.3188  0.9905  2.0564
  182SOPE  C31220861   5.825   0.934   7.629  0.3134  0.4364  0.3819
  182SOPE  H12X20862   5.771   0.840   7.606  1.7702 -0.7248  1.5297
  182SOPE  H12Y20863   5.758   1.007   7.681  0.4658  0.6669  0.2582
  182SOPE  C31320864   5.947   0.901   7.715 -0.1424 -0.3717 -0.2675
  182SOPE  H13X20865   6.011   0.988   7.743  0.1075 -1.1016  1.6045
  182SOPE  H13Y20866   6.009   0.829   7.658  2.1252 -0.3714  2.0022
  182SOPE  C31420867   5.901   0.833   7.845 -0.2903 -0.4094 -0.4529
  182SOPE  H14X20868   5.832   0.754   7.809 -1.0986 -0.7123  1.5850
  182SOPE  H14Y20869   5.849   0.909   7.907  3.1549  0.0563  2.2146
  182SOPE  C31520870   6.017   0.770   7.922 -0.0236  1.2571 -0.2684
  182SOPE  H15X20871   6.083   0.857   7.946 -1.6306  2.7137 -0.9083
  182SOPE  H15Y20872   6.057   0.704   7.842  0.3848 -0.3580  1.2144
  182SOPE  C31620873   5.980   0.678   8.036  0.5551 -0.1190  0.2706
  182SOPE  H16X20874   6.055   0.605   8.075  0.2431  0.3979  1.9523
  182SOPE  H16Y20875   5.897   0.609   8.008 -0.4159  0.5257  1.4711
  182SOPE  C31720876   5.945   0.745   8.167 -0.2089  0.3157 -0.4612
  182SOPE  H17X20877   5.865   0.822   8.163  0.2566  1.0482  2.1420
  182SOPE  H17Y20878   6.040   0.791   8.200 -0.5534  0.7385 -0.0421
  182SOPE  C31820879   5.909   0.648   8.278  0.5448 -0.5010 -0.0474
  182SOPE  H18X20880   6.003   0.598   8.310  1.2917  0.8710 -0.0552
  182SOPE  H18Y20881   5.832   0.574   8.248  1.1453 -0.8693 -0.7202
  182SOPE  H18Z20882   5.875   0.708   8.365 -1.0231  0.3112 -1.1688
  183SOPE     N20883   3.277   5.742   6.357  0.1090 -0.0060  0.3437
  183SOPE   HN120884   3.267   5.745   6.254 -0.0440  0.6810  0.3764
  183SOPE   HN220885   3.334   5.823   6.389 -2.7709  1.2380  2.7872
  183SOPE   HN320886   3.331   5.657   6.386  1.1357  0.7133  0.6115
  183SOPE   C1220887   3.147   5.756   6.435  0.0950  0.2902 -0.1563
  183SOPE  H12A20888   3.150   5.684   6.519  0.3335  1.4476  0.8650
  183SOPE  H12B20889   3.068   5.721   6.365  0.6100  0.3126 -0.7613
  183SOPE   C1120890   3.135   5.901   6.486  0.2289 -0.4462 -0.3689
  183SOPE  H11A20891   3.223   5.928   6.549  0.1717 -0.1122 -0.4307
  183SOPE  H11B20892   3.051   5.901   6.559 -0.0843 -2.5600 -0.6743
  183SOPE     P20893   3.231   6.102   6.325 -0.1258  0.4697  0.2390
  183SOPE   O1320894   3.171   6.163   6.206  0.3104  0.1610 -0.1808
  183SOPE   O1420895   3.362   6.029   6.314 -0.2882 -0.0356  0.1287
  183SOPE   O1220896   3.122   5.996   6.383 -0.3964 -0.5315 -1.1680
  183SOPE   O1120897   3.232   6.210   6.434 -0.1834  0.0417  0.1612
  183SOPE    C120898   3.110   6.272   6.467 -0.5461  0.0223  0.3472
  183SOPE    HA20899   3.027   6.199   6.450  0.3948 -0.5797 -2.0748
  183SOPE    HB20900   3.091   6.354   6.394  2.2784 -1.2634 -2.0147
  183SOPE    C220901   3.114   6.335   6.610 -0.2828 -0.8548 -0.3654
  183SOPE    HS20902   3.009   6.364   6.632 -0.2102 -0.2119 -0.8483
  183SOPE   O2120903   3.205   6.442   6.606  0.2677  0.0002  0.1946
  183SOPE   C2120904   3.157   6.564   6.612  0.0458  0.2384  0.0635
  183SOPE   O2220905   3.039   6.595   6.613  0.5017  0.1738 -0.0424
  183SOPE   C2220906   3.283   6.645   6.630  0.1329  0.6368 -0.2208
  183SOPE   H2R20907   3.331   6.656   6.531  0.5789 -0.2060 -0.1006
  183SOPE   H2S20908   3.352   6.596   6.702  2.1536  0.3927 -2.2438
  183SOPE    C320909   3.162   6.234   6.716 -0.6138 -0.1379  0.0324
  183SOPE    HX20910   3.181   6.285   6.813  0.0459 -0.5787  0.1430
  183SOPE    HY20911   3.262   6.191   6.696  0.3353  0.2113  3.4661
  183SOPE   O3120912   3.062   6.128   6.731 -0.3418  0.3117 -0.0539
  183SOPE   C3120913   2.972   6.157   6.828 -0.3129  0.4535  0.2010
  183SOPE   O3220914   2.966   6.265   6.885  0.0759  0.5757  0.3916
  183SOPE   C3220915   2.890   6.031   6.846  0.2427 -0.0410  0.2434
  183SOPE   H2X20916   2.954   5.943   6.866 -1.9299 -1.4534  1.3601
  183SOPE   H2Y20917   2.819   6.012   6.762  0.5216  0.7020 -0.1678
  183SOPE   C2320918   3.261   6.785   6.694 -0.0565  0.2132 -0.4214
  183SOPE   H3R20919   3.197   6.849   6.630  0.9338  0.0400 -1.6379
  183SOPE   H3S20920   3.363   6.829   6.701 -0.9877  2.5498 -0.6355
  183SOPE   C2420921   3.201   6.769   6.838  0.4363  0.2529  0.0591
  183SOPE   H4R20922   3.094   6.740   6.836  0.3587  0.3922  1.1927
  183SOPE   H4S20923   3.262   6.689   6.887 -0.7222 -0.1565  0.8721
  183SOPE   C2520924   3.205   6.905   6.917 -0.3406 -0.1337 -0.4031
  183SOPE   H5R20925   3.293   6.963   6.884 -0.6147  0.4941 -0.0477
  183SOPE   H5S20926   3.120   6.962   6.874 -0.9802  1.2957  2.4774
  183SOPE   C2620927   3.177   6.886   7.067  0.0567 -0.5584  0.8085
  183SOPE   H6R20928   3.094   6.812   7.072 -1.1208  0.7944  2.0567
  183SOPE   H6S20929   3.267   6.832   7.104 -0.0005 -1.3150 -0.1198
  183SOPE   C2720930   3.143   7.005   7.150  0.6071  0.0957 -0.1283
  183SOPE   H7R20931   3.227   7.078   7.145 -2.0326  3.2883 -3.2407
  183SOPE   H7S20932   3.068   7.065   7.095 -0.0827  0.8655  1.5702
  183SOPE   C2820933   3.090   6.988   7.296 -0.0766 -0.2524  0.0221
  183SOPE   H8R20934   3.068   7.092   7.328 -2.3139 -0.4011 -0.8637
  183SOPE   H8S20935   2.995   6.930   7.297 -0.4686  0.3884  1.0217
  183SOPE   C2920936   3.186   6.917   7.385  0.0170 -0.3749 -0.3125
  183SOPE   H9120937   3.270   6.872   7.332  0.0906  0.3865 -0.8688
  183SOPE  C21020938   3.196   6.925   7.514  0.0399  0.4046  0.0658
  183SOPE  H10120939   3.279   6.872   7.563 -0.0031 -1.5379 -1.8335
  183SOPE  C21120940   3.099   6.997   7.602 -0.0725  0.0520 -0.1146
  183SOPE  H11R20941   3.003   7.010   7.547  1.8378  2.7892 -3.1883
  183SOPE  H11S20942   3.143   7.097   7.625  2.0946 -1.0471  0.8228
  183SOPE  C21220943   3.077   6.916   7.723  0.0819  1.0189  0.6702
  183SOPE  H12R20944   3.165   6.907   7.789 -0.6789  0.9128  1.7005
  183SOPE  H12S20945   3.043   6.814   7.694 -0.4557  0.9601  1.4836
  183SOPE  C21320946   2.966   6.968   7.815  0.0982  0.1619  0.1858
  183SOPE  H13R20947   2.885   7.009   7.751  1.6105  0.7307 -1.4456
  183SOPE  H13S20948   3.021   7.048   7.868 -0.3725 -0.2433  1.3336
  183SOPE  C21420949   2.919   6.878   7.929 -0.0808 -0.6879  0.3151
  183SOPE  H14R20950   3.011   6.831   7.968  0.3880 -0.0060  0.0636
  183SOPE  H14S20951   2.848   6.803   7.889 -0.6055 -0.0002 -0.0776
  183SOPE  C21520952   2.850   6.944   8.047 -0.0156 -0.9583 -0.4523
  183SOPE  H15R20953   2.765   7.005   8.011  2.1053  1.9291 -0.8584
  183SOPE  H15S20954   2.917   7.023   8.087 -0.3963 -1.2660  0.8300
  183SOPE  C21620955   2.799   6.860   8.167 -0.0286  0.1887 -0.6872
  183SOPE  H16R20956   2.876   6.789   8.203  1.5336  2.7222  1.3672
  183SOPE  H16S20957   2.702   6.810   8.151  0.0225  0.4885 -2.0650
  183SOPE  C21720958   2.762   6.957   8.288 -0.2418 -0.3999 -0.2975
  183SOPE  H17R20959   2.693   7.035   8.250  1.8311  3.1230  2.6041
  183SOPE  H17S20960   2.859   7.007   8.308  0.2133 -2.0083  1.8193
  183SOPE  C21820961   2.712   6.880   8.413 -0.0433 -0.0003  0.2419
  183SOPE  H18R20962   2.698   6.954   8.495 -0.7308 -0.9000  0.9484
  183SOPE  H18S20963   2.779   6.802   8.455 -0.0681  0.8133  1.8990
  183SOPE  H18T20964   2.615   6.834   8.386 -0.5334  0.5779  0.9860
  183SOPE   C3320965   2.800   6.027   6.976  0.0969  0.0605  0.1132
  183SOPE   H3X20966   2.736   5.938   6.956 -2.1732  1.3718  1.1536
  183SOPE   H3Y20967   2.737   6.114   6.948  2.5907  1.4484 -1.6557
  183SOPE   C3420968   2.865   6.024   7.108 -0.8593 -0.1340 -0.0546
  183SOPE   H4X20969   2.789   6.053   7.184  0.0573  1.9693  0.1218
  183SOPE   H4Y20970   2.953   6.091   7.115  0.7157 -2.0257 -0.8966
  183SOPE   C3520971   2.924   5.884   7.133 -0.2754 -0.5696 -0.5749
  183SOPE   H5X20972   3.024   5.885   7.083  0.5989 -0.9613  1.0957
  183SOPE   H5Y20973   2.862   5.810   7.076 -2.5571  1.4461 -0.8545
  183SOPE   C3620974   2.933   5.847   7.284 -0.1729  0.3257  0.2967
  183SOPE   H6X20975   2.940   5.736   7.288  1.1442  0.2102 -2.3225
  183SOPE   H6Y20976   2.832   5.869   7.323 -0.6078 -0.0177 -0.6004
  183SOPE   C3720977   3.050   5.910   7.360  0.2763  0.2831  0.1104
  183SOPE   H7X20978   3.048   6.019   7.338 -1.3506 -0.0642 -1.8089
  183SOPE   H7Y20979   3.137   5.887   7.295 -0.9284  0.6384 -1.7087
  183SOPE   C3820980   3.073   5.879   7.509 -0.0457 -0.1214  0.6887
  183SOPE   H8X20981   3.179   5.905   7.532 -0.3244  1.5349  0.2286
  183SOPE   H8Y20982   3.056   5.770   7.525  0.1589 -0.1665  0.6080
  183SOPE   C3920983   2.989   5.953   7.613  0.3383  0.0466  1.1423
  183SOPE   H9X20984   2.887   5.921   7.583  1.1514 -1.0848 -0.5896
  183SOPE   H9Y20985   2.999   6.062   7.593  0.7052 -0.1923 -0.0497
  183SOPE  C31020986   3.021   5.924   7.768  0.4956  0.4049  0.6161
  183SOPE  H10X20987   3.131   5.936   7.781  0.3819  2.0699  0.3071
  183SOPE  H10Y20988   3.005   5.814   7.776 -1.2073  0.1110 -3.8603
  183SOPE  C31120989   2.923   5.995   7.860  0.3788 -0.3282  0.5359
  183SOPE  H11X20990   2.822   5.962   7.826  0.3639  2.1480 -2.2006
  183SOPE  H11Y20991   2.931   6.105   7.849 -0.4580 -0.4547 -2.0240
  183SOPE  C31220992   2.944   5.962   8.007 -0.3079 -0.3914  0.1210
  183SOPE  H12X20993   3.054   5.966   8.020 -0.3983 -0.5537  1.0107
  183SOPE  H12Y20994   2.906   5.859   8.022  1.8440 -1.1397  0.8550
  183SOPE  C31320995   2.880   6.054   8.104  0.0188 -0.8549  0.7638
  183SOPE  H13X20996   2.772   6.062   8.081  0.1382  2.3160  0.8208
  183SOPE  H13Y20997   2.920   6.157   8.086  1.9800 -1.6874  0.0652
  183SOPE  C31420998   2.903   6.020   8.252 -0.1217 -0.2007 -0.0839
  183SOPE  H14X20999   2.896   5.911   8.271  0.0350 -0.3942 -1.0960
  183SOPE  H14Y21000   2.835   6.072   8.323  0.3128 -1.8105  1.6115
  183SOPE  C31521001   3.054   6.052   8.299 -0.1789  0.4188 -0.7935
  183SOPE  H15X21002   3.081   6.154   8.266  0.7936 -0.3309 -2.4004
  183SOPE  H15Y21003   3.123   5.979   8.252  0.1572 -0.1779  0.5724
  183SOPE  C31621004   3.057   6.047   8.454 -0.5159 -0.0822 -0.2113
  183SOPE  H16X21005   2.979   5.980   8.496 -0.7332  0.1856 -0.1891
  183SOPE  H16Y21006   3.018   6.145   8.488  0.2808 -0.0005  0.4991
  183SOPE  C31721007   3.191   6.008   8.525 -0.9834 -0.4282 -1.4020
  183SOPE  H17X21008   3.272   6.080   8.502  0.5069 -0.6770  2.3176
  183SOPE  H17Y21009   3.216   5.913   8.474  2.1592  0.1088 -1.0515
  183SOPE  C31821010   3.179   5.994   8.675  0.5707  0.3412  0.0520
  183SOPE  H18X21011   3.087   5.937   8.700  2.6322 -2.5360  1.6765
  183SOPE  H18Y21012   3.168   6.089   8.731 -0.7413  1.0752 -1.3477
  183SOPE  H18Z21013   3.255   5.929   8.723  0.3583 -0.5122 -0.7244
  184SOPE     N21014   2.920   6.120   6.095 -0.3568 -0.4992  0.0762
  184SOPE   HN121015   2.866   6.039   6.133  0.6593 -1.6931 -0.9622
  184SOPE   HN221016   2.922   6.111   5.992  0.9477 -0.6984  0.1024
  184SOPE   HN321017   3.017   6.104   6.130  0.1518  1.1033 -0.5015
  184SOPE   C1221018   2.866   6.258   6.124 -0.8122  0.4355  0.0904
  184SOPE  H12A21019   2.927   6.326   6.061 -1.5629 -1.4036 -2.8321
  184SOPE  H12B21020   2.873   6.265   6.235 -0.5931 -1.0240  0.1899
  184SOPE   C1121021   2.723   6.263   6.071 -0.1286 -0.2124  0.4063
  184SOPE  H11A21022   2.711   6.240   5.963 -3.0134  1.2441  0.2894
  184SOPE  H11B21023   2.693   6.370   6.077 -0.4279 -0.2865  0.2557
  184SOPE     P21024   2.523   6.086   6.093  0.0094  0.5525 -0.2361
  184SOPE   O1321025   2.584   5.948   6.082  0.2864 -0.4858 -0.8553
  184SOPE   O1421026   2.485   6.141   5.963 -0.1363 -0.6120  0.2363
  184SOPE   O1221027   2.631   6.184   6.146  0.4727  0.0949  0.4198
  184SOPE   O1121028   2.405   6.099   6.193  0.1516  0.1810 -0.2064
  184SOPE    C121029   2.385   6.215   6.264 -0.5186  0.9223 -0.0913
  184SOPE    HA21030   2.277   6.207   6.289 -0.8443 -0.7428 -1.8553
  184SOPE    HB21031   2.411   6.305   6.204 -0.4250 -0.3888 -2.1068
  184SOPE    C221032   2.475   6.228   6.394  0.1374 -0.0446  0.3129
  184SOPE    HS21033   2.580   6.247   6.363 -0.1229 -0.9636 -1.2323
  184SOPE   O2121034   2.467   6.106   6.468 -0.0434  0.4977 -0.5412
  184SOPE   C2121035   2.563   6.073   6.554  0.0186 -0.0107 -0.0363
  184SOPE   O2221036   2.674   6.125   6.567  0.0788  0.1707  0.2904
  184SOPE   C2221037   2.521   5.946   6.637  0.2285 -0.5613 -0.5552
  184SOPE   H2R21038   2.603   5.872   6.645 -1.5830 -2.5451  0.6301
  184SOPE   H2S21039   2.437   5.898   6.583 -0.7778  0.6850 -0.1567
  184SOPE    C321040   2.424   6.342   6.488 -0.4065  0.3749  0.0241
  184SOPE    HX21041   2.315   6.331   6.503 -0.6745 -1.0902 -2.3738
  184SOPE    HY21042   2.442   6.435   6.429 -2.3078  0.0948 -1.0880
  184SOPE   O3121043   2.493   6.341   6.618  0.0817 -0.7558 -0.0644
  184SOPE   C3121044   2.605   6.409   6.628  0.4950 -0.3186  0.2611
  184SOPE   O3221045   2.654   6.479   6.535  0.1312  0.5775  0.4952
  184SOPE   C3221046   2.654   6.404   6.770 -0.1246  0.0120 -0.7090
  184SOPE   H2X21047   2.695   6.302   6.789 -0.3590  0.0045 -0.2378
  184SOPE   H2Y21048   2.573   6.416   6.844  0.2339 -0.1834 -0.2801
  184SOPE   C2321049   2.473   5.984   6.782  0.6075 -0.2184 -0.2292
  184SOPE   H3R21050   2.387   6.052   6.764 -0.5175 -1.1874  1.2965
  184SOPE   H3S21051   2.546   6.053   6.831  0.3843 -0.4627  0.4550
  184SOPE   C2421052   2.434   5.859   6.869 -0.3628  0.0126  0.8338
  184SOPE   H4R21053   2.382   5.785   6.805 -0.4893 -0.1978  1.1814
  184SOPE   H4S21054   2.531   5.810   6.891 -0.8496 -1.6516 -0.5481
  184SOPE   C2521055   2.355   5.886   6.998 -0.2231 -0.0065  0.3396
  184SOPE   H5R21056   2.252   5.919   6.976 -0.2549 -0.1159  0.3265
  184SOPE   H5S21057   2.342   5.790   7.053  1.3563 -0.0595  0.6609
  184SOPE   C2621058   2.420   5.990   7.091 -0.4209  0.4444  0.4200
  184SOPE   H6R21059   2.525   5.965   7.117 -0.0253  1.7100  0.1208
  184SOPE   H6S21060   2.436   6.087   7.038  0.2057 -0.5378 -1.2977
  184SOPE   C2721061   2.338   6.006   7.223 -0.3719  0.1503  0.5313
  184SOPE   H7R21062   2.287   6.105   7.216  0.1315  0.4025  0.3333
  184SOPE   H7S21063   2.261   5.926   7.226 -0.7638  0.2723 -2.7038
  184SOPE   C2821064   2.428   6.011   7.342 -0.1094 -0.2159  0.3127
  184SOPE   H8R21065   2.525   6.061   7.321 -0.2323  1.3230  2.8621
  184SOPE   H8S21066   2.373   6.081   7.409  2.0705  1.6726  0.2463
  184SOPE   C2921067   2.453   5.870   7.396  0.2368 -0.9658 -0.0192
  184SOPE   H9121068   2.475   5.801   7.313  0.1495 -0.7409 -0.2296
  184SOPE  C21021069   2.446   5.816   7.523 -0.1662 -0.6908  0.6180
  184SOPE  H10121070   2.470   5.709   7.537 -0.6806 -0.8368  0.3798
  184SOPE  C21121071   2.431   5.899   7.652  0.7190  0.5865 -0.1095
  184SOPE  H11R21072   2.343   5.861   7.707  0.8598  1.2117  0.5689
  184SOPE  H11S21073   2.413   6.009   7.645 -0.4896  0.3865 -0.3999
  184SOPE  C21221074   2.552   5.866   7.741  0.6739  0.0043 -0.4695
  184SOPE  H12R21075   2.650   5.899   7.701  1.3950  0.0540  1.2565
  184SOPE  H12S21076   2.556   5.755   7.741  2.5634  0.0439 -0.5515
  184SOPE  C21321077   2.536   5.912   7.887 -0.4600  0.0786  0.4626
  184SOPE  H13R21078   2.485   6.011   7.884  0.5056  0.5811 -2.0125
  184SOPE  H13S21079   2.639   5.916   7.926 -0.5213 -0.7519  0.7177
  184SOPE  C21421080   2.452   5.820   7.981  0.0982  0.2063 -0.1517
  184SOPE  H14R21081   2.485   5.717   7.955 -1.9998 -0.0625 -2.1603
  184SOPE  H14S21082   2.349   5.833   7.941 -0.0584 -1.9311 -0.5339
  184SOPE  C21521083   2.450   5.850   8.132 -0.0425 -0.1394  0.3444
  184SOPE  H15R21084   2.551   5.836   8.177  1.1593  1.2650 -1.7300
  184SOPE  H15S21085   2.380   5.773   8.170 -0.2154 -0.7437 -1.1414
  184SOPE  C21621086   2.402   5.996   8.163 -0.2730 -0.1312 -0.2086
  184SOPE  H16R21087   2.294   6.002   8.138 -0.1151  2.0345 -0.5433
  184SOPE  H16S21088   2.449   6.071   8.097 -1.8733  1.4097  0.3181
  184SOPE  C21721089   2.440   6.040   8.309 -0.2254 -0.1997  0.1378
  184SOPE  H17R21090   2.410   6.143   8.340  0.0497 -0.2197  0.4829
  184SOPE  H17S21091   2.550   6.026   8.322 -0.3289 -0.7808  0.3957
  184SOPE  C21821092   2.366   5.947   8.408 -0.2993  0.4374 -0.0834
  184SOPE  H18R21093   2.349   5.978   8.513 -0.8811 -0.7276  0.1897
  184SOPE  H18S21094   2.417   5.849   8.412 -1.3330 -0.0908  0.7028
  184SOPE  H18T21095   2.270   5.923   8.357  0.6508 -1.4881 -1.0510
  184SOPE   C3321096   2.756   6.514   6.810  0.4222 -0.3140 -0.1002
  184SOPE   H3X21097   2.822   6.542   6.724 -0.3006  1.9434  0.0155
  184SOPE   H3Y21098   2.817   6.467   6.890 -1.0108 -0.8727  0.6797
  184SOPE   C3421099   2.688   6.646   6.853  0.2405  0.1941  0.1820
  184SOPE   H4X21100   2.612   6.623   6.930  0.9717 -2.7260  0.1240
  184SOPE   H4Y21101   2.638   6.693   6.765 -0.6852  1.7599  1.4998
  184SOPE   C3521102   2.797   6.745   6.891  0.2946 -0.1950  0.3842
  184SOPE   H5X21103   2.855   6.781   6.803  1.0462  0.4760  1.1377
  184SOPE   H5Y21104   2.866   6.696   6.963  0.3747 -0.6870 -0.0235
  184SOPE   C3621105   2.734   6.872   6.944  0.1405 -0.4262 -0.1491
  184SOPE   H6X21106   2.644   6.878   6.879 -1.3344 -1.8420  1.6449
  184SOPE   H6Y21107   2.808   6.951   6.919 -0.4205  0.6944  1.5906
  184SOPE   C3721108   2.701   6.877   7.094 -0.2317 -0.2546 -0.0230
  184SOPE   H7X21109   2.792   6.882   7.158 -0.1775 -1.5037  0.0240
  184SOPE   H7Y21110   2.651   6.782   7.125 -0.6064 -0.1256 -0.2319
  184SOPE   C3821111   2.605   6.998   7.131 -0.5645 -0.2156 -0.2129
  184SOPE   H8X21112   2.505   6.976   7.090  0.0163 -0.5591 -1.4756
  184SOPE   H8Y21113   2.646   7.092   7.087 -1.3061  0.0819 -0.2796
  184SOPE   C3921114   2.586   7.007   7.279 -0.8195 -0.2782  0.1109
  184SOPE   H9X21115   2.532   7.101   7.303 -0.4693  0.3793 -1.5928
  184SOPE   H9Y21116   2.686   6.999   7.328 -0.9487 -1.7448  0.1863
  184SOPE  C31021117   2.506   6.891   7.331 -0.7069 -0.0725  0.1149
  184SOPE  H10X21118   2.548   6.796   7.294  1.1071  1.0521 -0.8756
  184SOPE  H10Y21119   2.399   6.899   7.302  0.0444 -1.6162 -3.6478
  184SOPE  C31121120   2.513   6.884   7.486 -0.3622  0.6313  0.5825
  184SOPE  H11X21121   2.620   6.876   7.514 -0.7789  1.0110  2.4035
  184SOPE  H11Y21122   2.462   6.791   7.521  0.1070  0.6573  1.3541
  184SOPE  C31221123   2.468   7.005   7.563  0.4450  0.4438 -0.3801
  184SOPE  H12X21124   2.361   7.029   7.549  0.7452  1.0178 -1.7807
  184SOPE  H12Y21125   2.527   7.092   7.528  1.3225 -0.3828 -1.0259
  184SOPE  C31321126   2.511   6.994   7.714  0.8170 -0.1005  0.0399
  184SOPE  H13X21127   2.551   7.094   7.743  1.0186 -0.0956 -0.2508
  184SOPE  H13Y21128   2.595   6.927   7.741  0.4156 -0.5788  0.1017
  184SOPE  C31421129   2.397   6.961   7.811 -0.2465  0.2289 -0.1256
  184SOPE  H14X21130   2.314   6.897   7.775  0.4817 -1.0776  0.4335
  184SOPE  H14Y21131   2.341   7.051   7.844 -0.2125  0.7725 -1.4822
  184SOPE  C31521132   2.445   6.888   7.936 -1.2545  0.3502  0.1292
  184SOPE  H15X21133   2.539   6.935   7.975 -0.6172 -0.6695 -0.1435
  184SOPE  H15Y21134   2.478   6.787   7.905  2.5595  1.2423  0.6554
  184SOPE  C31621135   2.342   6.875   8.051 -0.4880  0.1462  0.0204
  184SOPE  H16X21136   2.275   6.799   8.005 -0.0493 -0.3921  0.2641
  184SOPE  H16Y21137   2.291   6.974   8.051  0.7730  0.9198  3.0989
  184SOPE  C31721138   2.393   6.832   8.191 -0.1779  0.7182 -0.0306
  184SOPE  H17X21139   2.465   6.905   8.233  1.5729 -0.4947 -0.8018
  184SOPE  H17Y21140   2.455   6.740   8.184  2.5312  2.1895  2.3634
  184SOPE  C31821141   2.278   6.807   8.287  0.2515  0.1892 -0.3626
  184SOPE  H18X21142   2.324   6.768   8.380  3.2212  1.1078 -1.3330
  184SOPE  H18Y21143   2.205   6.736   8.241  0.8819 -0.9321  0.3130
  184SOPE  H18Z21144   2.222   6.899   8.313 -0.4513 -0.7158  1.4743
  185SAPI   C1221145   6.238   4.626  11.323  0.1482 -0.0579  0.1169
  185SAPI    H221146   6.251   4.737  11.328  2.5681 -0.2958  0.6259
  185SAPI    O221147   6.375   4.587  11.335  0.0713 -0.3761  0.3825
  185SAPI   HO221148   6.413   4.629  11.413  0.8959 -0.4669  0.0366
  185SAPI   C1321149   6.149   4.579  11.434 -0.3517 -0.8180 -1.2413
  185SAPI    H321150   6.045   4.616  11.430 -1.4390 -3.5662 -0.7227
  185SAPI    O321151   6.208   4.618  11.559 -0.1716 -0.1782 -0.0162
  185SAPI   HO321152   6.199   4.712  11.576  1.2873  0.0683 -0.4369
  185SAPI   C1421153   6.141   4.429  11.435  0.0357 -0.1270 -0.1574
  185SAPI    H421154   6.244   4.395  11.461  0.8423  0.6492 -2.1069
  185SAPI    O421155   6.065   4.374  11.543 -0.0936 -0.5378  0.0145
  185SAPI   HO421156   5.970   4.377  11.526 -0.2957  1.3376  1.0783
  185SAPI   C1521157   6.101   4.369  11.299  0.0327 -0.1112 -0.2718
  185SAPI    H521158   5.993   4.387  11.279 -0.7129 -2.3172  1.3556
  185SAPI    O521159   6.119   4.228  11.302 -0.1281  0.6207  0.0707
  185SAPI   HO521160   6.162   4.201  11.220 -1.4218 -1.5346  0.0391
  185SAPI   C1621161   6.190   4.425  11.194 -1.0135 -0.3516  0.1746
  185SAPI    H621162   6.292   4.381  11.204 -0.3763  0.8838 -0.4905
  185SAPI    O621163   6.148   4.387  11.069 -0.2757  0.0350  0.0318
  185SAPI   HO621164   6.121   4.469  11.028 -2.4559 -0.6539 -0.0744
  185SAPI   C1121165   6.188   4.580  11.186  0.1223 -0.6994 -0.4668
  185SAPI    H121166   6.084   4.615  11.169  0.0456  0.2375  1.6312
  185SAPI     P21167   6.252   4.784  11.025 -0.3910 -0.5271  0.2620
  185SAPI   O1321168   6.372   4.828  10.942  0.1911 -0.1299  0.1011
  185SAPI   O1421169   6.198   4.868  11.127 -0.1156  0.3116 -0.3072
  185SAPI   O1221170   6.277   4.632  11.085 -0.3454  0.2676  0.1084
  185SAPI   O1121171   6.136   4.767  10.909  0.0526 -0.0529 -0.3743
  185SAPI    C121172   6.111   4.645  10.837 -0.5650 -0.3684 -0.0922
  185SAPI    HA21173   6.204   4.593  10.806 -1.3530 -1.1461 -1.2107
  185SAPI    HB21174   6.047   4.575  10.895  1.6707 -1.9388  0.6245
  185SAPI    C221175   6.031   4.672  10.713  0.0416  0.5435  0.4317
  185SAPI    HS21176   5.998   4.570  10.684 -0.0882  0.7949 -0.3423
  185SAPI   O2121177   6.111   4.736  10.615 -0.7491 -0.0665  0.0604
  185SAPI   C2121178   6.159   4.662  10.513 -0.1526  0.0532 -0.8196
  185SAPI   O2221179   6.139   4.543  10.500 -0.0177  0.9024 -0.2905
  185SAPI   C2221180   6.224   4.753  10.422 -0.4876  0.2303 -0.3025
  185SAPI   H2R21181   6.277   4.835  10.475 -0.2429 -0.2560  0.2092
  185SAPI   H2S21182   6.310   4.698  10.378 -0.1308  0.1582  0.4693
  185SAPI    C321183   5.907   4.762  10.748 -0.3315  0.1411  0.2618
  185SAPI    HX21184   5.953   4.862  10.763  0.4713 -0.2836  0.7487
  185SAPI    HY21185   5.865   4.740  10.849  1.6460  0.6212  1.2391
  185SAPI   O3121186   5.812   4.774  10.646 -0.0603  0.0214  0.5554
  185SAPI   C3121187   5.738   4.662  10.627  0.4562 -0.8182  0.1473
  185SAPI   O3221188   5.740   4.564  10.691  0.2396  0.0044 -0.1534
  185SAPI   C3221189   5.636   4.691  10.520  0.3620  0.4297 -0.2483
  185SAPI   H2X21190   5.614   4.798  10.506  0.6150  0.3126 -1.6463
  185SAPI   H2Y21191   5.539   4.652  10.558 -0.1871  2.6298  0.7558
  185SAPI   C2321192   6.131   4.823  10.320 -0.0652  0.1991 -0.2486
  185SAPI   H3R21193   6.167   4.927  10.312 -0.3203  0.1563 -2.8008
  185SAPI   H3S21194   6.031   4.828  10.368 -0.0782 -0.6031 -0.1713
  185SAPI   C2421195   6.138   4.766  10.182 -0.4140 -0.8344 -0.4208
  185SAPI   H4R21196   6.053   4.809  10.124 -0.7091  2.3288  2.0856
  185SAPI   H4S21197   6.128   4.656  10.187 -2.0936 -0.6835  0.4173
  185SAPI   C2521198   6.267   4.814  10.120 -0.1187  0.2313 -0.6406
  185SAPI   H5R21199   6.362   4.774  10.158  0.0906  0.5992 -0.7779
  185SAPI   C2621200   6.283   4.901  10.018  0.1811 -0.1282  0.4718
  185SAPI   H6R21201   6.382   4.918   9.974 -0.8053  1.9284 -1.1226
  185SAPI   C2721202   6.182   4.980   9.940  0.1349  0.0299  0.7583
  185SAPI   H7R21203   6.210   5.084   9.969 -0.7011  0.4911 -0.0719
  185SAPI   H7S21204   6.084   4.971   9.991  1.7005 -0.5088  3.9149
  185SAPI   C2821205   6.177   4.954   9.790 -0.5483 -0.1401  0.1054
  185SAPI   H8R21206   6.175   4.849   9.758 -1.1632 -0.2706  0.5731
  185SAPI   C2921207   6.175   5.052   9.695 -0.0151  0.0918 -0.0299
  185SAPI   H9R21208   6.171   5.031   9.587  0.0183 -0.0710  0.0020
  185SAPI  C21021209   6.161   5.198   9.722 -1.2351  0.0446 -1.1412
  185SAPI  H10R21210   6.198   5.209   9.827 -1.7053 -4.1754 -0.3596
  185SAPI  H10S21211   6.057   5.236   9.719 -2.0264 -1.9923 -0.6862
  185SAPI  C21121212   6.259   5.294   9.646 -0.2485  0.5758  0.9839
  185SAPI  H11R21213   6.294   5.369   9.718  0.3622 -1.6160  3.1377
  185SAPI  C21221214   6.279   5.309   9.515 -0.6250  0.4501  0.5456
  185SAPI  H12R21215   6.344   5.392   9.483  0.7622 -0.8605 -0.1231
  185SAPI  C21321216   6.221   5.232   9.394 -0.3807  0.1279 -0.3417
  185SAPI  H13R21217   6.113   5.251   9.380 -0.1205  2.2423  0.1384
  185SAPI  H13S21218   6.230   5.124   9.417 -2.0690  0.2282  0.9016
  185SAPI  C21421219   6.302   5.246   9.262 -0.3519 -0.2854 -0.3674
  185SAPI  H14R21220   6.400   5.197   9.248  1.3759  2.9818 -0.5870
  185SAPI  C21521221   6.266   5.334   9.167 -0.1426 -0.0314 -0.2497
  185SAPI  H15R21222   6.316   5.345   9.070  0.9822 -0.2125  0.2987
  185SAPI  C21621223   6.139   5.425   9.180 -0.1320  0.3813  0.1089
  185SAPI  H16R21224   6.165   5.530   9.154 -2.4818  0.5628 -1.9255
  185SAPI  H16S21225   6.105   5.438   9.285  1.1237 -0.1362  0.5933
  185SAPI  C21721226   6.023   5.395   9.084  0.0679 -0.3332  0.0563
  185SAPI  H17R21227   5.987   5.292   9.105 -0.5829 -0.1975 -0.3531
  185SAPI  H17S21228   6.050   5.395   8.976  0.3374 -2.7261  0.0553
  185SAPI  C21821229   5.892   5.478   9.109 -0.7367 -0.2295 -0.0859
  185SAPI  H18R21230   5.921   5.585   9.101 -2.0965  0.1392 -0.3643
  185SAPI  H18S21231   5.856   5.460   9.213  0.2970  1.1451  0.5389
  185SAPI  C21921232   5.783   5.451   9.005  0.7964  0.0895 -0.6792
  185SAPI  H19R21233   5.781   5.340   8.996  0.9877 -0.0681  0.9097
  185SAPI  H19S21234   5.816   5.502   8.912  1.5651  0.5797 -0.1430
  185SAPI  C22021235   5.647   5.503   9.058  0.4271 -0.5175  0.2379
  185SAPI  H20R21236   5.626   5.463   9.159 -0.4656  0.1583  0.3256
  185SAPI  H20S21237   5.556   5.485   8.997  0.5530 -1.1531  0.2314
  185SAPI  H20T21238   5.650   5.612   9.075 -0.4432 -0.5633  0.7272
  185SAPI   C3321239   5.663   4.625  10.384  0.8366  0.1842 -0.7680
  185SAPI   H3X21240   5.578   4.556  10.363  0.1889  0.6677  0.1866
  185SAPI   H3Y21241   5.756   4.564  10.379  0.4290 -0.4452 -0.8132
  185SAPI   C3421242   5.689   4.717  10.268 -0.5780  0.4952  0.1261
  185SAPI   H4X21243   5.776   4.783  10.287 -1.8415  1.9537  1.0467
  185SAPI   H4Y21244   5.605   4.789  10.254 -1.6748 -0.7334  0.1702
  185SAPI   C3521245   5.714   4.637  10.144 -0.0751 -0.4759  0.2548
  185SAPI   H5X21246   5.798   4.565  10.147  0.5497  0.1391 -1.2782
  185SAPI   H5Y21247   5.736   4.713  10.066 -1.2728 -1.2586 -0.8911
  185SAPI   C3621248   5.586   4.572  10.089 -0.4548  0.3885 -0.4446
  185SAPI   H6X21249   5.505   4.648  10.081 -2.4649 -1.3647  1.5902
  185SAPI   H6Y21250   5.559   4.496  10.165 -0.6126  1.2180  0.3592
  185SAPI   C3721251   5.613   4.502   9.954 -0.3984  0.1701 -0.0991
  185SAPI   H7X21252   5.682   4.418   9.972  1.3754  1.1722 -1.8901
  185SAPI   H7Y21253   5.656   4.571   9.878 -1.2394 -0.3867 -1.0952
  185SAPI   C3821254   5.485   4.437   9.886 -0.0826  0.0401 -0.1985
  185SAPI   H8X21255   5.404   4.508   9.912  0.6254  0.4008  1.1456
  185SAPI   H8Y21256   5.449   4.340   9.927 -2.6908  0.7221 -0.6584
  185SAPI   C3921257   5.511   4.412   9.732  0.5837  0.2487 -0.7730
  185SAPI   H9X21258   5.609   4.374   9.695  0.1905 -2.6814  0.8967
  185SAPI   H9Y21259   5.500   4.512   9.684 -1.6910  1.0065  1.1380
  185SAPI  C31021260   5.408   4.320   9.667  0.2427 -0.3451  0.1874
  185SAPI  H10X21261   5.301   4.341   9.692  0.7001 -0.7694  2.8007
  185SAPI  H10Y21262   5.412   4.220   9.715 -1.5379 -0.3712  0.3718
  185SAPI  C31121263   5.423   4.307   9.516 -0.0961  0.2356 -0.0790
  185SAPI  H11X21264   5.524   4.272   9.486 -1.1769 -2.9415 -0.4123
  185SAPI  H11Y21265   5.422   4.414   9.485  0.9658  0.6915  1.3368
  185SAPI  C31221266   5.300   4.236   9.447 -0.0365 -0.1224  0.1106
  185SAPI  H12X21267   5.220   4.313   9.443  0.1512  0.1464  1.3522
  185SAPI  H12Y21268   5.274   4.153   9.516  2.2521  0.7391  2.1555
  185SAPI  C31321269   5.325   4.212   9.300  1.2378  0.1589  0.0702
  185SAPI  H13X21270   5.396   4.129   9.277 -0.1702 -1.2624  0.6393
  185SAPI  H13Y21271   5.362   4.309   9.261  1.6773  0.8180  2.0163
  185SAPI  C31421272   5.188   4.184   9.217 -0.5967 -0.2146  0.1181
  185SAPI  H14X21273   5.139   4.281   9.194 -2.0954 -0.7038  1.0722
  185SAPI  H14Y21274   5.132   4.112   9.280  1.4357 -1.0360  1.0924
  185SAPI  C31521275   5.206   4.107   9.086  0.0612 -0.3103  0.1759
  185SAPI  H15X21276   5.245   4.004   9.096 -2.2452 -1.1540  1.3169
  185SAPI  H15Y21277   5.281   4.167   9.030  0.7330  0.1576  1.5258
  185SAPI  C31621278   5.085   4.101   8.988 -0.1801 -0.6082 -0.0727
  185SAPI  H16X21279   5.047   4.205   8.979  0.1289 -0.5328 -0.5091
  185SAPI  H16Y21280   5.005   4.051   9.047 -1.2532 -0.4348 -1.3342
  185SAPI  C31721281   5.119   4.037   8.857 -0.3760  0.9154  0.1532
  185SAPI  H17X21282   5.193   3.956   8.877 -0.1763  1.4271  1.6111
  185SAPI  H17Y21283   5.166   4.105   8.784  1.2154  0.0140  0.3004
  185SAPI  C31821284   5.005   3.963   8.792 -0.6398  0.7343  0.1301
  185SAPI  H18X21285   4.950   4.029   8.721  1.8276  1.6785 -1.0298
  185SAPI  H18Y21286   4.944   3.933   8.880  1.0682  0.2448  1.2072
  185SAPI  H18Z21287   5.038   3.868   8.744 -0.8874  0.3456  0.7115
  186SAPI   C1221288   0.681   2.579  10.810  0.7278  0.0183 -0.1567
  186SAPI    H221289   0.744   2.607  10.897  1.8189  0.0305 -0.9253
  186SAPI    O221290   0.757   2.535  10.701 -0.1729  0.3182 -0.8943
  186SAPI   HO221291   0.823   2.599  10.673  2.0439 -1.7856 -0.8561
  186SAPI   C1321292   0.602   2.461  10.868  0.1368 -0.0289  0.9103
  186SAPI    H321293   0.534   2.498  10.947  0.6478  0.0004  1.3431
  186SAPI    O321294   0.689   2.357  10.925 -0.0449 -0.0966  0.2827
  186SAPI   HO321295   0.755   2.329  10.861 -0.4381 -1.4470  0.4411
  186SAPI   C1421296   0.508   2.416  10.762 -0.2889  0.1800  0.6512
  186SAPI    H421297   0.561   2.399  10.666 -0.9712 -0.1987  0.3378
  186SAPI    O421298   0.441   2.293  10.806 -0.0039  0.2433 -0.0686
  186SAPI   HO421299   0.504   2.245  10.860 -1.1248 -0.0846  0.9835
  186SAPI   C1521300   0.400   2.528  10.729  0.1069 -0.2392  0.0633
  186SAPI    H521301   0.352   2.558  10.824  1.2578  0.2132  0.5237
  186SAPI    O521302   0.301   2.476  10.641  0.6830 -0.0706 -0.5472
  186SAPI   HO521303   0.343   2.442  10.562 -0.7861 -0.1424 -1.3351
  186SAPI   C1621304   0.471   2.650  10.673  0.3882 -0.3379 -0.1551
  186SAPI    H621305   0.503   2.626  10.569 -0.4236  0.9272 -0.7210
  186SAPI    O621306   0.385   2.772  10.661 -0.5870  0.3076 -0.5718
  186SAPI   HO621307   0.450   2.836  10.690  0.0301 -0.6054  0.1158
  186SAPI   C1121308   0.582   2.691  10.766  0.4542 -0.2845 -0.5607
  186SAPI    H121309   0.540   2.727  10.862  1.1752  0.1205 -0.3848
  186SAPI     P21310   0.741   2.902  10.786 -0.0701 -0.0738  0.1915
  186SAPI   O1321311   0.705   2.893  10.933 -0.0409  0.1224  0.3135
  186SAPI   O1421312   0.744   3.038  10.724  0.1393 -0.0574  0.1332
  186SAPI   O1221313   0.643   2.804  10.702 -0.4346  0.1474 -0.5722
  186SAPI   O1121314   0.880   2.835  10.773 -0.3806  0.3349 -0.2294
  186SAPI    C121315   0.994   2.883  10.705 -0.6348 -0.5939 -0.4838
  186SAPI    HA21316   0.979   2.985  10.665 -0.5223 -0.1015  0.6956
  186SAPI    HB21317   1.083   2.877  10.772  0.5848 -2.0359 -2.1239
  186SAPI    C221318   1.035   2.801  10.581  0.5194  0.2664  0.0373
  186SAPI    HS21319   1.085   2.872  10.512 -2.2992  0.7669 -1.6425
  186SAPI   O2121320   0.913   2.732  10.533  0.1063  0.2667 -0.0232
  186SAPI   C2121321   0.884   2.757  10.410  0.5164  0.6105  1.3375
  186SAPI   O2221322   0.947   2.832  10.331 -0.3982 -0.3387  0.7110
  186SAPI   C2221323   0.753   2.683  10.370 -0.0393  0.4007 -0.2132
  186SAPI   H2R21324   0.784   2.577  10.366  0.5719  0.5389  0.6281
  186SAPI   H2S21325   0.675   2.704  10.447 -0.4822 -1.2829 -0.1688
  186SAPI    C321326   1.127   2.682  10.616 -0.3205 -0.0536 -0.2476
  186SAPI    HX21327   1.092   2.630  10.708 -1.3069 -0.9299 -1.0937
  186SAPI    HY21328   1.231   2.710  10.643 -0.1257 -2.3762  1.7851
  186SAPI   O3121329   1.138   2.599  10.503 -0.3354  0.2931  0.6338
  186SAPI   C3121330   1.102   2.468  10.514 -0.0636 -0.1472  0.1779
  186SAPI   O3221331   1.033   2.429  10.603 -0.2718 -0.2480  0.1942
  186SAPI   C3221332   1.173   2.383  10.398  0.2141 -1.1572 -0.3518
  186SAPI   H2X21333   1.194   2.287  10.451 -0.0965 -1.1118 -0.1383
  186SAPI   H2Y21334   1.257   2.436  10.349  0.3551 -0.0584  1.0205
  186SAPI   C2321335   0.711   2.719  10.219  0.0675 -0.5748 -0.4791
  186SAPI   H3R21336   0.631   2.653  10.181 -1.4698  0.2785  1.1032
  186SAPI   H3S21337   0.797   2.704  10.151  1.4376  2.0637  0.5233
  186SAPI   C2421338   0.653   2.861  10.205  0.1810  0.2726  0.0405
  186SAPI   H4R21339   0.649   2.893  10.099  0.9857  2.0626  0.5034
  186SAPI   H4S21340   0.716   2.937  10.257  1.8643 -0.9234 -0.1470
  186SAPI   C2521341   0.516   2.852  10.265 -0.6907 -0.2748 -0.3766
  186SAPI   H5R21342   0.512   2.859  10.375 -0.1574  1.5331 -0.4401
  186SAPI   C2621343   0.408   2.835  10.197  0.5753 -0.9138  0.3699
  186SAPI   H6R21344   0.311   2.826  10.249  0.1718 -2.3584 -0.5838
  186SAPI   C2721345   0.410   2.834  10.044 -0.4361  0.0505 -0.2527
  186SAPI   H7R21346   0.330   2.765  10.009 -0.4687  0.7705 -1.7168
  186SAPI   H7S21347   0.499   2.783  10.002 -1.7156  0.9059 -4.5618
  186SAPI   C2821348   0.375   2.968   9.976 -0.4093 -0.5129 -0.4265
  186SAPI   H8R21349   0.366   3.057  10.042  0.7089 -1.7091  1.4373
  186SAPI   C2921350   0.368   2.991   9.851  0.3132  0.0543  0.8041
  186SAPI   H9R21351   0.346   3.095   9.826  1.9635 -0.3879 -3.1177
  186SAPI  C21021352   0.382   2.886   9.745 -0.4366  1.3031 -0.7380
  186SAPI  H10R21353   0.425   2.793   9.787  0.3979  1.5389 -1.0523
  186SAPI  H10S21354   0.471   2.925   9.691 -0.4792  2.2924 -0.1195
  186SAPI  C21121355   0.261   2.860   9.651 -1.1921 -0.5642 -0.6133
  186SAPI  H11R21356   0.185   2.790   9.687 -1.2936 -0.0882  0.1260
  186SAPI  C21221357   0.250   2.920   9.529 -0.5121  0.1206 -0.0704
  186SAPI  H12R21358   0.166   2.892   9.464  0.9863 -1.7242 -1.3425
  186SAPI  C21321359   0.346   3.020   9.468  0.6748 -0.1228  0.8383
  186SAPI  H13R21360   0.383   3.093   9.543  1.2959  1.0805 -0.5687
  186SAPI  H13S21361   0.281   3.078   9.398  2.9952  0.0152 -1.3593
  186SAPI  C21421362   0.460   2.954   9.389 -0.1908 -0.2539  0.2406
  186SAPI  H14R21363   0.529   2.888   9.444 -0.9721 -0.1751  1.3529
  186SAPI  C21521364   0.478   2.970   9.256  0.1081  0.2527  0.5390
  186SAPI  H15R21365   0.563   2.921   9.206 -0.9219  0.5537 -1.6283
  186SAPI  C21621366   0.388   3.046   9.160  0.8216 -0.4583 -0.5917
  186SAPI  H16R21367   0.373   3.153   9.186 -1.8012 -1.2369  1.5428
  186SAPI  H16S21368   0.285   3.005   9.150  0.0736  1.0986  0.2448
  186SAPI  C21721369   0.460   3.042   9.020 -0.2291  0.2664  0.1438
  186SAPI  H17R21370   0.450   2.938   8.983 -2.9379  0.7455 -0.7260
  186SAPI  H17S21371   0.564   3.077   9.007 -0.6122  3.4093  3.8435
  186SAPI  C21821372   0.381   3.134   8.926 -0.1292 -0.1562 -0.0102
  186SAPI  H18R21373   0.451   3.161   8.844 -0.7676  0.8548 -0.2435
  186SAPI  H18S21374   0.364   3.229   8.982 -1.0584 -0.5805  0.4687
  186SAPI  C21921375   0.246   3.080   8.877 -0.3677 -0.1425 -0.1171
  186SAPI  H19R21376   0.170   3.083   8.958  1.7629  1.0415  1.9633
  186SAPI  H19S21377   0.259   2.972   8.857  1.3605  0.4236 -2.4281
  186SAPI  C22021378   0.199   3.156   8.750 -0.5945 -0.4360  0.1658
  186SAPI  H20R21379   0.122   3.100   8.693  0.0225  0.2177 -1.3578
  186SAPI  H20S21380   0.290   3.172   8.688 -0.1716  2.8742  1.4694
  186SAPI  H20T21381   0.177   3.258   8.786  2.2711 -0.0811  1.2201
  186SAPI   C3321382   1.063   2.342  10.301 -0.1825 -0.5516  0.3003
  186SAPI   H3X21383   0.971   2.314  10.357  0.5604  0.0727  1.9096
  186SAPI   H3Y21384   1.097   2.253  10.244  2.3262  0.5632 -0.0664
  186SAPI   C3421385   1.037   2.434  10.186  0.2847  0.2219 -0.2334
  186SAPI   H4X21386   1.132   2.447  10.131  1.2897  1.9770  1.8031
  186SAPI   H4Y21387   1.005   2.536  10.218 -0.1982  0.2383 -0.7494
  186SAPI   C3521388   0.920   2.385  10.102 -0.1593  0.0483  0.3788
  186SAPI   H5X21389   0.818   2.401  10.143 -0.0953 -0.3295  0.6839
  186SAPI   H5Y21390   0.943   2.277  10.099  0.4306  0.1322  1.4679
  186SAPI   C3621391   0.924   2.454   9.959  0.8909  0.6082  0.0038
  186SAPI   H6X21392   1.025   2.474   9.919  0.0861  0.2943 -2.2980
  186SAPI   H6Y21393   0.885   2.555   9.981 -2.1878 -0.8160  1.8270
  186SAPI   C3721394   0.847   2.374   9.849  0.0283  0.4157  0.5628
  186SAPI   H7X21395   0.742   2.350   9.877  0.4914  0.2652  2.3378
  186SAPI   H7Y21396   0.902   2.280   9.831  0.6262  0.7149  0.7878
  186SAPI   C3821397   0.829   2.450   9.716  0.3359  0.0342  0.1270
  186SAPI   H8X21398   0.927   2.453   9.663  0.0800 -1.6206 -0.4726
  186SAPI   H8Y21399   0.802   2.553   9.747 -1.1228 -0.6078  1.0877
  186SAPI   C3921400   0.725   2.385   9.623 -0.3460 -0.5883 -0.0116
  186SAPI   H9X21401   0.628   2.389   9.677 -0.0594  1.7722  0.4252
  186SAPI   H9Y21402   0.756   2.284   9.588  1.3329  0.1530 -0.8099
  186SAPI  C31021403   0.713   2.471   9.493 -0.2548  0.5778 -0.6369
  186SAPI  H10X21404   0.802   2.457   9.429 -0.6932  0.4878 -1.2306
  186SAPI  H10Y21405   0.724   2.575   9.531  1.0979 -0.1103  0.9876
  186SAPI  C31121406   0.584   2.441   9.411 -0.0423 -0.1269 -0.1339
  186SAPI  H11X21407   0.487   2.477   9.452  1.4917  2.4028  1.5477
  186SAPI  H11Y21408   0.581   2.331   9.425 -0.5019  0.0342  1.1222
  186SAPI  C31221409   0.605   2.481   9.265  0.2192 -0.1477  0.2891
  186SAPI  H12X21410   0.685   2.430   9.207  0.3644  1.3693 -0.9045
  186SAPI  H12Y21411   0.623   2.590   9.269  1.2167 -0.2655 -0.4813
  186SAPI  C31321412   0.467   2.460   9.196 -0.0800  0.4555 -0.1932
  186SAPI  H13X21413   0.391   2.503   9.265 -1.7782 -0.0646 -1.6722
  186SAPI  H13Y21414   0.441   2.352   9.187  1.8483 -0.1259  0.5257
  186SAPI  C31421415   0.457   2.539   9.062 -0.2681 -0.1864  0.7335
  186SAPI  H14X21416   0.521   2.494   8.983 -0.6023  0.9062 -0.1934
  186SAPI  H14Y21417   0.494   2.643   9.075  0.0228 -0.3193  0.9768
  186SAPI  C31521418   0.311   2.535   9.013 -0.5694 -0.1386  0.4736
  186SAPI  H15X21419   0.242   2.498   9.092 -0.8317 -0.1465  0.2453
  186SAPI  H15Y21420   0.306   2.467   8.925 -0.0903 -0.3658  0.6169
  186SAPI  C31621421   0.264   2.671   8.966  0.3325 -0.2356 -0.3296
  186SAPI  H16X21422   0.335   2.710   8.890 -1.0594 -0.5689 -1.8797
  186SAPI  H16Y21423   0.267   2.739   9.053 -1.9826  1.0329 -1.1329
  186SAPI  C31721424   0.120   2.682   8.923 -0.9523 -0.1203  0.3148
  186SAPI  H17X21425   0.089   2.788   8.910  2.0650  0.8275  0.2017
  186SAPI  H17Y21426   0.045   2.621   8.977 -0.0245 -0.6945  0.9799
  186SAPI  C31821427   0.106   2.625   8.777  0.0748 -0.4024 -0.3226
  186SAPI  H18X21428   0.001   2.636   8.743 -0.9658  0.1698  2.7309
  186SAPI  H18Y21429   0.133   2.518   8.783  0.3154 -0.2530  2.7704
  186SAPI  H18Z21430   0.177   2.673   8.706 -0.4959  0.7638 -0.1490
  187SAPI   C1221431   6.117   3.530   6.298  0.6077  0.7290  0.3229
  187SAPI    H221432   6.118   3.420   6.288 -1.5370  0.7609 -1.0114
  187SAPI    O221433   6.164   3.580   6.176  0.2738  0.0003 -0.5114
  187SAPI   HO221434   6.259   3.583   6.192  0.7190  2.6221 -2.8699
  187SAPI   C1321435   5.968   3.560   6.320 -0.6176 -0.5877 -0.1150
  187SAPI    H321436   5.940   3.524   6.421  1.4619  1.7236  1.3798
  187SAPI    O321437   5.884   3.491   6.234  0.0505 -0.3532  0.1022
  187SAPI   HO321438   5.841   3.424   6.288 -0.2860  0.6660  1.1541
  187SAPI   C1421439   5.952   3.716   6.324  0.2267 -0.0652 -0.1423
  187SAPI    H421440   5.995   3.767   6.235  1.9337 -0.5723  0.3536
  187SAPI    O421441   5.813   3.748   6.315 -0.1533 -0.3597  0.0568
  187SAPI   HO421442   5.763   3.726   6.394 -0.5629 -1.2396 -0.4351
  187SAPI   C1521443   6.031   3.772   6.446  0.1534 -0.4255  0.4717
  187SAPI    H521444   5.989   3.713   6.530  1.2148 -1.5405  0.2497
  187SAPI    O521445   6.003   3.908   6.478  0.0535 -0.3890  0.0220
  187SAPI   HO521446   5.974   3.914   6.569 -1.2407 -0.4141 -0.3695
  187SAPI   C1621447   6.181   3.735   6.439 -0.0041  0.1727  0.2867
  187SAPI    H621448   6.223   3.796   6.356  1.6190 -2.4448 -0.9568
  187SAPI    O621449   6.248   3.783   6.551  0.1193 -0.0122 -0.3513
  187SAPI   HO621450   6.214   3.871   6.571  2.7913  0.6578  1.7734
  187SAPI   C1121451   6.195   3.586   6.412  0.1188  0.1759  0.3044
  187SAPI    H121452   6.145   3.521   6.488 -1.0483  1.4169  0.6333
  187SAPI     P21453   6.418   3.432   6.463  0.4638 -0.3212 -0.1115
  187SAPI   O1321454   6.555   3.461   6.414  0.6401  0.0893 -0.2274
  187SAPI   O1421455   6.343   3.315   6.421  0.3252  0.2794  0.2412
  187SAPI   O1221456   6.332   3.554   6.407 -0.0825 -0.1788  0.0790
  187SAPI   O1121457   6.413   3.445   6.623  0.1395  0.2492  0.4626
  187SAPI    C121458   6.305   3.410   6.704  0.1913 -0.6000 -0.2656
  187SAPI    HA21459   6.208   3.410   6.648  0.0011  0.0584  0.0529
  187SAPI    HB21460   6.307   3.305   6.740  2.4606 -1.0980 -1.6723
  187SAPI    C221461   6.305   3.507   6.827  0.2565  0.1397  1.7467
  187SAPI    HS21462   6.302   3.610   6.786 -0.0875  0.4088  2.4298
  187SAPI   O2121463   6.429   3.502   6.895  0.6976  0.8036 -0.1442
  187SAPI   C2121464   6.456   3.610   6.955 -0.3718  0.6202  0.5146
  187SAPI   O2221465   6.405   3.719   6.949  0.1261  0.1222 -0.6144
  187SAPI   C2221466   6.574   3.582   7.048  0.4743 -0.4218  0.0939
  187SAPI   H2R21467   6.561   3.477   7.083 -0.9495 -0.0518  0.7614
  187SAPI   H2S21468   6.669   3.584   6.992 -0.1732  0.5747 -1.0123
  187SAPI    C321469   6.189   3.480   6.924 -0.0744  0.0105 -0.0980
  187SAPI    HX21470   6.220   3.414   7.007 -1.1422  2.6114  2.5280
  187SAPI    HY21471   6.110   3.425   6.867  0.2079 -0.6757  0.1691
  187SAPI   O3121472   6.128   3.603   6.967 -0.1121  0.3169 -0.3033
  187SAPI   C3121473   6.041   3.580   7.068 -0.7230  0.0283  0.2896
  187SAPI   O3221474   6.020   3.469   7.115 -0.2208 -0.3971 -0.0884
  187SAPI   C3221475   5.984   3.716   7.112 -0.5893 -0.0117 -0.0171
  187SAPI   H2X21476   5.894   3.741   7.052  0.0606  0.3170 -0.8694
  187SAPI   H2Y21477   6.060   3.794   7.090  0.4900 -1.2782 -0.9127
  187SAPI   C2321478   6.582   3.680   7.169  0.0515 -0.4852 -0.4022
  187SAPI   H3R21479   6.564   3.778   7.120 -2.8987 -0.9122 -0.3868
  187SAPI   H3S21480   6.686   3.671   7.207 -0.3334  2.9730  2.0137
  187SAPI   C2421481   6.482   3.654   7.284 -0.1297 -0.2220  0.2161
  187SAPI   H4R21482   6.501   3.547   7.309  1.2285 -0.2991 -1.0119
  187SAPI   H4S21483   6.381   3.655   7.238 -1.3708 -0.6370  2.7148
  187SAPI   C2521484   6.481   3.740   7.400 -0.0646  0.2003 -0.0461
  187SAPI   H5R21485   6.502   3.846   7.381 -0.2773  0.3082  0.3099
  187SAPI   C2621486   6.478   3.700   7.529  0.0231  0.7143 -0.2222
  187SAPI   H6R21487   6.473   3.778   7.606 -2.3853 -0.1434  0.5935
  187SAPI   C2721488   6.473   3.558   7.586  0.3841 -0.0171  0.3435
  187SAPI   H7R21489   6.532   3.555   7.680 -1.5416 -0.3874  1.6000
  187SAPI   H7S21490   6.508   3.480   7.515  0.9102  1.0324 -0.5844
  187SAPI   C2821491   6.329   3.521   7.627 -0.2961 -0.8621  0.1532
  187SAPI   H8R21492   6.251   3.537   7.551 -2.4282  0.7765  2.4998
  187SAPI   C2921493   6.293   3.480   7.753  0.9431 -0.0410  0.9520
  187SAPI   H9R21494   6.189   3.450   7.772  0.5678  0.0398 -0.8286
  187SAPI  C21021495   6.378   3.463   7.877 -0.6128  0.5167  0.9562
  187SAPI  H10R21496   6.431   3.558   7.899 -0.0666  0.0249  1.8568
  187SAPI  H10S21497   6.459   3.388   7.865 -1.4506 -0.1823 -0.6368
  187SAPI  C21121498   6.309   3.411   8.003 -0.7587 -0.6279  0.6104
  187SAPI  H11R21499   6.322   3.304   8.023  1.8928 -0.8555 -1.7036
  187SAPI  C21221500   6.241   3.487   8.096 -0.3445  0.4890  0.2944
  187SAPI  H12R21501   6.183   3.429   8.169 -0.9879 -1.5840 -1.7317
  187SAPI  C21321502   6.229   3.636   8.094 -0.0872 -1.1217  0.2866
  187SAPI  H13R21503   6.184   3.664   7.997  1.5586  3.1731  0.5205
  187SAPI  H13S21504   6.326   3.690   8.090 -0.7878  0.1150 -2.4536
  187SAPI  C21421505   6.141   3.688   8.208 -0.4566  0.4698  0.6617
  187SAPI  H14R21506   6.035   3.663   8.196  0.3216 -2.4044 -1.3753
  187SAPI  C21521507   6.186   3.747   8.316 -0.0521  0.4127 -0.1916
  187SAPI  H15R21508   6.108   3.787   8.382 -1.8582 -0.3427 -1.7725
  187SAPI  C21621509   6.324   3.790   8.359  1.1407  0.2191 -0.4304
  187SAPI  H16R21510   6.392   3.774   8.272  0.6426 -0.9278 -0.6238
  187SAPI  H16S21511   6.372   3.733   8.441  1.2225 -0.1174 -0.7092
  187SAPI  C21721512   6.310   3.942   8.379 -0.2595  0.5288 -0.4052
  187SAPI  H17R21513   6.222   3.960   8.445  0.0527 -1.3224  0.5939
  187SAPI  H17S21514   6.299   3.992   8.280 -1.4291 -1.5744 -1.4247
  187SAPI  C21821515   6.424   4.015   8.446 -0.2820 -0.1861 -0.0963
  187SAPI  H18R21516   6.508   3.990   8.378 -1.0280 -0.3455 -0.9730
  187SAPI  H18S21517   6.438   3.987   8.553  2.2267  3.4721  0.7291
  187SAPI  C21921518   6.390   4.161   8.458  0.5584 -0.3479 -0.4213
  187SAPI  H19R21519   6.306   4.176   8.530  0.9303  2.1009 -0.4026
  187SAPI  H19S21520   6.361   4.194   8.356  0.2768  2.4436  0.4750
  187SAPI  C22021521   6.508   4.242   8.503 -0.0755 -0.5594 -0.4098
  187SAPI  H20R21522   6.483   4.349   8.524  0.6146 -0.5975  0.6587
  187SAPI  H20S21523   6.588   4.231   8.426 -1.1046  0.7754 -1.7487
  187SAPI  H20T21524   6.547   4.194   8.595  1.7748 -2.4777 -2.0779
  187SAPI   C3321525   5.956   3.726   7.266 -0.0124 -0.5409 -0.0724
  187SAPI   H3X21526   5.898   3.638   7.298 -1.8587 -0.1340 -2.0373
  187SAPI   H3Y21527   5.890   3.813   7.288 -0.5348 -0.4191 -1.9467
  187SAPI   C3421528   6.077   3.750   7.351 -0.6420  0.3761  0.0017
  187SAPI   H4X21529   6.127   3.837   7.304 -0.8042  0.9196  0.8097
  187SAPI   H4Y21530   6.148   3.667   7.332 -0.3494  0.9562 -1.5678
  187SAPI   C3521531   6.042   3.781   7.503  0.2524 -0.0917  0.5150
  187SAPI   H5X21532   6.013   3.687   7.554 -1.2094  0.4517  0.7258
  187SAPI   H5Y21533   5.945   3.835   7.507  0.7043  0.6420  2.1103
  187SAPI   C3621534   6.155   3.843   7.578 -0.8995 -0.1562 -0.9763
  187SAPI   H6X21535   6.222   3.901   7.511  0.0391  0.0575  0.1148
  187SAPI   H6Y21536   6.216   3.766   7.629  0.7762  1.8180  0.1385
  187SAPI   C3721537   6.113   3.942   7.690  0.0591 -0.1347 -0.2956
  187SAPI   H7X21538   6.056   3.894   7.773  1.1136  0.9548  1.1122
  187SAPI   H7Y21539   6.042   4.013   7.643 -0.1489 -0.7789 -0.9768
  187SAPI   C3821540   6.228   4.031   7.750 -0.6946 -0.0375  0.2494
  187SAPI   H8X21541   6.272   4.091   7.668  1.3676 -1.9825 -0.1779
  187SAPI   H8Y21542   6.308   3.957   7.771  1.4992  1.3688 -2.5774
  187SAPI   C3921543   6.200   4.106   7.880 -0.3630 -0.0036  1.3288
  187SAPI   H9X21544   6.302   4.147   7.897 -0.7936  1.3994  0.6809
  187SAPI   H9Y21545   6.195   4.040   7.969  0.5196 -2.2042 -0.1689
  187SAPI  C31021546   6.083   4.195   7.876 -0.2685 -0.3807  0.3622
  187SAPI  H10X21547   5.996   4.128   7.863 -0.7888  0.4979 -0.8372
  187SAPI  H10Y21548   6.092   4.265   7.790 -1.8849  0.2140  0.6418
  187SAPI  C31121549   6.082   4.278   8.008  0.7520  0.2642  0.1516
  187SAPI  H11X21550   5.998   4.349   7.995 -0.0578 -0.4238  1.4025
  187SAPI  H11Y21551   6.172   4.343   8.011  0.7459  0.2630  0.3459
  187SAPI  C31221552   6.065   4.195   8.137 -1.1435 -0.6142 -0.5533
  187SAPI  H12X21553   6.035   4.261   8.220  0.5901 -2.1876  1.4395
  187SAPI  H12Y21554   6.159   4.141   8.162 -0.9580  0.7279  1.9262
  187SAPI  C31321555   5.940   4.096   8.130 -0.4882  0.4540 -0.1363
  187SAPI  H13X21556   5.949   4.028   8.042  0.9214  0.7430 -0.2290
  187SAPI  H13Y21557   5.853   4.165   8.131 -0.3664  0.6081  1.4187
  187SAPI  C31421558   5.909   4.018   8.261  0.0851  0.7159 -0.4943
  187SAPI  H14X21559   5.888   4.082   8.349  0.8194  1.6991 -1.0167
  187SAPI  H14Y21560   5.998   3.955   8.286 -2.0270 -1.3935  2.3444
  187SAPI  C31521561   5.789   3.912   8.252  0.6020 -0.0177  0.1266
  187SAPI  H15X21562   5.833   3.823   8.202  0.5966 -0.9151  1.6687
  187SAPI  H15Y21563   5.708   3.958   8.190  0.6374  0.1148  0.1785
  187SAPI  C31621564   5.738   3.884   8.395  1.6898  0.1306 -0.0606
  187SAPI  H16X21565   5.813   3.882   8.478  1.0946 -0.3478  0.4791
  187SAPI  H16Y21566   5.688   3.785   8.392 -0.4009  1.1145  0.3212
  187SAPI  C31721567   5.623   3.971   8.446  0.3413  0.0512  1.0300
  187SAPI  H17X21568   5.549   3.996   8.367  0.8557 -2.3432 -0.3203
  187SAPI  H17Y21569   5.662   4.071   8.473  1.9314 -0.5751  1.1369
  187SAPI  C31821570   5.542   3.908   8.566 -0.1957 -0.2120  0.3374
  187SAPI  H18X21571   5.538   3.800   8.542 -1.1243 -0.1373  0.1105
  187SAPI  H18Y21572   5.441   3.954   8.563 -0.3134 -0.5291 -0.9419
  187SAPI  H18Z21573   5.592   3.919   8.665 -0.2762  1.0590  0.2581
  188SAPI   C1221574   4.218   5.111   6.183 -0.7856 -0.6527  0.5664
  188SAPI    H221575   4.221   5.221   6.196 -0.3449 -0.4776 -0.8512
  188SAPI    O221576   4.086   5.082   6.219  0.1529 -0.2890  0.2233
  188SAPI   HO221577   4.069   5.121   6.305  0.4116 -0.6083  0.4270
  188SAPI   C1321578   4.247   5.079   6.039 -1.4151  0.6262 -0.3518
  188SAPI    H321579   4.350   5.115   6.020 -1.3625  1.4228  1.2836
  188SAPI    O321580   4.158   5.147   5.948 -0.2866  0.4210 -0.1913
  188SAPI   HO321581   4.067   5.125   5.969 -0.6128  1.0744 -0.8911
  188SAPI   C1421582   4.238   4.930   6.030 -0.7576  0.1557 -0.1792
  188SAPI    H421583   4.139   4.893   6.064 -0.3997 -1.5071 -0.8698
  188SAPI    O421584   4.258   4.887   5.894  0.7270 -0.3841  0.5068
  188SAPI   HO421585   4.197   4.948   5.851  2.8476  2.2206  0.9128
  188SAPI   C1521586   4.325   4.861   6.134  0.2493  0.4204 -0.5645
  188SAPI    H521587   4.429   4.896   6.119  0.1372  1.2142  0.4538
  188SAPI    O521588   4.316   4.720   6.114  0.1137 -0.2198 -0.7621
  188SAPI   HO521589   4.403   4.680   6.107  0.7924  1.1441 -0.3626
  188SAPI   C1621590   4.295   4.900   6.279  0.0964  0.1356 -0.3780
  188SAPI    H621591   4.197   4.868   6.318  1.6193 -3.1593  1.1497
  188SAPI    O621592   4.390   4.839   6.366 -0.8053  0.4364  0.2222
  188SAPI   HO621593   4.352   4.774   6.426  2.2432 -0.1485  1.7185
  188SAPI   C1121594   4.306   5.052   6.284 -0.3607 -0.4477 -0.1852
  188SAPI    H121595   4.414   5.060   6.258 -0.0781 -3.8782 -0.4166
  188SAPI     P21596   4.357   5.246   6.475  0.0560 -0.0879  0.3121
  188SAPI   O1321597   4.248   5.319   6.547  0.2178 -0.0494 -0.4885
  188SAPI   O1421598   4.408   5.318   6.355 -0.3791 -0.7925 -0.1374
  188SAPI   O1221599   4.279   5.115   6.414 -0.2994  0.0268 -0.1856
  188SAPI   O1121600   4.472   5.202   6.568  0.6816 -0.1349  0.3764
  188SAPI    C121601   4.459   5.128   6.685 -0.3055  0.0609  0.7529
  188SAPI    HA21602   4.419   5.028   6.660 -0.4942  0.3454 -0.1307
  188SAPI    HB21603   4.564   5.116   6.721 -0.8355  0.0421  2.3849
  188SAPI    C221604   4.379   5.188   6.806 -0.4536 -0.0341  0.2506
  188SAPI    HS21605   4.277   5.188   6.763 -0.6395  1.0978  0.6473
  188SAPI   O2121606   4.434   5.323   6.823  0.7657  0.3162  0.1128
  188SAPI   C2121607   4.347   5.400   6.888 -0.0185  0.3893  0.5593
  188SAPI   O2221608   4.239   5.362   6.928 -0.1842 -0.1606 -0.3654
  188SAPI   C2221609   4.403   5.535   6.905  0.1704 -0.1730  1.4146
  188SAPI   H2R21610   4.513   5.534   6.919  0.7481 -0.1224 -2.1107
  188SAPI   H2S21611   4.384   5.575   6.803 -0.3791  0.8681  1.9153
  188SAPI    C321612   4.389   5.103   6.929  0.4906 -0.7204  0.3607
  188SAPI    HX21613   4.343   5.008   6.895 -3.3130  1.2939 -0.7960
  188SAPI    HY21614   4.319   5.136   7.009 -0.1200 -2.1816  0.4680
  188SAPI   O3121615   4.527   5.087   6.979 -0.2690 -0.3130 -0.2880
  188SAPI   C3121616   4.547   5.132   7.111  0.4840 -0.0776  0.3757
  188SAPI   O3221617   4.463   5.201   7.167  0.3038 -0.1825 -0.1964
  188SAPI   C3221618   4.675   5.084   7.163  0.4082  0.4766  0.0813
  188SAPI   H2X21619   4.743   5.090   7.075 -1.5020 -1.3770 -1.6491
  188SAPI   H2Y21620   4.667   4.982   7.206 -0.0303  0.4350 -0.0918
  188SAPI   C2321621   4.334   5.618   7.012 -0.4653 -0.2893 -0.0889
  188SAPI   H3R21622   4.227   5.591   7.017 -0.8689  1.0372 -1.0407
  188SAPI   H3S21623   4.340   5.724   6.979 -2.4159 -0.2632 -0.4564
  188SAPI   C2421624   4.409   5.601   7.151  0.6856  0.5754  0.1674
  188SAPI   H4R21625   4.519   5.607   7.138  0.8654 -1.8803  0.1566
  188SAPI   H4S21626   4.391   5.504   7.201  2.1327 -0.2183 -0.7755
  188SAPI   C2521627   4.354   5.714   7.236 -0.0377  0.3955 -0.5568
  188SAPI   H5R21628   4.272   5.776   7.197 -1.8903 -1.6014 -0.0285
  188SAPI   C2621629   4.391   5.741   7.368 -0.0756  0.1358 -0.2917
  188SAPI   H6R21630   4.344   5.820   7.429 -1.2070 -0.1976 -0.7028
  188SAPI   C2721631   4.490   5.660   7.450  0.1749  0.6160 -0.1216
  188SAPI   H7R21632   4.543   5.727   7.522  0.2741  0.8300 -0.3907
  188SAPI   H7S21633   4.571   5.633   7.379 -0.3827  0.3092 -0.6505
  188SAPI   C2821634   4.435   5.531   7.514 -0.4443 -0.1028 -0.0608
  188SAPI   H8R21635   4.390   5.453   7.450 -0.2113 -0.2882 -0.0009
  188SAPI   C2921636   4.448   5.505   7.641  0.0265  0.0548  0.3318
  188SAPI   H9R21637   4.416   5.404   7.673  0.9904 -0.4851 -0.3494
  188SAPI  C21021638   4.519   5.582   7.743 -0.2791  0.6220  0.1689
  188SAPI  H10R21639   4.593   5.649   7.694  0.0947 -0.6164 -1.0089
  188SAPI  H10S21640   4.591   5.532   7.812  0.4850  1.1658 -0.2155
  188SAPI  C21121641   4.422   5.663   7.824 -0.2545 -0.0118 -0.2703
  188SAPI  H11R21642   4.344   5.702   7.756 -0.7553 -3.2739 -1.7152
  188SAPI  C21221643   4.411   5.669   7.962  0.6188 -0.6832  0.0422
  188SAPI  H12R21644   4.330   5.729   8.005  1.1149 -0.5514  0.8256
  188SAPI  C21321645   4.514   5.621   8.066  0.0896  0.4178 -0.1957
  188SAPI  H13R21646   4.585   5.706   8.063  0.5879  0.0274  0.3846
  188SAPI  H13S21647   4.569   5.526   8.048  1.8001  1.1618  0.9249
  188SAPI  C21421648   4.443   5.606   8.198  0.1951  0.3506 -0.4806
  188SAPI  H14R21649   4.422   5.501   8.223  1.1839  0.4100  0.7171
  188SAPI  C21521650   4.430   5.699   8.290  0.3694 -0.0008 -0.4976
  188SAPI  H15R21651   4.384   5.677   8.388 -1.5590 -1.3732 -1.6270
  188SAPI  C21621652   4.469   5.849   8.282  0.4658 -0.0411 -0.3067
  188SAPI  H16R21653   4.394   5.908   8.226  0.1531  1.0980  1.2373
  188SAPI  H16S21654   4.550   5.862   8.207 -0.6295 -0.7122 -1.6444
  188SAPI  C21721655   4.482   5.905   8.427  0.5394  0.5965 -0.1436
  188SAPI  H17R21656   4.396   5.885   8.495 -1.0668  1.3300 -1.8772
  188SAPI  H17S21657   4.495   6.014   8.416 -2.2930  0.9611 -0.8305
  188SAPI  C21821658   4.614   5.850   8.491  0.1300 -0.1590 -0.1745
  188SAPI  H18R21659   4.678   5.838   8.402  0.6315 -2.9958  0.4812
  188SAPI  H18S21660   4.600   5.753   8.544  0.5357  0.6345  1.4723
  188SAPI  C21921661   4.682   5.951   8.590  0.7638  0.5797  0.5194
  188SAPI  H19R21662   4.606   5.984   8.664  0.4092 -2.1410  1.4881
  188SAPI  H19S21663   4.719   6.040   8.535  0.0533 -0.6698 -2.1686
  188SAPI  C22021664   4.784   5.888   8.680 -0.2633 -0.1666  0.5935
  188SAPI  H20R21665   4.869   5.856   8.616 -1.7400 -0.0533 -1.5067
  188SAPI  H20S21666   4.760   5.792   8.730 -1.2285  0.4573  1.3645
  188SAPI  H20T21667   4.820   5.961   8.756 -1.0713  1.0862 -0.1861
  188SAPI   C3321668   4.730   5.172   7.276 -0.0371  0.1382  0.3390
  188SAPI   H3X21669   4.730   5.278   7.243 -0.6714  0.0142 -0.0643
  188SAPI   H3Y21670   4.829   5.127   7.298 -0.4207 -1.6773 -1.3617
  188SAPI   C3421671   4.657   5.167   7.412  0.3112  0.2908 -0.0761
  188SAPI   H4X21672   4.649   5.060   7.442 -0.3796  0.6693  1.1840
  188SAPI   H4Y21673   4.560   5.219   7.401  0.3426  0.3880  0.1038
  188SAPI   C3521674   4.746   5.234   7.518  0.0957  0.1764  0.2751
  188SAPI   H5X21675   4.759   5.339   7.484 -2.5531 -0.2424 -2.4908
  188SAPI   H5Y21676   4.845   5.183   7.519 -0.0004 -0.0517  1.8568
  188SAPI   C3621677   4.700   5.219   7.662 -0.8012  0.1468  0.3164
  188SAPI   H6X21678   4.682   5.111   7.681 -2.0307 -0.6367 -4.1173
  188SAPI   H6Y21679   4.601   5.270   7.670 -1.1729 -0.6720  1.0868
  188SAPI   C3721680   4.794   5.290   7.762  0.8154  0.4474 -0.3332
  188SAPI   H7X21681   4.790   5.398   7.735 -1.3639  1.2450  2.6491
  188SAPI   H7Y21682   4.899   5.265   7.738  1.4122 -0.0687  2.5147
  188SAPI   C3821683   4.749   5.271   7.909  0.5567 -0.1387  0.1290
  188SAPI   H8X21684   4.742   5.161   7.924 -1.0107 -0.1249 -0.3268
  188SAPI   H8Y21685   4.646   5.310   7.920 -0.0945 -1.9169  0.7455
  188SAPI   C3921686   4.844   5.345   8.003  0.7158  0.5169 -0.3209
  188SAPI   H9X21687   4.821   5.452   7.983  0.9106  0.2645 -1.9541
  188SAPI   H9Y21688   4.953   5.344   7.985  0.8011 -1.6319  0.0321
  188SAPI  C31021689   4.809   5.309   8.148  0.2330  0.6470 -0.2731
  188SAPI  H10X21690   4.849   5.207   8.164 -1.9013 -0.6760 -2.7115
  188SAPI  H10Y21691   4.698   5.299   8.155  0.3419  0.5447  2.4217
  188SAPI  C31121692   4.864   5.417   8.243 -0.4014  0.0895  0.4103
  188SAPI  H11X21693   4.813   5.513   8.221 -1.1671 -0.7241 -1.6304
  188SAPI  H11Y21694   4.972   5.429   8.222 -0.8738  0.5836 -2.0777
  188SAPI  C31221695   4.850   5.381   8.392  0.5451  0.0896 -0.0151
  188SAPI  H12X21696   4.743   5.368   8.419  0.9689 -1.5870  0.9976
  188SAPI  H12Y21697   4.884   5.466   8.454 -0.3621  0.3950  0.0890
  188SAPI  C31321698   4.917   5.255   8.441 -0.1482 -0.2013  0.5845
  188SAPI  H13X21699   5.025   5.263   8.419 -0.1102 -0.0209  0.8363
  188SAPI  H13Y21700   4.879   5.162   8.393  0.9080 -0.9085  1.0974
  188SAPI  C31421701   4.898   5.225   8.592  0.0127  0.5144 -0.3040
  188SAPI  H14X21702   4.923   5.117   8.600 -0.1557  0.6428  3.2079
  188SAPI  H14Y21703   4.796   5.226   8.635  1.2848 -2.1830  3.2302
  188SAPI  C31521704   4.971   5.324   8.688 -0.1391  0.3536  0.0435
  188SAPI  H15X21705   4.944   5.282   8.788  1.6155  1.9277  1.2542
  188SAPI  H15Y21706   4.934   5.429   8.686 -2.1452 -0.2687  1.1683
  188SAPI  C31621707   5.116   5.344   8.664  0.2326 -0.1759 -0.0539
  188SAPI  H16X21708   5.126   5.409   8.574 -3.3993  1.2102  0.3809
  188SAPI  H16Y21709   5.163   5.247   8.636  0.4700  0.2493 -1.2152
  188SAPI  C31721710   5.188   5.411   8.780 -0.1587  0.1358 -0.1565
  188SAPI  H17X21711   5.165   5.341   8.864 -1.7679 -0.2286 -0.8535
  188SAPI  H17Y21712   5.134   5.507   8.796 -0.4454  0.1442 -1.1311
  188SAPI  C31821713   5.338   5.417   8.772  0.1400  0.2448  0.0464
  188SAPI  H18X21714   5.365   5.497   8.699  0.1460  1.1892  1.0627
  188SAPI  H18Y21715   5.389   5.325   8.736 -2.2126 -0.9474 -0.4838
  188SAPI  H18Z21716   5.382   5.458   8.865 -2.6395  0.5763  1.3165
  189POPC     N21717   6.590   3.033  11.169 -0.0733 -0.6258 -0.1052
  189POPC   C1221718   6.651   2.953  11.054  0.0636  0.2315 -0.1975
  189POPC  H12A21719   6.583   2.880  11.013 -1.1552  1.7022 -0.8569
  189POPC  H12B21720   6.734   2.897  11.094 -0.1280 -2.4183 -3.0897
  189POPC   C1321721   6.469   3.105  11.119  0.7356  0.2113 -0.7062
  189POPC  H13A21722   6.391   3.038  11.085 -0.4239 -0.1430  2.3076
  189POPC  H13B21723   6.429   3.162  11.202  1.9202 -0.4424  0.3527
  189POPC  H13C21724   6.495   3.175  11.041 -0.5567  1.0715 -0.3906
  189POPC   C1421725   6.538   2.929  11.277 -0.4227 -0.2379  0.0789
  189POPC  H14A21726   6.515   2.977  11.371 -2.1776 -0.2824 -0.2895
  189POPC  H14B21727   6.446   2.883  11.243  0.2713 -2.4283  0.9956
  189POPC  H14C21728   6.615   2.854  11.291  2.3281  2.1103 -1.3856
  189POPC   C1521729   6.694   3.122  11.223 -0.5183 -0.1162  0.4668
  189POPC  H15A21730   6.646   3.206  11.271 -1.7855 -0.4308 -0.2076
  189POPC  H15B21731   6.755   3.163  11.143 -1.1806 -2.4314 -1.3328
  189POPC  H15C21732   6.760   3.082  11.298 -1.9553 -0.7817  1.4164
  189POPC   C1121733   6.706   3.028  10.930 -0.3407 -0.6008  0.2277
  189POPC  H11A21734   6.628   3.093  10.886 -1.7188 -0.3953  2.7853
  189POPC  H11B21735   6.721   2.949  10.853 -1.0532 -2.0049  1.4690
  189POPC     P21736   6.967   3.016  10.977  0.1059  0.2051 -0.2768
  189POPC   O1321737   6.942   2.901  11.065 -0.1005 -0.1618 -0.0651
  189POPC   O1421738   7.082   3.101  11.006 -0.2700 -0.1637 -0.7540
  189POPC   O1221739   6.827   3.099  10.964  0.0292  0.1355  0.1188
  189POPC   O1121740   6.990   2.956  10.831 -0.3894 -0.3455  0.3294
  189POPC    C121741   7.029   3.041  10.725  0.4405 -0.0212 -0.2260
  189POPC    HA21742   7.049   2.982  10.633  1.8724  1.3987 -0.8738
  189POPC    HB21743   7.120   3.100  10.746  1.6600 -1.3648 -1.4802
  189POPC    C221744   6.918   3.134  10.675 -0.3598  0.0342  0.1215
  189POPC    HS21745   6.866   3.177  10.764  1.2807 -0.4718  1.3817
  189POPC   O2121746   6.826   3.065  10.593  0.2124  0.2423  0.5744
  189POPC   C2121747   6.705   3.122  10.585 -0.0979 -0.5387 -0.5449
  189POPC   O2221748   6.668   3.217  10.650 -0.0514 -0.6488  0.6375
  189POPC   C2221749   6.621   3.036  10.496  0.2331  0.4521  0.2526
  189POPC   H2R21750   6.535   3.097  10.463  0.9735  0.8420 -1.0133
  189POPC   H2S21751   6.580   2.952  10.556  0.3636  0.9101  0.9858
  189POPC    C321752   6.989   3.241  10.589  1.0226  0.0307  0.1946
  189POPC    HX21753   7.036   3.308  10.663 -0.0543 -0.9729  1.8620
  189POPC    HY21754   6.899   3.296  10.554 -0.5284 -2.3465  0.2037
  189POPC   O3121755   7.068   3.192  10.478  0.0186 -0.2847  0.0590
  189POPC   C3121756   7.127   3.291  10.407 -0.7923  0.9212  0.4171
  189POPC   O3221757   7.106   3.408  10.421  0.2756  0.1219 -0.0204
  189POPC   C3221758   7.222   3.225  10.304  0.1215 -0.2180 -0.8401
  189POPC   H2X21759   7.166   3.144  10.254 -0.4043  0.8375 -1.9990
  189POPC   H2Y21760   7.309   3.191  10.365  0.0450  2.4704  0.9777
  189POPC   C2321761   6.702   2.984  10.373  0.5165 -0.0013 -0.0529
  189POPC   H3R21762   6.776   2.910  10.411  0.5391  0.9128  1.8475
  189POPC   H3S21763   6.754   3.071  10.327  2.4793 -0.8851  0.3535
  189POPC   C2421764   6.619   2.918  10.260 -0.0151 -0.4637 -0.2537
  189POPC   H4R21765   6.550   2.991  10.211 -0.3006 -2.6350 -3.4298
  189POPC   H4S21766   6.567   2.836  10.313 -0.9394  0.3477  0.1252
  189POPC   C2521767   6.705   2.857  10.142 -0.0356  0.7767  0.1422
  189POPC   H5R21768   6.725   2.750  10.165 -1.2631  0.6382  0.6294
  189POPC   H5S21769   6.801   2.912  10.132  1.7381 -2.0826  0.0573
  189POPC   C2621770   6.633   2.855  10.003 -0.0740 -0.1066  1.1152
  189POPC   H6R21771   6.544   2.789   9.992  1.6512 -2.5663  0.9645
  189POPC   H6S21772   6.714   2.811   9.942  0.1866  0.8668  0.7453
  189POPC   C2721773   6.595   2.988   9.938 -0.3689  0.1187 -0.2716
  189POPC   H7R21774   6.675   3.060   9.963 -1.7538  0.9783  2.0224
  189POPC   H7S21775   6.503   3.032   9.983 -0.0240  1.9946 -1.3092
  189POPC   C2821776   6.580   2.978   9.793  0.2130  0.5425 -0.3517
  189POPC   H8R21777   6.495   3.036   9.752 -0.5646 -0.7002 -0.5534
  189POPC   H8S21778   6.551   2.874   9.769 -1.4129  1.0457 -0.6765
  189POPC   C2921779   6.712   3.000   9.725  0.7870 -0.3704  0.0562
  189POPC   H9121780   6.799   2.947   9.766  1.3612  0.3868 -0.1586
  189POPC  C21021781   6.726   3.078   9.617  0.0357 -0.3586  0.1883
  189POPC  H10121782   6.829   3.079   9.577  0.2515  0.2123  0.7400
  189POPC  C21121783   6.627   3.154   9.534 -0.1934 -0.1376  0.5515
  189POPC  H11R21784   6.629   3.263   9.554  0.1814  0.6579 -3.1145
  189POPC  H11S21785   6.523   3.115   9.541 -0.8034  0.8481 -1.9712
  189POPC  C21221786   6.662   3.138   9.381  0.4246 -0.3146 -0.9149
  189POPC  H12R21787   6.649   3.032   9.353  0.1627 -1.4626  2.9432
  189POPC  H12S21788   6.769   3.166   9.374  0.4167  0.2108  0.6732
  189POPC  C21321789   6.570   3.236   9.301 -0.4967  0.2110 -0.2439
  189POPC  H13R21790   6.603   3.335   9.339  1.1363  0.0118 -1.0428
  189POPC  H13S21791   6.467   3.223   9.339  0.3099 -2.4702  1.3610
  189POPC  C21421792   6.591   3.240   9.149  0.0633 -0.0717 -0.1597
  189POPC  H14R21793   6.699   3.249   9.128  0.7860  1.0220  3.3486
  189POPC  H14S21794   6.535   3.323   9.100  0.0976 -0.9912 -1.8388
  189POPC  C21521795   6.554   3.124   9.063  1.0892 -0.8704  0.0919
  189POPC  H15R21796   6.444   3.111   9.060  0.9607  0.2748 -2.1065
  189POPC  H15S21797   6.591   3.027   9.104  0.2085 -1.7881 -1.2224
  189POPC  C21621798   6.613   3.129   8.922 -0.3230  0.0054  0.7051
  189POPC  H16R21799   6.594   3.030   8.876 -1.1633  0.3296  0.3279
  189POPC  H16S21800   6.719   3.163   8.915 -0.2218 -0.2096  1.1661
  189POPC  C21721801   6.522   3.212   8.831  0.5391 -0.1823  0.8848
  189POPC  H17R21802   6.524   3.321   8.852 -1.1834  0.6187 -2.4482
  189POPC  H17S21803   6.416   3.181   8.840 -0.4391  3.0120  1.6405
  189POPC  C21821804   6.576   3.202   8.688 -0.4496  0.1064 -0.0558
  189POPC  H18R21805   6.568   3.097   8.653  0.4124 -0.3245  0.9709
  189POPC  H18S21806   6.682   3.233   8.687 -0.6713  1.0869  1.9879
  189POPC  H18T21807   6.529   3.279   8.624 -0.1090  0.7142  0.4146
  189POPC   C3321808   7.279   3.328  10.204 -0.2065 -0.1817  0.0418
  189POPC   H3X21809   7.324   3.412  10.261  1.0685 -0.4712 -0.4921
  189POPC   H3Y21810   7.199   3.382  10.150 -0.3847  2.2698  2.5127
  189POPC   C3421811   7.380   3.269  10.107 -0.6423 -0.2803  0.5011
  189POPC   H4X21812   7.322   3.187  10.061 -2.0295  0.0268  1.6521
  189POPC   H4Y21813   7.471   3.227  10.156 -0.2565 -0.1936 -0.1360
  189POPC   C3521814   7.436   3.374  10.007  0.6624  0.1343  0.4139
  189POPC   H5X21815   7.466   3.465  10.062 -1.2431  2.0868 -1.5352
  189POPC   H5Y21816   7.354   3.407   9.940 -0.3722 -2.4887  0.2728
  189POPC   C3621817   7.554   3.326   9.924 -0.2732  0.9229  0.4761
  189POPC   H6X21818   7.643   3.302   9.987 -0.2385 -2.5668 -0.6930
  189POPC   H6Y21819   7.592   3.401   9.851  1.8875 -0.9214 -0.4244
  189POPC   C3721820   7.533   3.203   9.830 -0.4292  0.8017 -0.0161
  189POPC   H7X21821   7.475   3.123   9.882 -0.1773  0.9049  0.4283
  189POPC   H7Y21822   7.631   3.161   9.800  0.6654  1.8292  1.9066
  189POPC   C3821823   7.446   3.246   9.711  0.4876 -0.2284 -0.0412
  189POPC   H8X21824   7.370   3.325   9.731  0.6518  0.2198 -1.1053
  189POPC   H8Y21825   7.371   3.166   9.693  0.0591  0.3127 -0.7454
  189POPC   C3921826   7.526   3.291   9.589  0.1281 -0.1909 -0.2524
  189POPC   H9X21827   7.591   3.207   9.558 -0.7493 -1.4316  1.1277
  189POPC   H9Y21828   7.589   3.379   9.612 -0.0437 -0.2801  0.6170
  189POPC  C31021829   7.437   3.342   9.472 -0.0816  1.2181 -0.4160
  189POPC  H10X21830   7.388   3.437   9.503 -1.1698  0.7060 -0.5375
  189POPC  H10Y21831   7.356   3.268   9.458  1.9751 -1.5018  1.0163
  189POPC  C31121832   7.512   3.357   9.340 -0.0528 -0.4403 -0.5063
  189POPC  H11X21833   7.558   3.256   9.339 -3.1656 -1.9947  0.4124
  189POPC  H11Y21834   7.583   3.442   9.348 -0.4913 -0.0663 -0.5093
  189POPC  C31221835   7.423   3.372   9.223  0.1468  0.0502  1.1361
  189POPC  H12X21836   7.383   3.473   9.203  0.6474 -0.3374 -2.5753
  189POPC  H12Y21837   7.340   3.298   9.220  0.5108 -0.3308 -0.8445
  189POPC  C31321838   7.504   3.337   9.090  0.1794 -0.2218 -0.6334
  189POPC  H13X21839   7.431   3.320   9.008  0.2508 -1.5439 -0.4488
  189POPC  H13Y21840   7.560   3.241   9.102  3.4785  1.4245 -1.5287
  189POPC  C31421841   7.593   3.455   9.058 -0.1721  0.5231  0.1551
  189POPC  H14X21842   7.664   3.460   9.144 -1.4241  0.5542  1.2127
  189POPC  H14Y21843   7.531   3.546   9.044 -0.7499  0.0633 -0.3260
  189POPC  C31521844   7.678   3.432   8.933 -0.3560 -0.1945 -0.2447
  189POPC  H15X21845   7.618   3.396   8.846 -0.6221  0.3614 -0.2942
  189POPC  H15Y21846   7.756   3.360   8.965 -0.3175  0.2727  0.7522
  189POPC  C31621847   7.739   3.565   8.871  0.0207  0.7305 -0.6565
  189POPC  H16X21848   7.833   3.538   8.818  0.3474 -1.8077  1.0235
  189POPC  H16Y21849   7.775   3.640   8.944 -2.2973  0.1725  1.1870
  189POPC  H16Z21850   7.671   3.607   8.793 -3.5229 -1.1759  1.1376
  190POPC     N21851   1.035   4.302  10.727  0.2614  0.8576 -0.0770
  190POPC   C1221852   1.056   4.450  10.735  0.4884  0.4539  0.0093
  190POPC  H12A21853   0.988   4.497  10.666  1.8519 -0.0826 -1.7811
  190POPC  H12B21854   1.151   4.460  10.685  2.0117 -2.8682  1.8834
  190POPC   C1321855   1.044   4.260  10.579 -0.4723 -1.1394  0.6772
  190POPC  H13A21856   1.129   4.313  10.537  2.2755 -3.9618  2.2327
  190POPC  H13B21857   1.067   4.155  10.582 -0.8490 -1.1924  3.1801
  190POPC  H13C21858   0.952   4.278  10.525 -0.0505  1.0326  0.5593
  190POPC   C1421859   1.145   4.224  10.795 -0.0371 -0.2150  0.3731
  190POPC  H14A21860   1.243   4.242  10.754 -0.1700  1.6570  0.8051
  190POPC  H14B21861   1.148   4.249  10.900 -2.1270  4.2462 -0.4112
  190POPC  H14C21862   1.127   4.118  10.786 -0.3799 -0.0070 -1.8002
  190POPC   C1521863   0.907   4.256  10.782 -0.5417  0.1846 -0.2024
  190POPC  H15A21864   0.897   4.289  10.885  1.4529  0.1707  0.0461
  190POPC  H15B21865   0.898   4.151  10.804 -4.1226  0.6510  1.1247
  190POPC  H15C21866   0.827   4.294  10.721 -1.9553  2.2434  2.6395
  190POPC   C1121867   1.065   4.513  10.874 -0.0555 -0.6358 -0.3490
  190POPC  H11A21868   1.115   4.612  10.865  1.1938 -1.3232 -1.2907
  190POPC  H11B21869   1.131   4.454  10.941 -0.8434  0.7683  1.7630
  190POPC     P21870   0.836   4.646  10.898 -0.2609  0.6865  0.2872
  190POPC   O1321871   0.846   4.744  11.004  0.0054  1.0157 -0.2557
  190POPC   O1421872   0.698   4.596  10.870 -0.0383 -0.2563  0.3894
  190POPC   O1221873   0.938   4.521  10.936  0.2743  0.1953 -0.5919
  190POPC   O1121874   0.895   4.703  10.761 -0.4817 -0.0271 -0.1526
  190POPC    C121875   0.967   4.829  10.745 -0.3629  0.0160 -0.4919
  190POPC    HA21876   1.043   4.826  10.663  1.8641  0.3510  1.4460
  190POPC    HB21877   1.026   4.860  10.834 -0.4844  1.1758 -0.8021
  190POPC    C221878   0.874   4.945  10.710 -0.7485 -1.2990  0.6105
  190POPC    HS21879   0.800   4.937  10.794  0.0740  1.0231  1.6595
  190POPC   O2121880   0.816   4.931  10.581 -0.2331  0.1975  0.2649
  190POPC   C2121881   0.686   4.949  10.561  0.1655 -0.7910 -0.3687
  190POPC   O2221882   0.608   4.995  10.643  0.3784 -0.0222 -0.0591
  190POPC   C2221883   0.638   4.919  10.416  0.1210  0.0462 -0.2786
  190POPC   H2R21884   0.527   4.929  10.412  0.0899 -0.6874 -1.4421
  190POPC   H2S21885   0.669   4.819  10.380 -1.3445 -0.0289 -1.4133
  190POPC    C321886   0.950   5.085  10.730 -0.3031  0.0188 -0.0544
  190POPC    HX21887   1.052   5.071  10.688 -0.0199  0.4629  0.4686
  190POPC    HY21888   0.967   5.107  10.837 -0.4526 -0.1160 -0.0047
  190POPC   O3121889   0.884   5.198  10.668 -0.2767 -0.0806  0.4684
  190POPC   C3121890   0.797   5.269  10.744 -0.4964  0.3291  0.2861
  190POPC   O3221891   0.789   5.254  10.862  0.8256  0.2632 -0.1160
  190POPC   C3221892   0.711   5.363  10.653 -0.8863 -0.2313  0.2528
  190POPC   H2X21893   0.741   5.332  10.551  1.7849 -1.7728  1.3862
  190POPC   H2Y21894   0.754   5.464  10.667  1.5311 -0.7316 -2.5995
  190POPC   C2321895   0.690   5.023  10.313  0.9461 -0.2068  0.5951
  190POPC   H3R21896   0.801   5.023  10.307  1.0939 -0.8650  2.4600
  190POPC   H3S21897   0.653   5.125  10.342  0.6523 -0.4836  1.2259
  190POPC   C2421898   0.638   4.990  10.178 -0.8621  0.6115  0.0294
  190POPC   H4R21899   0.676   5.081  10.127  2.0286 -0.3507  0.2932
  190POPC   H4S21900   0.528   4.974  10.165 -0.1996 -3.1317 -3.2504
  190POPC   C2521901   0.696   4.862  10.112  0.4737 -0.2624 -0.6328
  190POPC   H5R21902   0.669   4.769  10.168  0.0160 -0.8669 -1.8145
  190POPC   H5S21903   0.807   4.858  10.115  0.4256 -2.0296  0.2162
  190POPC   C2621904   0.643   4.840   9.977  0.6433  0.2275  0.4576
  190POPC   H6R21905   0.656   4.934   9.920 -2.4815  0.9523  0.7495
  190POPC   H6S21906   0.535   4.816   9.984  0.8712 -1.7995 -1.7305
  190POPC   C2721907   0.712   4.716   9.911  0.0342 -0.9004 -0.0157
  190POPC   H7R21908   0.726   4.632   9.982 -1.9843 -0.8073  0.5583
  190POPC   H7S21909   0.815   4.747   9.883  0.3391 -3.1435 -1.6913
  190POPC   C2821910   0.628   4.673   9.784 -0.6516  0.3510 -0.3503
  190POPC   H8R21911   0.690   4.610   9.718  0.1751  0.4629  0.3026
  190POPC   H8S21912   0.622   4.767   9.725  1.3625  1.0576  0.5010
  190POPC   C2921913   0.499   4.598   9.816 -0.3165 -0.3235 -1.1642
  190POPC   H9121914   0.488   4.560   9.918  1.9102  1.6536 -0.0818
  190POPC  C21021915   0.407   4.550   9.730 -0.0400 -0.6776 -0.0533
  190POPC  H10121916   0.322   4.487   9.760  0.0036 -0.8065 -0.1996
  190POPC  C21121917   0.423   4.569   9.580 -0.4338 -0.5024 -0.3382
  190POPC  H11R21918   0.461   4.474   9.536  1.2964 -0.6001  1.2558
  190POPC  H11S21919   0.511   4.634   9.560 -1.6893  0.5371 -2.9461
  190POPC  C21221920   0.303   4.631   9.512  0.7989  0.2604 -0.2249
  190POPC  H12R21921   0.276   4.733   9.547 -0.4480 -0.0638 -0.1871
  190POPC  H12S21922   0.209   4.577   9.535  0.6648  1.4248  2.3247
  190POPC  C21321923   0.321   4.644   9.363 -0.5424  0.5088  0.3354
  190POPC  H13R21924   0.419   4.690   9.338 -2.4441  3.3321 -2.7846
  190POPC  H13S21925   0.241   4.714   9.331 -0.2062  0.7203 -0.0564
  190POPC  C21421926   0.300   4.517   9.285  0.3219 -0.5983  0.4600
  190POPC  H14R21927   0.215   4.466   9.336  0.1485 -1.6411 -0.8082
  190POPC  H14S21928   0.395   4.462   9.301  0.7844  0.3329  0.9284
  190POPC  C21521929   0.268   4.520   9.135 -0.3455 -0.2245  0.3017
  190POPC  H15R21930   0.300   4.432   9.076  1.2564  0.1008  0.6381
  190POPC  H15S21931   0.323   4.609   9.098 -1.9306 -0.0040 -1.6493
  190POPC  C21621932   0.113   4.531   9.102 -0.3376 -0.1439 -0.2017
  190POPC  H16R21933   0.064   4.469   9.180  3.1074 -0.5417  1.8349
  190POPC  H16S21934   0.098   4.492   8.999 -0.4425  2.6893 -1.3483
  190POPC  C21721935   0.059   4.671   9.104 -0.5343 -0.4997  0.4804
  190POPC  H17R21936   0.076   4.727   9.199 -2.5006 -1.1180  1.2434
  190POPC  H17S21937  -0.051   4.674   9.088 -0.5543 -2.1241  0.2202
  190POPC  C21821938   0.135   4.743   8.983  1.1607  0.2398  0.5214
  190POPC  H18R21939   0.242   4.764   9.005  1.1152 -0.5876  1.5863
  190POPC  H18S21940   0.082   4.840   8.970  0.2640 -0.4352 -1.0932
  190POPC  H18T21941   0.124   4.688   8.887  0.5958  2.0681 -0.5318
  190POPC   C3321942   0.565   5.353  10.693 -0.0282 -0.2882  0.3161
  190POPC   H3X21943   0.526   5.450  10.730  1.0342 -0.1672  1.1810
  190POPC   H3Y21944   0.547   5.273  10.768  1.6631 -0.0853  0.9861
  190POPC   C3421945   0.477   5.298  10.575 -0.3428  0.3438  0.5432
  190POPC   H4X21946   0.376   5.284  10.619 -0.1033  1.5485  1.5452
  190POPC   H4Y21947   0.511   5.196  10.547 -0.2211  0.5723 -0.1615
  190POPC   C3521948   0.478   5.392  10.447  0.2156  0.9957 -0.5868
  190POPC   H5X21949   0.580   5.387  10.403  1.6432 -1.1505  2.6130
  190POPC   H5Y21950   0.464   5.498  10.478 -0.0074  0.9562 -0.5500
  190POPC   C3621951   0.369   5.356  10.333 -0.4097 -0.5589 -0.3700
  190POPC   H6X21952   0.302   5.444  10.324  1.3074  1.0135  1.1458
  190POPC   H6Y21953   0.310   5.269  10.366 -1.5434 -0.5947 -2.3108
  190POPC   C3721954   0.438   5.327  10.202  0.3515 -0.0792  0.6047
  190POPC   H7X21955   0.517   5.248  10.203  0.1707 -0.2875 -0.5357
  190POPC   H7Y21956   0.486   5.423  10.174 -2.9796  1.9329  1.3412
  190POPC   C3821957   0.338   5.291  10.094  0.3351 -0.0583  0.5262
  190POPC   H8X21958   0.262   5.372  10.098  1.0534  0.6228  0.6465
  190POPC   H8Y21959   0.286   5.198  10.123 -0.5434  0.3458  0.2678
  190POPC   C3921960   0.413   5.264   9.968 -0.0482  0.2639 -0.3696
  190POPC   H9X21961   0.494   5.192   9.989 -0.4819  0.3487  1.8718
  190POPC   H9Y21962   0.468   5.346   9.917  2.2591 -1.1988 -0.3613
  190POPC  C31021963   0.325   5.187   9.864  0.0559  0.0867  0.3691
  190POPC  H10X21964   0.242   5.260   9.851  0.1110 -0.1727 -1.8099
  190POPC  H10Y21965   0.283   5.092   9.902  1.0086 -0.5967 -0.2644
  190POPC  C31121966   0.378   5.179   9.717  0.2457 -0.3073  0.5366
  190POPC  H11X21967   0.431   5.275   9.697  0.0262 -0.8064 -3.2791
  190POPC  H11Y21968   0.287   5.170   9.653  0.0451  1.0988  0.5707
  190POPC  C31221969   0.470   5.060   9.697 -0.0095  0.6426 -0.2224
  190POPC  H12X21970   0.431   4.969   9.647  0.5291  0.2940 -0.0191
  190POPC  H12Y21971   0.520   5.030   9.791  1.4647 -2.6606 -1.9126
  190POPC  C31321972   0.593   5.101   9.611 -0.3050 -0.3873  0.1715
  190POPC  H13X21973   0.659   5.165   9.673 -2.2937  1.8114  0.1781
  190POPC  H13Y21974   0.552   5.172   9.536 -1.0336 -0.7733  0.1911
  190POPC  C31421975   0.677   4.992   9.543  0.1227 -0.1908  0.2543
  190POPC  H14X21976   0.713   4.920   9.620 -0.7524 -1.5422 -0.5673
  190POPC  H14Y21977   0.767   5.042   9.501 -0.8913  1.6642  0.1653
  190POPC  C31521978   0.612   4.902   9.439 -0.0997  0.7319  0.1722
  190POPC  H15X21979   0.513   4.869   9.478  0.3423 -1.1044 -0.1699
  190POPC  H15Y21980   0.682   4.816   9.436 -0.0102  0.7210  1.5397
  190POPC  C31621981   0.598   4.975   9.302  0.5347  0.4184 -0.5690
  190POPC  H16X21982   0.695   5.005   9.256  1.1831 -1.7639 -0.7639
  190POPC  H16Y21983   0.524   5.057   9.302 -0.4184 -0.4210  0.4065
  190POPC  H16Z21984   0.549   4.903   9.233  0.5036 -0.1282  0.0150
  191POPC     N21985   5.544   4.001   6.391  0.2982 -0.1874  0.4207
  191POPC   C1221986   5.469   4.137   6.378  0.4727 -0.5753  0.6837
  191POPC  H12A21987   5.382   4.129   6.315  1.2500 -0.4763 -0.4256
  191POPC  H12B21988   5.532   4.196   6.314 -0.1037 -1.3580 -0.6676
  191POPC   C1321989   5.557   3.943   6.263 -0.0810  0.2264  0.4706
  191POPC  H13A21990   5.469   3.943   6.201  0.0704 -1.9618  0.1763
  191POPC  H13B21991   5.639   3.994   6.214 -0.6529  0.9970  0.3164
  191POPC  H13C21992   5.584   3.838   6.262  2.5332  0.7143  3.5834
  191POPC   C1421993   5.672   4.012   6.458  0.5447  0.4717 -0.4750
  191POPC  H14A21994   5.736   3.925   6.449  0.6286  0.3648  1.0092
  191POPC  H14B21995   5.737   4.093   6.429  0.4846  0.4661 -0.6332
  191POPC  H14C21996   5.656   4.033   6.562 -3.2204 -1.3602 -0.5079
  191POPC   C1521997   5.445   3.919   6.468 -0.0151 -0.6455 -0.0659
  191POPC  H15A21998   5.401   3.976   6.550  0.9538  0.4251 -0.2737
  191POPC  H15B21999   5.497   3.836   6.513  0.4281 -0.9314 -1.0979
  191POPC  H15C22000   5.364   3.888   6.404  0.6393 -1.1112 -0.6737
  191POPC   C1122001   5.428   4.219   6.498 -0.0592  0.0328 -0.6048
  191POPC  H11A22002   5.424   4.330   6.484 -0.2415  0.0288 -0.5854
  191POPC  H11B22003   5.507   4.205   6.575 -0.8557 -2.4349 -0.1633
  191POPC     P22004   5.168   4.220   6.478 -0.1849  0.3441 -0.0335
  191POPC   O1322005   5.087   4.093   6.473 -0.4099 -0.1274 -0.9581
  191POPC   O1422006   5.188   4.296   6.347  0.3744  0.0137 -0.7821
  191POPC   O1222007   5.302   4.172   6.533 -0.6163  0.3367 -0.5639
  191POPC   O1122008   5.125   4.310   6.594  0.0930 -0.4104 -0.1418
  191POPC    C122009   5.178   4.444   6.618  0.0011 -0.5519 -0.6252
  191POPC    HA22010   5.126   4.525   6.563  1.9237  1.0244 -0.2391
  191POPC    HB22011   5.284   4.462   6.590  0.1450 -0.8238 -0.2702
  191POPC    C222012   5.178   4.489   6.765  0.5156 -0.0886  0.6502
  191POPC    HS22013   5.273   4.529   6.808  0.7371 -0.6802  0.7204
  191POPC   O2122014   5.127   4.382   6.850 -0.0341  0.2005 -0.2322
  191POPC   C2122015   5.211   4.282   6.861 -0.0514  0.6003  0.0555
  191POPC   O2222016   5.328   4.285   6.837 -0.5318 -0.0815 -0.1991
  191POPC   C2222017   5.139   4.163   6.928 -0.4969  0.0251  0.1017
  191POPC   H2R22018   5.219   4.100   6.970  1.4682  2.2468 -0.0838
  191POPC   H2S22019   5.089   4.096   6.855  3.4360 -0.2198 -2.7081
  191POPC    C322020   5.090   4.615   6.784 -0.5423 -0.3402 -0.0277
  191POPC    HX22021   4.996   4.594   6.729 -0.4609 -0.1513 -0.2415
  191POPC    HY22022   5.139   4.699   6.731 -1.4606 -0.3532 -0.9277
  191POPC   O3122023   5.067   4.643   6.918  0.3361 -0.5502  0.1361
  191POPC   C3122024   4.944   4.644   6.963 -0.2879 -0.1988 -0.9320
  191POPC   O3222025   4.846   4.624   6.893  0.0511 -0.6664 -0.4175
  191POPC   C3222026   4.947   4.674   7.113  0.0971 -0.0140  0.7677
  191POPC   H2X22027   4.890   4.769   7.118  0.8213  0.6230 -1.6025
  191POPC   H2Y22028   5.049   4.703   7.148  0.9863 -1.4431 -0.5109
  191POPC   C2322029   5.035   4.219   7.032  0.2290 -0.1884 -0.5634
  191POPC   H3R22030   4.952   4.265   6.974  1.5861 -0.5514 -2.9436
  191POPC   H3S22031   5.091   4.293   7.092 -1.1721  1.6149 -1.3624
  191POPC   C2422032   4.982   4.098   7.119 -0.7413  0.1182  0.2664
  191POPC   H4R22033   5.064   4.049   7.175  0.4290  1.2448 -0.4040
  191POPC   H4S22034   4.939   4.019   7.055  0.3106 -0.4683  0.2584
  191POPC   C2522035   4.885   4.127   7.231  0.4255 -0.2387  1.0852
  191POPC   H5R22036   4.851   4.024   7.256  1.0192 -1.6217 -3.0205
  191POPC   H5S22037   4.799   4.184   7.191 -0.1289 -0.0168  2.5294
  191POPC   C2622038   4.942   4.207   7.352 -0.7790  0.7779 -0.2629
  191POPC   H6R22039   4.864   4.262   7.409 -0.2741 -0.3293  1.5922
  191POPC   H6S22040   5.010   4.286   7.313  1.3350 -1.2582 -0.9727
  191POPC   C2722041   5.026   4.129   7.454  0.0901  0.2480  0.1814
  191POPC   H7R22042   5.068   4.205   7.523  1.0608 -1.6956  1.8455
  191POPC   H7S22043   5.110   4.079   7.400  0.4975  0.8632  0.2315
  191POPC   C2822044   4.937   4.035   7.542 -0.3497  0.1377 -0.4741
  191POPC   H8R22045   5.006   3.974   7.605  0.4823 -0.9575 -2.3293
  191POPC   H8S22046   4.883   3.953   7.489  2.0631 -1.6225 -0.3763
  191POPC   C2922047   4.832   4.109   7.623 -0.0162 -0.1059 -0.3075
  191POPC   H9122048   4.736   4.117   7.570 -1.9008  1.0230  2.9984
  191POPC  C21022049   4.842   4.167   7.740 -0.0615 -0.1130 -0.2456
  191POPC  H10122050   4.757   4.229   7.773  0.1198 -0.7571  1.5527
  191POPC  C21122051   4.966   4.149   7.830 -0.2938  0.3921 -0.2107
  191POPC  H11R22052   4.959   4.245   7.886  1.1428 -0.6048  1.7819
  191POPC  H11S22053   5.066   4.156   7.783 -0.6464 -0.4417 -1.1186
  191POPC  C21222054   4.948   4.036   7.933 -0.5075  1.0150  0.3564
  191POPC  H12R22055   5.043   4.020   7.988 -0.5325 -0.5405 -0.0249
  191POPC  H12S22056   4.917   3.943   7.882  2.2905  0.8477 -1.2356
  191POPC  C21322057   4.844   4.061   8.045 -0.1522 -0.0991  0.4057
  191POPC  H13R22058   4.747   4.064   7.991  0.4433 -0.5590 -0.7126
  191POPC  H13S22059   4.873   4.161   8.085  0.0803 -0.2365  0.5801
  191POPC  C21422060   4.867   3.963   8.163 -0.3649 -0.3654  0.2173
  191POPC  H14R22061   4.956   3.985   8.226 -0.0823 -0.9973  0.0482
  191POPC  H14S22062   4.898   3.868   8.114  2.2993 -1.9082  4.3306
  191POPC  C21522063   4.736   3.917   8.236 -0.4980  0.1913 -0.1418
  191POPC  H15R22064   4.659   3.910   8.156 -0.5001 -1.2264 -0.0498
  191POPC  H15S22065   4.698   3.988   8.312  0.6595  0.3238  0.3377
  191POPC  C21622066   4.751   3.774   8.307 -0.8194 -0.0243 -0.2056
  191POPC  H16R22067   4.822   3.711   8.250  2.2835  1.1820  2.0475
  191POPC  H16S22068   4.651   3.726   8.316 -1.2481  0.6239 -1.3203
  191POPC  C21722069   4.823   3.792   8.444  0.6970  0.0212  0.0796
  191POPC  H17R22070   4.759   3.831   8.526  2.2093 -0.2318  1.4367
  191POPC  H17S22071   4.893   3.875   8.419  1.3472 -0.0792  1.4847
  191POPC  C21822072   4.898   3.674   8.504  0.1909 -0.1404  0.1174
  191POPC  H18R22073   4.832   3.606   8.562 -0.4091  0.4111  0.0850
  191POPC  H18S22074   4.982   3.706   8.570 -0.5726  1.6782  0.2447
  191POPC  H18T22075   4.939   3.600   8.431  1.3872  0.0612  0.5542
  191POPC   C3322076   4.883   4.574   7.207 -0.0483 -0.0712  0.0511
  191POPC   H3X22077   4.938   4.482   7.235  0.1521  0.5331  1.7066
  191POPC   H3Y22078   4.785   4.539   7.167  0.1585  1.3579 -1.8840
  191POPC   C3422079   4.845   4.644   7.343  0.4134  0.0254  0.3556
  191POPC   H4X22080   4.777   4.730   7.322  1.5155  0.6195 -0.9608
  191POPC   H4Y22081   4.931   4.697   7.389  1.2691  0.7363 -1.9110
  191POPC   C3522082   4.791   4.561   7.460  0.1494 -0.6477  0.3036
  191POPC   H5X22083   4.883   4.512   7.500  0.0751  0.1342  1.4814
  191POPC   H5Y22084   4.729   4.482   7.412  0.4780 -1.2142  0.7873
  191POPC   C3622085   4.697   4.641   7.557  0.4443 -0.6660  0.0545
  191POPC   H6X22086   4.607   4.648   7.493  0.8941 -0.6332 -0.5824
  191POPC   H6Y22087   4.728   4.745   7.582  1.1384 -1.0314  0.7757
  191POPC   C3722088   4.662   4.565   7.688  0.1848  0.7485 -0.6201
  191POPC   H7X22089   4.643   4.458   7.664 -0.2610  0.3404  1.4211
  191POPC   H7Y22090   4.567   4.617   7.716  1.8469  3.0642  1.1515
  191POPC   C3822091   4.763   4.578   7.815 -0.1635 -0.4408 -0.1963
  191POPC   H8X22092   4.785   4.686   7.826  1.8447 -0.5208 -2.4214
  191POPC   H8Y22093   4.860   4.527   7.797  0.4153 -0.6078  2.8584
  191POPC   C3922094   4.706   4.529   7.944 -0.0426 -0.7290 -0.0373
  191POPC   H9X22095   4.663   4.431   7.917 -1.4768 -0.5382  1.3580
  191POPC   H9Y22096   4.623   4.596   7.975  0.9607  0.2969  0.5394
  191POPC  C31022097   4.803   4.508   8.068  0.4244 -0.0543  0.7391
  191POPC  H10X22098   4.863   4.600   8.084  2.2078 -1.0576  0.1723
  191POPC  H10Y22099   4.877   4.432   8.034  0.3092  0.3366 -0.4289
  191POPC  C31122100   4.729   4.441   8.191  0.0494  0.2358  0.0093
  191POPC  H11X22101   4.681   4.347   8.156 -1.2208 -0.9203  4.2047
  191POPC  H11Y22102   4.645   4.509   8.216 -1.1668 -1.3068  0.2774
  191POPC  C31222103   4.811   4.389   8.313  0.2487  0.4936  0.9252
  191POPC  H12X22104   4.876   4.301   8.295 -0.7707  0.2719 -2.3465
  191POPC  H12Y22105   4.735   4.344   8.380  0.3488 -0.4725  0.4111
  191POPC  C31322106   4.897   4.490   8.388 -0.0801 -0.2037 -0.3081
  191POPC  H13X22107   4.961   4.549   8.320 -0.8111  2.1369  0.9055
  191POPC  H13Y22108   4.953   4.445   8.473  0.2902  0.7986 -0.0097
  191POPC  C31422109   4.813   4.601   8.458  0.2743 -0.5925 -0.0087
  191POPC  H14X22110   4.789   4.579   8.564  1.3735 -2.6379 -0.1360
  191POPC  H14Y22111   4.715   4.600   8.406  0.4909 -2.5233 -0.4809
  191POPC  C31522112   4.888   4.743   8.456  0.2565  1.3897  0.4908
  191POPC  H15X22113   4.907   4.767   8.349  3.3463 -0.3096  0.5292
  191POPC  H15Y22114   4.986   4.721   8.504 -0.7987 -1.1858  1.6862
  191POPC  C31622115   4.808   4.858   8.514  0.2453  0.8014  0.5280
  191POPC  H16X22116   4.724   4.884   8.445  1.0455 -0.5830 -1.0250
  191POPC  H16Y22117   4.876   4.945   8.524  1.8175  0.0528 -2.5343
  191POPC  H16Z22118   4.768   4.828   8.613 -2.8394  1.7438 -0.3215
  192POPC     N22119   5.482   0.191   5.775 -0.5488  0.4554 -1.0558
  192POPC   C1222120   5.475   0.307   5.876  0.1030 -0.0858  0.5727
  192POPC  H12A22121   5.381   0.358   5.863  0.1133 -0.5715 -2.0734
  192POPC  H12B22122   5.537   0.394   5.857 -2.2653  2.3925  3.2566
  192POPC   C1322123   5.618   0.123   5.797 -0.3589  0.0247 -0.5789
  192POPC  H13A22124   5.618   0.080   5.896 -1.9154  0.7657 -0.2194
  192POPC  H13B22125   5.641   0.039   5.733  0.0553 -0.9829  0.8511
  192POPC  H13C22126   5.692   0.200   5.788  0.6951 -0.8456  0.3633
  192POPC   C1422127   5.377   0.086   5.797  0.6655 -0.2463 -0.0746
  192POPC  H14A22128   5.278   0.127   5.801 -0.1066 -2.0218 -0.1116
  192POPC  H14B22129   5.371   0.012   5.718 -0.0092  1.5546 -1.7854
  192POPC  H14C22130   5.388   0.036   5.892  2.6859 -0.8886 -0.5784
  192POPC   C1522131   5.464   0.248   5.638 -0.4204 -0.2109 -0.2195
  192POPC  H15A22132   5.532   0.328   5.615 -0.6957 -0.1633 -0.9104
  192POPC  H15B22133   5.367   0.290   5.615 -0.3279 -0.6165 -1.4465
  192POPC  H15C22134   5.495   0.180   5.560  1.6575 -0.3759  0.6853
  192POPC   C1122135   5.487   0.278   6.032  0.4952  0.1780  0.2580
  192POPC  H11A22136   5.487   0.374   6.088 -0.0497 -0.0896  0.7208
  192POPC  H11B22137   5.592   0.244   6.045  1.6015  3.3821  0.5804
  192POPC     P22138   5.242   0.231   6.102  0.2718 -0.0694 -0.6313
  192POPC   O1322139   5.158   0.110   6.102  0.0003  0.1973  0.0442
  192POPC   O1422140   5.210   0.341   6.012  0.8093  0.4077 -0.4720
  192POPC   O1222141   5.387   0.184   6.072  0.1539 -0.5903 -0.3695
  192POPC   O1122142   5.238   0.298   6.244 -0.0078 -0.8264 -0.8856
  192POPC    C122143   5.327   0.276   6.349 -0.4642  0.3382 -0.3638
  192POPC    HA22144   5.319   0.357   6.425  3.1005 -1.9041  2.7203
  192POPC    HB22145   5.432   0.271   6.315  0.4258  2.5385  1.8238
  192POPC    C222146   5.287   0.144   6.417 -0.1510 -0.1256 -0.1754
  192POPC    HS22147   5.292   0.063   6.342  0.3475  1.5858 -2.0777
  192POPC   O2122148   5.148   0.146   6.459  0.0984 -0.3886  0.5152
  192POPC   C2122149   5.096   0.032   6.490  0.0303  0.0184 -1.0697
  192POPC   O2222150   5.155  -0.078   6.497  0.3291 -0.7178 -0.2018
  192POPC   C2222151   4.957   0.061   6.541 -0.4656 -0.3267 -0.2286
  192POPC   H2R22152   4.901  -0.035   6.552 -0.6266 -0.1030  1.0557
  192POPC   H2S22153   4.908   0.121   6.462  0.1011  2.3389  1.3103
  192POPC    C322154   5.381   0.119   6.531 -1.3466 -0.1478  0.3288
  192POPC    HX22155   5.477   0.094   6.482 -2.3837 -1.0455 -1.3292
  192POPC    HY22156   5.351   0.025   6.582  1.1748 -1.7085 -0.8715
  192POPC   O3122157   5.392   0.233   6.613  0.2583 -0.9478 -0.1279
  192POPC   C3122158   5.447   0.209   6.736  0.3255 -0.4179 -0.2956
  192POPC   O3222159   5.483   0.101   6.775  0.0631  0.0821 -0.3784
  192POPC   C3222160   5.457   0.336   6.821  0.5466  0.0280  0.2314
  192POPC   H2X22161   5.428   0.430   6.768 -1.9908  1.2287  3.4465
  192POPC   H2Y22162   5.565   0.347   6.846 -0.1644  0.2438  3.6628
  192POPC   C2322163   4.944   0.130   6.678 -0.2137 -0.3021  0.2488
  192POPC   H3R22164   4.835   0.149   6.694 -0.5859 -2.1081  0.0729
  192POPC   H3S22165   4.994   0.229   6.670  1.8590 -1.3567 -0.6558
  192POPC   C2422166   5.003   0.056   6.795 -0.6929 -0.4200  0.4251
  192POPC   H4R22167   5.112   0.078   6.790 -0.9241  0.4214 -2.5617
  192POPC   H4S22168   4.997  -0.053   6.774 -1.5944 -0.6188  1.6177
  192POPC   C2522169   4.933   0.083   6.928  0.0669 -0.9912 -0.3307
  192POPC   H5R22170   4.825   0.058   6.931 -0.5147  1.1318 -1.4076
  192POPC   H5S22171   4.916   0.193   6.936 -0.0565 -0.9990 -0.4815
  192POPC   C2622172   5.013   0.042   7.047 -0.1246 -0.3858  0.0833
  192POPC   H6R22173   5.119   0.073   7.048  0.4124 -1.9969 -1.5066
  192POPC   H6S22174   5.031  -0.068   7.041 -0.5287 -0.5593  1.6197
  192POPC   C2722175   4.938   0.066   7.182 -0.4102 -0.7824 -0.4987
  192POPC   H7R22176   4.855  -0.006   7.191  0.1871 -1.5308 -0.8886
  192POPC   H7S22177   4.898   0.170   7.173  1.1158 -0.3207 -2.8645
  192POPC   C2822178   5.042   0.066   7.299  0.2146  0.6151 -0.6123
  192POPC   H8R22179   5.127   0.135   7.278 -0.4625  1.5536 -0.3797
  192POPC   H8S22180   5.086  -0.035   7.302 -1.3873 -0.0819  1.1470
  192POPC   C2922181   4.959   0.091   7.422  0.2202 -0.6013 -0.2777
  192POPC   H9122182   4.857   0.123   7.395  0.2332 -0.7541 -0.5124
  192POPC  C21022183   4.993   0.086   7.554  0.0245  0.0075 -0.4334
  192POPC  H10122184   4.910   0.115   7.621 -0.1057  1.6078 -1.2242
  192POPC  C21122185   5.121   0.046   7.616 -0.1921 -0.4084  0.2949
  192POPC  H11R22186   5.124   0.087   7.719 -0.2898 -1.8385  0.8874
  192POPC  H11S22187   5.201   0.102   7.563 -1.3938  0.3140 -0.8251
  192POPC  C21222188   5.165  -0.101   7.627 -0.6729 -0.0069 -0.0896
  192POPC  H12R22189   5.207  -0.136   7.530  0.6453  0.3218  0.3438
  192POPC  H12S22190   5.084  -0.168   7.662 -0.6922  0.4866  0.8338
  192POPC  C21322191   5.286  -0.121   7.724  0.4894 -0.3117 -0.9203
  192POPC  H13R22192   5.374  -0.075   7.674  0.4167  0.8803  0.0089
  192POPC  H13S22193   5.326  -0.225   7.722 -3.2584 -1.9500 -1.0825
  192POPC  C21422194   5.265  -0.059   7.864  0.4651  0.0517  0.0872
  192POPC  H14R22195   5.162  -0.083   7.898  0.1955 -1.3831 -1.6519
  192POPC  H14S22196   5.267   0.052   7.867 -0.3389  0.0523  1.8607
  192POPC  C21522197   5.370  -0.094   7.972 -0.5679  0.2525 -0.1981
  192POPC  H15R22198   5.469  -0.050   7.945  0.9491 -2.3939  0.6876
  192POPC  H15S22199   5.392  -0.200   7.945  2.7627  0.6083  0.6406
  192POPC  C21622200   5.330  -0.058   8.116  0.1651  0.5381 -0.1194
  192POPC  H16R22201   5.222  -0.082   8.125  0.3399 -0.9534 -1.5108
  192POPC  H16S22202   5.350   0.050   8.132  0.1191  0.7558 -1.4529
  192POPC  C21722203   5.409  -0.153   8.211 -0.3893 -0.2011  0.4181
  192POPC  H17R22204   5.378  -0.260   8.209 -0.4450 -0.2294  1.6309
  192POPC  H17S22205   5.393  -0.121   8.317  3.3613  3.4418  0.1564
  192POPC  C21822206   5.561  -0.150   8.221 -0.0959 -0.6203  0.4533
  192POPC  H18R22207   5.604  -0.197   8.130 -1.7311 -1.0591 -0.1243
  192POPC  H18S22208   5.604  -0.192   8.314  1.9134 -0.7984 -0.5186
  192POPC  H18T22209   5.592  -0.044   8.209 -0.2448 -0.8434 -2.7085
  192POPC   C3322210   5.385   0.324   6.956 -0.3822  0.0371  0.6029
  192POPC   H3X22211   5.287   0.275   6.940 -0.9549  1.2613  0.2444
  192POPC   H3Y22212   5.356   0.418   7.008  0.5084 -0.4035  1.9354
  192POPC   C3422213   5.469   0.243   7.056  0.7403  0.6488  0.4449
  192POPC   H4X22214   5.572   0.283   7.065  0.8814  0.2803  0.4674
  192POPC   H4Y22215   5.471   0.138   7.022  3.9031 -0.1363  2.6571
  192POPC   C3522216   5.401   0.252   7.190  0.2715  0.2993 -0.4642
  192POPC   H5X22217   5.309   0.192   7.179  1.2194 -0.9222 -2.2856
  192POPC   H5Y22218   5.372   0.352   7.228  1.6860  0.1776  1.0807
  192POPC   C3622219   5.493   0.201   7.297 -0.1636  0.6822 -0.0215
  192POPC   H6X22220   5.593   0.248   7.286  0.0960  0.4101  1.0631
  192POPC   H6Y22221   5.496   0.090   7.292  0.8928  0.6617  0.7661
  192POPC   C3722222   5.457   0.234   7.441 -0.5921 -0.5566 -0.2651
  192POPC   H7X22223   5.359   0.183   7.450 -1.6115  0.7817 -2.7226
  192POPC   H7Y22224   5.455   0.342   7.468 -0.3631 -0.4858 -0.5253
  192POPC   C3822225   5.566   0.178   7.533  0.3657  0.1352  0.1418
  192POPC   H8X22226   5.661   0.217   7.493  0.0171 -0.4732 -1.3541
  192POPC   H8Y22227   5.560   0.067   7.528  0.2825  0.0786  1.2242
  192POPC   C3922228   5.547   0.224   7.676  0.4386 -0.0313  0.4964
  192POPC   H9X22229   5.454   0.178   7.716  0.7300 -2.0605 -0.9618
  192POPC   H9Y22230   5.539   0.334   7.681 -1.2157 -0.0883 -0.0823
  192POPC  C31022231   5.670   0.187   7.766  0.4630 -0.0285  0.7487
  192POPC  H10X22232   5.760   0.226   7.714 -0.4793  4.2348  1.9767
  192POPC  H10Y22233   5.688   0.077   7.772  1.0124  0.0108  0.0586
  192POPC  C31122234   5.644   0.238   7.908  0.2532  0.1142 -0.4380
  192POPC  H11X22235   5.568   0.176   7.960  0.1770  0.9938  0.5409
  192POPC  H11Y22236   5.607   0.342   7.899  1.4947  0.6143 -0.0554
  192POPC  C31222237   5.780   0.227   7.990  0.0624 -0.0987  0.4551
  192POPC  H12X22238   5.838   0.321   7.975  2.4894 -1.7204 -0.7959
  192POPC  H12Y22239   5.840   0.141   7.954  1.1126  1.7033 -2.4634
  192POPC  C31322240   5.753   0.244   8.135  0.0526 -0.0132 -0.3621
  192POPC  H13X22241   5.657   0.193   8.159  1.2529 -2.3560 -0.1977
  192POPC  H13Y22242   5.740   0.353   8.152  0.0759 -0.3635  2.4848
  192POPC  C31422243   5.858   0.188   8.233 -0.4343 -0.7504  0.5096
  192POPC  H14X22244   5.958   0.232   8.212 -0.3785 -1.3505 -0.5694
  192POPC  H14Y22245   5.872   0.080   8.211 -0.4870 -0.7439  0.4445
  192POPC  C31522246   5.818   0.224   8.379 -0.4855  0.1973  0.9273
  192POPC  H15X22247   5.725   0.168   8.404 -1.6435  1.4793 -0.3030
  192POPC  H15Y22248   5.795   0.332   8.390  0.7555  0.7395 -1.2333
  192POPC  C31622249   5.922   0.188   8.477  0.9127 -0.0574 -0.8089
  192POPC  H16X22250   5.910   0.229   8.580  0.9499 -0.7041 -0.5402
  192POPC  H16Y22251   6.011   0.242   8.437  0.2316  1.5031 -0.2945
  192POPC  H16Z22252   5.940   0.079   8.490  0.7788 -0.1619 -1.5029
  193SOD    SOD22253   0.902   0.300   0.166 -0.0701  0.0616 -0.2998
  194SOD    SOD22254   5.631   4.751  11.874  0.2301 -0.0035 -0.0321
  195SOD    SOD22255   6.444   0.700   3.293  0.2762  0.1827 -0.0830
  196SOD    SOD22256   4.480   6.660   4.127  0.0237  0.1974  0.1914
  197SOD    SOD22257   1.167   0.058  15.488  0.0144  0.3553 -0.4440
  198SOD    SOD22258   2.511   2.893   6.423  0.7058  0.1546 -0.1416
  199SOD    SOD22259   0.377   2.910   1.858  0.0301 -0.3606  0.0157
  200SOD    SOD22260   5.774   2.811  13.818 -0.5181 -0.3822 -0.1462
  201SOD    SOD22261   5.565   5.922  15.224 -0.2655 -0.0132  0.4070
  202SOD    SOD22262   0.130   1.781   2.596 -0.6295  0.0942 -0.1817
  203SOD    SOD22263   6.517   6.760   4.520 -0.1654  0.1838 -0.2134
  204SOD    SOD22264   1.825   2.494   0.675 -0.2322 -0.3623  0.3264
  205SOD    SOD22265   0.206   0.296   5.138  0.4186  0.0228 -0.2084
  206SOD    SOD22266   0.853   6.603  16.452  0.2259  0.0943 -0.3493
  207SOD    SOD22267   3.669   0.565  10.958  0.3782 -0.1803  0.5445
  208SOD    SOD22268   2.254   2.940  13.102 -0.3120 -0.5601  0.2805
  209SOD    SOD22269   4.398   5.898   6.561 -0.5533  0.1293 -0.8924
  210SOD    SOD22270   5.677   3.642  16.380  0.0931  0.2566 -0.4017
  211SOD    SOD22271   2.175   4.597   0.880 -0.2142 -0.7633 -0.1015
  212SOD    SOD22272   0.896   1.013   1.841 -0.0739 -0.0202  0.0183
  213SOD    SOD22273   0.600   4.322   1.175  0.2972 -0.5715  0.0048
  214SOD    SOD22274   4.296   4.762  14.346 -0.0764 -0.2582 -0.4073
  215SOD    SOD22275   3.636   2.845  11.535 -0.0655 -0.2485 -0.3137
  216SOD    SOD22276   4.093   1.865   2.327  0.3496  0.1422 -0.2676
  217SOD    SOD22277   2.072   5.127  16.244  0.2036 -0.0378  0.2063
  218SOD    SOD22278   4.852   0.919   4.626 -0.1343 -0.4729  0.3258
  219SOD    SOD22279   3.374   6.106  12.843  0.0725 -0.5984 -0.1986
  220SOD    SOD22280   4.455   1.879  11.694 -0.5517  0.0848  0.0901
  221SOD    SOD22281   1.236   3.848   6.109 -0.0257  0.2041  0.5913
  222SOD    SOD22282   2.568   5.390   1.828  0.5656  0.4905  0.0306
  223SOD    SOD22283   4.324   2.041  12.399  0.0311 -0.5627 -0.1467
  224SOD    SOD22284   5.464   2.380  11.392  0.2178 -0.2977 -0.2088
  225SOD    SOD22285   3.883   3.701   4.827 -0.5406  0.1639  0.2624
  226SOD    SOD22286   4.157   5.402   4.981 -0.0394  0.2913  0.0102
  227SOD    SOD22287   6.381   5.230   5.873 -0.2061 -0.1697 -0.0553
  228SOD    SOD22288   1.999   1.218  10.670  0.3238  0.4084  0.0711
  229SOD    SOD22289   5.049   2.522  16.621  0.0940 -1.1275  0.3940
  230SOD    SOD22290   5.355   1.311  16.369 -0.0048 -0.3809  0.5379
  231SOD    SOD22291   3.592   4.554   5.708 -0.2295  0.3982 -0.0005
  232SOD    SOD22292   6.263   3.731  16.905  0.1815 -0.1005 -0.2126
  233SOD    SOD22293   3.792   5.416  15.318  0.0626 -0.1260  0.4455
  234SOD    SOD22294   6.407   6.367   0.347 -0.3355  0.5081  0.1242
  235SOD    SOD22295   0.694   2.991  13.119  0.1753 -0.1643  0.1023
  236SOD    SOD22296   2.238   2.081  15.823  0.3996  0.5910 -0.6745
  237SOD    SOD22297   4.341   5.605   2.387  0.7582 -0.1829 -0.1702
  238SOD    SOD22298   0.242   1.842  11.400  0.3507 -0.2825 -0.6290
  239SOD    SOD22299   3.728   5.995   3.017 -0.0337 -0.1099  0.7553
  240SOD    SOD22300   1.139   5.154  14.237 -0.2971 -0.0190 -0.4054
  241SOD    SOD22301   4.680   2.347   1.135 -0.6300 -0.0068  0.1513
  242SOD    SOD22302   2.839   5.119   4.065 -0.7238  0.0070  0.3654
  243SOD    SOD22303   0.682   1.861   6.018  0.0340  0.6078 -0.1739
  244SOD    SOD22304   3.933   5.065   6.642 -0.1894 -0.3665  0.0480
  245SOD    SOD22305   0.229   4.160  16.430  0.3702 -0.4046  0.1349
  246SOD    SOD22306   2.336   4.149  11.002 -0.1643 -0.0607  0.4659
  247SOD    SOD22307   3.539   2.576  15.857 -0.2719  0.0734  0.1025
  248SOD    SOD22308   0.524   0.555   5.617 -0.5460  0.0123 -0.2610
  249SOD    SOD22309   4.732   5.104  10.805 -0.1989 -0.1503 -0.2250
  250SOD    SOD22310   1.446   2.514   6.531 -0.5590  0.1019  0.2352
  251SOD    SOD22311   6.317   4.282   1.283 -0.3445 -0.1932 -0.1727
  252SOD    SOD22312   4.518   4.218   0.037  0.2681  0.0704 -0.1591
  253SOD    SOD22313   0.240   3.953  11.926  0.0835 -0.3119  0.0821
  254SOD    SOD22314   6.736   4.063  13.210  0.1950 -0.1928  0.1547
  255SOD    SOD22315   0.405   3.788   5.759  0.2022  0.2170 -0.4356
  256SOD    SOD22316   0.827   2.362  14.474  0.2206 -0.0719  0.1023
  257SOD    SOD22317   3.102   2.288   1.236 -0.5093 -0.1987  0.3137
  258SOD    SOD22318   2.003   0.578   4.779  0.3673 -0.4720 -0.1058
  259SOD    SOD22319   1.792   3.240  11.747 -0.2618  0.0155  0.5449
  260SOD    SOD22320   2.661   5.759  10.897  0.2853 -0.1429  0.3278
  261SOD    SOD22321   5.631   1.619  11.217 -0.3639 -0.2803 -0.3988
  262SOD    SOD22322   5.447   0.788  15.584  0.3786  0.1457 -0.1040
  263SOD    SOD22323   1.103   6.078  13.675  0.1713 -0.2662 -0.1735
  264SOD    SOD22324   0.900   5.165  11.233 -0.0181  0.1826 -0.3185
  265SOD    SOD22325   4.799   5.421  15.766 -0.1909 -0.4965  0.0044
  266SOD    SOD22326   5.005   2.563  12.670  0.7631  0.0847  0.2491
  267SOD    SOD22327   6.113   5.858   1.524 -0.0065  0.4190 -0.3967
  268SOD    SOD22328   6.037   5.701   6.015  0.3123  0.3257 -0.1912
  269SOD    SOD22329   4.592   1.156   6.440 -0.1018 -0.3807 -0.4097
  270CLA    CLA22330   5.641   3.619  13.469 -0.0674 -0.0372 -0.2922
  271CLA    CLA22331   1.029   1.325  14.846  0.0525  0.2965 -0.2985
  272CLA    CLA22332   6.471   3.397   0.106  0.1600  0.0529 -0.0447
  273CLA    CLA22333   5.310   3.383  15.637  0.0646  0.1302 -0.3327
  274CLA    CLA22334   3.801   0.607   5.182  0.0050 -0.1444 -0.2044
  275CLA    CLA22335   4.479   6.348  15.625 -0.4012 -0.3632 -0.3511
  276CLA    CLA22336   5.824   3.105  16.161  0.0249 -0.2497 -0.0093
  277CLA    CLA22337   1.651   3.716  12.534  0.2919  0.3176  0.2473
  278CLA    CLA22338   4.783   2.909  17.205 -0.5491 -0.0808 -0.1978
  279CLA    CLA22339   5.333   1.181   2.688 -0.1767  0.3443  0.2694
  280CLA    CLA22340   2.357   4.800   2.458  0.3165 -0.1376 -0.1999
  281CLA    CLA22341   1.560   5.527  15.125  0.3239  0.4324 -0.3910
  282CLA    CLA22342   1.527   1.998  12.082 -0.3413  0.1764 -0.3979
  283CLA    CLA22343   6.112   3.857   0.885  0.1405  0.0907 -0.2942
  284CLA    CLA22344   4.224   6.074   2.547 -0.0289  0.2103 -0.0629
  285CLA    CLA22345   1.992   5.163  12.960 -0.2616 -0.1120  0.2221
  286CLA    CLA22346   2.009   4.340  15.058  0.2101 -0.3807 -0.1752
  287CLA    CLA22347   3.616   5.348  12.765 -0.0629 -0.0951  0.1817
  288CLA    CLA22348   6.778   2.317   1.315 -0.4399 -0.0500 -0.1676
  289CLA    CLA22349   6.085   5.809   3.141  0.0040 -0.1416  0.0716
  290CLA    CLA22350   1.697   3.417  17.293 -0.2423 -0.1439 -0.2805
  291CLA    CLA22351   5.294   6.033   5.003  0.0021  0.3649 -0.0370
  292CLA    CLA22352   1.637   0.720   3.864 -0.2361 -0.1757  0.1064
  293CLA    CLA22353   6.570   5.643   4.786 -0.0359  0.3331  0.0427
  294CLA    CLA22354   5.389   0.256   4.381  0.4233 -0.2923 -0.0461
  295CLA    CLA22355   4.438   5.327  16.089  0.5673 -0.1881 -0.1687
  296CLA    CLA22356   5.966   4.297   2.517 -0.0163  0.0818 -0.0198
  297CLA    CLA22357   0.744   0.892  12.853 -0.0067 -0.2039 -0.1803
  298CLA    CLA22358   2.776   3.916   0.705  0.0733 -0.1279  0.2510
  299CLA    CLA22359   6.602   0.486  16.035 -0.3707 -0.2169  0.0054
  300CLA    CLA22360   2.642   3.365   0.309  0.1430 -0.2993  0.0108
  301CLA    CLA22361   1.621   3.852   4.547  0.1739  0.0763 -0.2947
  302CLA    CLA22362   0.413   5.513   0.457  0.2766  0.0949  0.2329
  303CLA    CLA22363   0.893   0.963  15.240 -0.1080  0.0131 -0.5387
  304CLA    CLA22364   4.102   5.461   5.564  0.0784 -0.2028  0.2002
  305CLA    CLA22365   6.737   1.447   2.090  0.0861 -0.0756  0.1822
  306CLA    CLA22366   6.180   2.994   1.665  0.4393 -0.2025  0.0874
  307CLA    CLA22367   0.424   4.371  12.315  0.6669 -0.0339  0.0174
  308CLA    CLA22368   5.644   5.102  15.270 -0.5335 -0.1186 -0.0934
  309CLA    CLA22369   3.987   3.495  15.338  0.2739 -0.1572 -0.0301
  310CLA    CLA22370   4.541   0.044   2.033  0.2121 -0.0599  0.3764
  311CLA    CLA22371   6.375   0.501  13.538  0.0775  0.2462  0.1082
  312CLA    CLA22372   2.920   0.886   1.486 -0.1978  0.1372 -0.1970
  313CLA    CLA22373   5.377   5.922  15.423  0.0060 -0.3018 -0.2758
  314CLA    CLA22374   3.483   6.099  13.864 -0.3489  0.0076  0.7515
  315CLA    CLA22375   3.856   0.006   4.107  0.1876  0.1537 -0.0236
  316CLA    CLA22376   4.121   2.272  12.274  0.2865 -0.2286 -0.0215
  317CLA    CLA22377   1.303   0.762   0.973  0.0036 -0.1429 -0.3824
  318CLA    CLA22378   6.106   2.825  14.783 -0.2127 -0.3586  0.2765
  319CLA    CLA22379   2.863   1.778   0.423  0.0047 -0.3041 -0.4144
  320CLA    CLA22380   2.321   5.033  14.195 -0.0908  0.3050 -0.0957
  321CLA    CLA22381   0.718   3.358   1.352 -0.3689 -0.0656  0.1401
  322CLA    CLA22382   3.242   2.513   0.762 -0.2507  0.1649 -0.2260
  323TIP3   OH222383   5.994   6.561   4.397  0.0294 -0.0354  0.4051
  323TIP3    H122384   5.979   6.467   4.382 -1.2634  0.3056 -0.5569
  323TIP3    H222385   6.032   6.593   4.315  2.4750 -0.0725  1.4243
  324TIP3   OH222386   4.012   1.064  17.246  0.3639 -0.5808 -0.7650
  324TIP3    H122387   4.029   1.008  17.322  2.1827  1.4409  0.4256
  324TIP3    H222388   4.089   1.055  17.191 -0.9374 -2.0256 -2.4856
  325TIP3   OH222389   2.650   6.522  13.867  0.2683  0.5797 -0.4490
  325TIP3    H122390   2.582   6.472  13.821  0.6939  0.0979 -0.5722
  325TIP3    H222391   2.732   6.491  13.828  0.7977 -1.1755  1.8169
  326TIP3   OH222392   2.701   2.624   3.104  1.0792  0.4292  0.1040
  326TIP3    H122393   2.730   2.683   3.174  0.4234 -0.2978  1.0155
  326TIP3    H222394   2.683   2.541   3.149  0.0775  0.1198 -0.8227
  327TIP3   OH222395   1.449   3.499   1.916  0.0018 -0.2534  0.2991
  327TIP3    H122396   1.358   3.473   1.907  0.2510 -1.2479  0.4925
  327TIP3    H222397   1.454   3.541   2.002 -0.6551  1.5832 -0.5229
  328TIP3   OH222398   1.255   0.533   3.198  0.0913 -0.3367 -0.1705
  328TIP3    H122399   1.209   0.481   3.133 -1.2756  0.6627 -0.0724
  328TIP3    H222400   1.301   0.600   3.148 -2.4950  1.6368 -0.1684
  329TIP3   OH222401   1.487   3.957  15.232 -0.0167  0.0066 -0.2697
  329TIP3    H122402   1.494   3.885  15.294  1.4193  0.1947 -0.1914
  329TIP3    H222403   1.396   3.986  15.239 -0.8007 -2.2083 -0.7948
  330TIP3   OH222404   6.460   1.899  14.548 -0.3964 -0.5642 -0.0264
  330TIP3    H122405   6.550   1.911  14.517  0.1592 -1.6283  1.0602
  330TIP3    H222406   6.468   1.838  14.622 -2.0371 -0.8526 -0.0389
  331TIP3   OH222407   5.494   6.447  11.698 -0.7176 -0.0111 -0.1199
  331TIP3    H122408   5.434   6.374  11.682 -0.0875 -0.6261  0.2684
  331TIP3    H222409   5.449   6.501  11.762 -1.6318  0.4903 -1.1550
  332TIP3   OH222410   2.497   6.735   4.531  0.3476  0.0219 -0.0013
  332TIP3    H122411   2.573   6.679   4.548  1.2431  1.3114  0.3548
  332TIP3    H222412   2.457   6.748   4.618  0.2623  0.1178 -0.0543
  333TIP3   OH222413   2.648   6.309   3.043 -0.0497  0.1054  0.3859
  333TIP3    H122414   2.679   6.224   3.073 -0.8018 -0.5831 -0.7639
  333TIP3    H222415   2.598   6.291   2.964  0.1425  1.6623 -0.1268
  334TIP3   OH222416   4.162   2.694   1.273 -0.3292  0.0256  0.0467
  334TIP3    H122417   4.067   2.700   1.282 -0.1769  0.3637  1.8386
  334TIP3    H222418   4.182   2.603   1.292 -0.1845  0.3155  1.4497
  335TIP3   OH222419   0.658   5.107  15.154  1.1110 -0.6747 -0.3153
  335TIP3    H122420   0.714   5.034  15.181  0.3428 -1.2045 -0.1351
  335TIP3    H222421   0.686   5.179  15.211  1.2878 -1.0688  0.1108
  336TIP3   OH222422   3.252   6.035  15.702  0.7590 -0.4966  0.7649
  336TIP3    H122423   3.231   5.945  15.676 -0.6934  0.2707 -0.9643
  336TIP3    H222424   3.189   6.055  15.771 -2.1111  0.5826 -1.9304
  337TIP3   OH222425   4.577   4.669  16.717  0.1328  0.1045  0.3251
  337TIP3    H122426   4.560   4.613  16.792  1.2285  2.0840  2.1680
  337TIP3    H222427   4.541   4.754  16.742  1.2970  1.0402 -1.0171
  338TIP3   OH222428   2.652   2.239   4.599 -0.0903 -0.1367  0.2911
  338TIP3    H122429   2.571   2.217   4.553 -0.5458  1.8348  0.0329
  338TIP3    H222430   2.705   2.284   4.534 -0.9274  3.1272  1.6361
  339TIP3   OH222431   3.997   6.632  11.232 -0.0977  0.5005  0.5164
  339TIP3    H122432   4.070   6.693  11.219  0.6898 -0.7672 -1.7870
  339TIP3    H222433   3.936   6.653  11.161  1.5714 -3.0537 -2.3191
  340TIP3   OH222434   0.196   6.057  16.374  0.1284  0.4433  0.2680
  340TIP3    H122435   0.273   6.052  16.432  0.1499  2.3836  0.4704
  340TIP3    H222436   0.203   6.143  16.333 -1.9260  0.6333  0.2451
  341TIP3   OH222437   4.967   4.963  14.403  0.1823  0.1447 -0.0044
  341TIP3    H122438   4.887   5.014  14.419  1.1770  1.7774  0.0914
  341TIP3    H222439   4.978   4.966  14.308  0.0402 -0.2053 -0.0298
  342TIP3   OH222440   6.433   3.142   0.874 -0.8651 -0.2070  0.1216
  342TIP3    H122441   6.346   3.175   0.849 -0.9554 -0.8764 -0.4989
  342TIP3    H222442   6.439   3.159   0.967 -1.2794  0.7093 -0.0098
  343TIP3   OH222443   5.436   3.988   0.571  0.0486  0.1506 -0.2904
  343TIP3    H122444   5.476   3.917   0.621 -1.1189 -0.2207  0.1505
  343TIP3    H222445   5.506   4.054   0.563  0.5148 -0.1273  1.1229
  344TIP3   OH222446   5.194   0.170  13.123  0.3112  0.3573 -0.0986
  344TIP3    H122447   5.135   0.097  13.105  0.1985  0.4276 -0.0140
  344TIP3    H222448   5.166   0.204  13.209 -0.2474  1.0948 -0.5547
  345TIP3   OH222449   0.475   6.146   1.577 -0.0743 -0.6363  0.6466
  345TIP3    H122450   0.471   6.223   1.633  2.1847 -0.0484  0.0952
  345TIP3    H222451   0.515   6.177   1.496 -3.0385 -1.4977 -1.3313
  346TIP3   OH222452   2.612   3.894   2.372  0.7855  0.1045 -0.2200
  346TIP3    H122453   2.648   3.805   2.372 -1.0884 -0.7272  1.0787
  346TIP3    H222454   2.680   3.947   2.413  1.5987 -0.8954 -0.2287
  347TIP3   OH222455   3.841   6.215  15.427  0.0564 -0.2867 -0.1916
  347TIP3    H122456   3.887   6.135  15.401 -0.2001  0.4470 -3.3027
  347TIP3    H222457   3.790   6.240  15.350 -0.6094  2.3708  0.9898
  348TIP3   OH222458   5.742   0.014   6.062  0.1568 -0.3538  0.6675
  348TIP3    H122459   5.760   0.044   6.151 -1.0353  2.2313  0.1183
  348TIP3    H222460   5.813   0.050   6.009 -2.1472  3.3071 -0.2685
  349TIP3   OH222461   4.681   0.824   2.786  1.0153 -1.0508 -0.2553
  349TIP3    H122462   4.743   0.855   2.720  0.6880 -1.7761 -0.9254
  349TIP3    H222463   4.719   0.851   2.869  1.4008 -0.0358 -0.7356
  350TIP3   OH222464   5.211   6.516  14.765 -0.5832 -0.2299 -0.3556
  350TIP3    H122465   5.245   6.477  14.685  0.1016 -0.0171 -0.1804
  350TIP3    H222466   5.222   6.448  14.831  0.7668  0.2763 -0.0129
  351TIP3   OH222467   5.431   1.688   5.326 -0.3128 -0.3076  0.5177
  351TIP3    H122468   5.439   1.772   5.280 -1.3357  1.2687  2.9890
  351TIP3    H222469   5.337   1.671   5.329 -0.1095 -1.6642 -0.0631
  352TIP3   OH222470   5.472   6.439  15.806  0.4401 -0.1086  0.5687
  352TIP3    H122471   5.449   6.384  15.881  0.5882 -0.2717  0.4939
  352TIP3    H222472   5.498   6.378  15.738 -0.1463  0.0192  0.2265
  353TIP3   OH222473   6.695   0.525   3.897  0.1951 -0.1412 -0.5148
  353TIP3    H122474   6.783   0.552   3.872  0.9309 -1.5921  0.4017
  353TIP3    H222475   6.693   0.533   3.992 -0.8820  0.4501 -0.5624
  354TIP3   OH222476   4.909   5.685  11.431 -0.4682  0.6703 -0.3922
  354TIP3    H122477   4.984   5.704  11.375  1.7720 -0.0517  2.1329
  354TIP3    H222478   4.885   5.770  11.468  1.5693  0.4964  1.5368
  355TIP3   OH222479   0.983   2.208  12.399  0.3733  0.5229  0.0044
  355TIP3    H122480   1.041   2.134  12.414  1.3021  0.9682 -1.2329
  355TIP3    H222481   0.908   2.192  12.456  1.1471 -0.6962  0.7141
  356TIP3   OH222482   3.365   2.722  15.930 -0.5506 -0.0003 -0.4759
  356TIP3    H122483   3.322   2.665  15.994  0.3476 -1.5746 -1.2221
  356TIP3    H222484   3.299   2.737  15.862 -0.7016 -0.3596 -0.4079
  357TIP3   OH222485   4.747   5.801  13.092 -0.5659 -0.2430 -0.5380
  357TIP3    H122486   4.707   5.864  13.152 -0.4401  2.9306 -3.4024
  357TIP3    H222487   4.689   5.725  13.093 -1.5277  0.4276  2.1039
  358TIP3   OH222488   1.721   4.007  14.663 -0.0007  0.6221  0.8389
  358TIP3    H122489   1.751   4.055  14.740 -0.7877 -0.5129  1.8856
  358TIP3    H222490   1.742   3.915  14.682  0.0633  0.3496 -0.4361
  359TIP3   OH222491   4.123   5.691  15.010 -0.0194  0.2764 -0.1059
  359TIP3    H122492   4.151   5.783  15.009  1.0208 -0.0317 -0.8430
  359TIP3    H222493   4.204   5.641  15.009 -0.5280 -0.6957  2.1956
  360TIP3   OH222494   0.662   1.930  15.330 -0.6891  0.2829 -0.5648
  360TIP3    H122495   0.603   1.917  15.404 -0.6361  0.7744 -0.4359
  360TIP3    H222496   0.746   1.895  15.361 -0.8022 -0.0189 -0.5936
  361TIP3   OH222497   4.881   4.699   3.745 -0.3144 -0.4830 -0.1742
  361TIP3    H122498   4.788   4.717   3.730  0.1183  1.6322 -0.6993
  361TIP3    H222499   4.884   4.609   3.776 -2.7249  0.0483  1.8536
  362TIP3   OH222500   2.400   0.750  10.451 -0.1851  0.0873  0.9105
  362TIP3    H122501   2.435   0.728  10.537  0.1898 -2.0070  0.2897
  362TIP3    H222502   2.475   0.743  10.392 -0.7564 -0.1072  0.1901
  363TIP3   OH222503   3.287   1.854   5.842  0.4026  0.8081 -0.3594
  363TIP3    H122504   3.327   1.878   5.925  0.1687  1.2848 -0.3852
  363TIP3    H222505   3.360   1.843   5.782  0.6498 -0.5120  0.1464
  364TIP3   OH222506   4.173   2.035  14.654 -0.2063 -0.5388 -0.0137
  364TIP3    H122507   4.259   2.038  14.613  0.7633 -0.2635  1.8902
  364TIP3    H222508   4.180   1.963  14.718 -1.0881  0.0242  0.7473
  365TIP3   OH222509   2.889   0.167   5.468  0.5979 -0.6179  0.1167
  365TIP3    H122510   2.833   0.244   5.461  3.2327  1.3761 -0.6132
  365TIP3    H222511   2.927   0.157   5.381  1.4470 -1.8183  0.6020
  366TIP3   OH222512   3.185   3.507   1.217 -0.1031  0.0589  0.1929
  366TIP3    H122513   3.206   3.420   1.251 -0.7857 -0.7733 -1.4179
  366TIP3    H222514   3.143   3.491   1.133 -0.8022  1.9398  0.1298
  367TIP3   OH222515   4.456   5.198   4.635 -0.3998  0.4373 -0.6221
  367TIP3    H122516   4.493   5.238   4.714  0.2738 -2.0801  0.4351
  367TIP3    H222517   4.518   5.219   4.566  1.0242 -0.4655  0.3336
  368TIP3   OH222518   6.395   1.073  14.465 -0.0342 -0.4317 -0.4452
  368TIP3    H122519   6.411   1.152  14.414  0.2897 -0.8792 -1.0461
  368TIP3    H222520   6.460   1.010  14.434 -0.9584 -1.2755 -0.7320
  369TIP3   OH222521   1.842   1.868  14.647 -0.3292 -0.4780 -0.1947
  369TIP3    H122522   1.842   1.863  14.743  0.6181  2.7451  0.0578
  369TIP3    H222523   1.931   1.892  14.624 -0.6143 -0.9321 -1.8989
  370TIP3   OH222524   5.121   3.998  16.733 -0.1472  0.2942  0.5999
  370TIP3    H122525   5.033   4.025  16.705 -0.1837 -0.5414 -0.1611
  370TIP3    H222526   5.169   3.984  16.651  0.4088 -0.1557  0.9892
  371TIP3   OH222527   5.285   3.737   1.621 -0.0727  0.2520 -0.8641
  371TIP3    H122528   5.284   3.764   1.529 -0.4687 -0.7444 -1.1662
  371TIP3    H222529   5.225   3.798   1.665  0.0768  0.6973 -1.2707
  372TIP3   OH222530   0.904   2.993  13.222 -0.1937 -0.5973  0.0453
  372TIP3    H122531   0.997   2.998  13.241 -0.1448  0.6833 -0.4208
  372TIP3    H222532   0.862   2.983  13.307  0.4209 -2.7347  0.1530
  373TIP3   OH222533   2.415   6.406   1.865 -0.2284  0.0842 -0.2619
  373TIP3    H122534   2.453   6.455   1.938 -1.5517  0.5547  0.1474
  373TIP3    H222535   2.396   6.473   1.799  1.1685 -0.3693 -1.1502
  374TIP3   OH222536   5.659   3.539  16.834  0.5893 -0.1287 -0.2757
  374TIP3    H122537   5.627   3.461  16.879  0.6844  0.6461  1.1816
  374TIP3    H222538   5.694   3.595  16.903  0.9029  1.0396 -1.3305
  375TIP3   OH222539   6.764   2.034  15.236 -0.0738 -0.4805  0.3611
  375TIP3    H122540   6.809   2.118  15.222  0.4037 -1.0738 -2.1306
  375TIP3    H222541   6.732   2.039  15.326  0.8099  1.9581  0.6220
  376TIP3   OH222542   0.325   5.205  11.737 -0.4119  0.0855  0.2474
  376TIP3    H122543   0.230   5.191  11.744 -0.5372  0.3617 -0.7188
  376TIP3    H222544   0.361   5.119  11.718 -0.4903  0.0193  0.3938
  377TIP3   OH222545   1.950   2.131   4.733 -0.2214  0.4155  0.1677
  377TIP3    H122546   1.901   2.208   4.705  1.4366  1.4387 -0.0434
  377TIP3    H222547   1.956   2.076   4.654  2.7095  2.3603 -1.1247
  378TIP3   OH222548   2.516   5.290   0.546  0.1609  0.3213  0.3379
  378TIP3    H122549   2.498   5.197   0.551  0.7746  0.0295 -1.7861
  378TIP3    H222550   2.471   5.320   0.467  0.0226  1.8126  0.9428
  379TIP3   OH222551   3.527   2.361  13.819  0.0266 -0.1746 -0.0231
  379TIP3    H122552   3.589   2.429  13.845 -0.2604  0.5312 -1.1262
  379TIP3    H222553   3.547   2.344  13.726 -1.1169 -0.2633 -0.2726
  380TIP3   OH222554   6.049   4.877   5.126  0.7352  0.0505 -0.1614
  380TIP3    H122555   6.091   4.862   5.041  0.6056 -2.1223  0.1092
  380TIP3    H222556   6.117   4.859   5.190  1.0397  2.3582  0.2678
  381TIP3   OH222557   4.254   1.475  14.382  0.3182  0.2450  0.5439
  381TIP3    H122558   4.346   1.476  14.407  0.5972  1.9772 -0.4431
  381TIP3    H222559   4.207   1.493  14.464  0.6319 -2.9198  1.5601
  382TIP3   OH222560   3.827   5.637  17.263  0.6040 -0.5650  0.1795
  382TIP3    H122561   3.818   5.614  17.170  0.6246  0.1521 -0.0071
  382TIP3    H222562   3.769   5.712  17.274 -0.6838 -1.6403  1.1408
  383TIP3   OH222563   0.335   2.721  12.735 -0.2980  0.2237 -0.3052
  383TIP3    H122564   0.265   2.775  12.771 -1.2439 -1.7843  1.0268
  383TIP3    H222565   0.293   2.670  12.666  0.0073 -0.5225  0.0595
  384TIP3   OH222566   4.381   5.602  14.963 -0.0718 -0.3208  0.1286
  384TIP3    H122567   4.403   5.682  15.011  1.7451 -0.4467 -0.3981
  384TIP3    H222568   4.461   5.549  14.967 -1.1801 -2.0579  0.3231
  385TIP3   OH222569   3.066   3.309  16.728 -0.4783 -0.2294 -0.1013
  385TIP3    H122570   3.023   3.394  16.713 -2.6156 -1.3734 -0.8293
  385TIP3    H222571   3.064   3.266  16.643 -2.3058 -2.2433  0.8839
  386TIP3   OH222572   5.774   2.672  10.764  0.4870  0.2199  0.3509
  386TIP3    H122573   5.858   2.703  10.729  0.1225  0.4542 -0.3501
  386TIP3    H222574   5.745   2.742  10.822  1.2989 -0.3569  1.4816
  387TIP3   OH222575   2.914   0.857   2.261  0.0052 -0.1320 -0.4692
  387TIP3    H122576   2.930   0.950   2.245 -0.1964 -0.4709 -3.1030
  387TIP3    H222577   2.819   0.846   2.251 -0.0105 -0.5937  0.1029
  388TIP3   OH222578   3.136   4.290   5.086  0.0234 -0.2801 -0.6302
  388TIP3    H122579   3.079   4.267   5.013 -0.3992  0.8354 -0.6554
  388TIP3    H222580   3.193   4.358   5.052  0.8209 -0.7917 -0.3509
  389TIP3   OH222581   6.593   0.630  15.020 -0.1014 -0.4808  0.1998
  389TIP3    H122582   6.591   0.726  15.026 -0.1901 -0.5105  0.7680
  389TIP3    H222583   6.502   0.604  15.034  0.1640 -0.7141  1.6172
  390TIP3   OH222584   1.047   4.406  12.503 -0.1213 -0.2818 -0.2550
  390TIP3    H122585   1.112   4.476  12.503 -0.0436 -0.3449 -0.9388
  390TIP3    H222586   1.079   4.345  12.436 -0.6657 -0.5207 -0.2979
  391TIP3   OH222587   0.060   3.499  16.943  0.2664  0.0630 -0.3289
  391TIP3    H122588   0.138   3.552  16.962 -0.5402  1.1258  0.1126
  391TIP3    H222589   0.005   3.509  17.021  0.3399 -1.9497  0.0408
  392TIP3   OH222590   4.123   0.587   3.940 -0.1980 -0.4355 -0.1757
  392TIP3    H122591   4.085   0.577   4.028  0.8784 -0.7374  0.2697
  392TIP3    H222592   4.059   0.545   3.882 -0.4940 -1.0571  0.5720
  393TIP3   OH222593   3.690   1.973   2.005 -0.8310  0.4758 -0.3057
  393TIP3    H122594   3.721   2.026   2.078 -0.6876 -1.3685  1.0485
  393TIP3    H222595   3.708   2.026   1.927  0.1950  1.9561  0.8850
  394TIP3   OH222596   4.951   0.794  11.614 -0.4258 -0.1183  0.1831
  394TIP3    H122597   5.039   0.788  11.651 -1.1309 -2.1195  1.8008
  394TIP3    H222598   4.949   0.728  11.545 -0.3393  0.6899 -0.5947
  395TIP3   OH222599   0.758   3.138  12.947  0.3190 -0.1833  0.5944
  395TIP3    H122600   0.734   3.132  12.855  1.8321  1.4808  0.0299
  395TIP3    H222601   0.851   3.162  12.946  0.2635  0.2686  2.5394
  396TIP3   OH222602   4.560   6.718  11.184 -0.1483  0.3270 -0.4478
  396TIP3    H122603   4.533   6.802  11.145  0.7654  0.1742 -1.4672
  396TIP3    H222604   4.614   6.677  11.117  0.5462 -0.4809  0.5783
  397TIP3   OH222605   2.627   4.632   5.853 -0.2036 -0.3445  0.2514
  397TIP3    H122606   2.648   4.679   5.933 -0.2745 -0.5926  0.4171
  397TIP3    H222607   2.568   4.689   5.805 -1.4301 -0.8647  1.0998
  398TIP3   OH222608   4.606   4.487  12.631  0.1959  0.3967 -0.2576
  398TIP3    H122609   4.584   4.570  12.671 -0.3392  0.4446 -0.6436
  398TIP3    H222610   4.673   4.509  12.566 -0.1212  0.5624 -0.5290
  399TIP3   OH222611   1.635   4.574  13.407 -0.1109 -0.6478 -0.1941
  399TIP3    H122612   1.668   4.640  13.346  0.7603 -0.2886  0.6385
  399TIP3    H222613   1.540   4.572  13.392 -0.1163  0.6174 -0.4012
  400TIP3   OH222614   4.063   4.366   3.366 -0.3895  0.3701  0.2465
  400TIP3    H122615   4.151   4.331   3.381 -0.9280 -1.7049 -1.0768
  400TIP3    H222616   4.077   4.461   3.357  1.4346  0.3139  1.7411
  401TIP3   OH222617   6.208   6.687  17.209  0.4862  0.0524 -0.5259
  401TIP3    H122618   6.130   6.633  17.195 -0.5718  1.0684  1.1468
  401TIP3    H222619   6.211   6.745  17.133  0.8512 -1.3833 -1.6548
  402TIP3   OH222620   4.610   4.392   5.468  0.1306 -0.2241 -0.6869
  402TIP3    H122621   4.520   4.421   5.461  0.2760  0.3524 -0.2209
  402TIP3    H222622   4.631   4.400   5.561  0.6595 -0.3666 -0.7888
  403TIP3   OH222623   0.548   0.521  16.757 -0.5317 -0.0439  0.0439
  403TIP3    H122624   0.549   0.437  16.803 -2.8370 -1.2713 -1.9249
  403TIP3    H222625   0.493   0.578  16.811 -1.2495 -0.7072  0.0180
  404TIP3   OH222626   2.359   5.703   2.167  0.1691  0.2083  0.0902
  404TIP3    H122627   2.266   5.725   2.160 -0.0507 -0.8636 -0.6170
  404TIP3    H222628   2.403   5.764   2.108 -0.2392 -0.1082 -0.5534
  405TIP3   OH222629   0.870   2.290   4.924 -0.5699  0.2705 -0.6044
  405TIP3    H122630   0.838   2.260   4.839  1.3275 -0.6048 -1.0702
  405TIP3    H222631   0.910   2.375   4.906  3.1513 -1.4462 -1.5178
  406TIP3   OH222632   5.144   3.448   0.923 -0.4112 -0.3594  0.2932
  406TIP3    H122633   5.099   3.495   0.993  0.7414  0.6007  0.4224
  406TIP3    H222634   5.232   3.486   0.921 -0.7152  0.4849 -2.4193
  407TIP3   OH222635   4.659   2.434  16.131 -0.4024  0.0908 -0.3182
  407TIP3    H122636   4.674   2.429  16.037 -2.2743 -2.3089 -0.5878
  407TIP3    H222637   4.567   2.460  16.140 -0.5154 -0.6248  0.7917
  408TIP3   OH222638   3.085   3.332  16.140  0.6032 -0.2707  0.4132
  408TIP3    H122639   3.012   3.271  16.144 -0.9706  1.5794  1.2114
  408TIP3    H222640   3.045   3.418  16.127  2.6805  0.7233  0.1177
  409TIP3   OH222641   5.294   4.554   3.371  0.1535 -0.1874 -0.3543
  409TIP3    H122642   5.387   4.538   3.392  0.1310 -0.4792 -0.4686
  409TIP3    H222643   5.257   4.586   3.453  0.1887 -0.8064 -0.0864
  410TIP3   OH222644   5.763   1.592  15.998  0.4762  0.1456  0.2683
  410TIP3    H122645   5.823   1.527  16.035 -0.6745  1.2037  4.6719
  410TIP3    H222646   5.819   1.652  15.949  2.5925 -0.5152  1.7433
  411TIP3   OH222647   6.638   5.951   6.186 -0.0739 -0.3349 -0.3111
  411TIP3    H122648   6.698   5.900   6.131 -1.0682 -1.9035 -0.0038
  411TIP3    H222649   6.687   5.964   6.268  1.0751  1.2744 -1.1932
  412TIP3   OH222650   6.343   0.923   2.460 -0.4544  0.1194 -0.3272
  412TIP3    H122651   6.434   0.933   2.432  0.0909  0.2705  1.4366
  412TIP3    H222652   6.323   0.831   2.443 -0.1880  0.2178 -1.2590
  413TIP3   OH222653   6.599   0.799   1.486 -0.5911 -0.4987  0.1318
  413TIP3    H122654   6.686   0.785   1.448 -0.0072 -0.7173  1.4993
  413TIP3    H222655   6.558   0.864   1.429  0.8112  0.2782 -0.0106
  414TIP3   OH222656   0.200   6.706   3.149 -0.5402 -0.1569  0.0056
  414TIP3    H122657   0.113   6.680   3.180  0.2752  0.0926  2.7662
  414TIP3    H222658   0.247   6.731   3.228  1.8062  0.5209 -1.5028
  415TIP3   OH222659   5.953   4.955   6.034  0.2726 -0.0185  0.0778
  415TIP3    H122660   5.949   5.048   6.012 -0.4317  0.0888  0.6052
  415TIP3    H222661   5.991   4.953   6.122  3.1009 -0.4406 -1.0351
  416TIP3   OH222662   0.691   2.454  13.698  0.2474 -0.6938 -0.3430
  416TIP3    H122663   0.620   2.414  13.648 -0.1220 -1.0176  0.4266
  416TIP3    H222664   0.760   2.387  13.698  0.6699 -0.2840 -1.3013
  417TIP3   OH222665   6.013   0.649   4.619 -0.2069  0.3722 -0.7110
  417TIP3    H122666   6.020   0.578   4.554 -0.5410 -1.5188  1.1963
  417TIP3    H222667   5.920   0.674   4.616  0.2738  2.1525 -2.7296
  418TIP3   OH222668   1.137   4.217  12.244  0.2641  0.2363  0.2409
  418TIP3    H122669   1.094   4.157  12.305  0.3878  1.0146  1.1172
  418TIP3    H222670   1.230   4.206  12.261  0.2717  1.1763  0.9366
  419TIP3   OH222671   1.133   4.886   3.220 -0.1078 -0.1242 -0.1175
  419TIP3    H122672   1.096   4.960   3.171 -1.7326 -0.1721  0.9709
  419TIP3    H222673   1.209   4.923   3.265 -1.0806  0.9840  0.6664
  420TIP3   OH222674   6.720   3.448  16.409 -0.4017  0.1096 -0.8735
  420TIP3    H122675   6.731   3.513  16.339 -0.0130  0.4004 -0.5440
  420TIP3    H222676   6.703   3.499  16.488 -0.9005 -0.2210 -0.7589
  421TIP3   OH222677   2.657   5.831   2.828  0.3531  0.0177  0.1261
  421TIP3    H122678   2.735   5.864   2.784 -0.3534 -0.2673 -1.4263
  421TIP3    H222679   2.595   5.812   2.757 -1.2129  0.4213  1.3098
  422TIP3   OH222680   3.340   4.555  14.889  0.3704  0.0403  0.4154
  422TIP3    H122681   3.414   4.513  14.845  1.4845  0.4797  1.7744
  422TIP3    H222682   3.378   4.593  14.968 -1.3313  0.2665  1.1716
  423TIP3   OH222683   0.303   1.702   4.435 -0.3088  0.3127  0.1902
  423TIP3    H122684   0.347   1.697   4.519  0.1521  2.7504  0.1697
  423TIP3    H222685   0.255   1.785   4.438 -2.3060 -0.7278 -1.0229
  424TIP3   OH222686   5.001   1.226   4.231  0.2528  0.4956  0.0842
  424TIP3    H122687   4.964   1.291   4.291  1.3255  0.0782  1.2166
  424TIP3    H222688   5.095   1.239   4.235  0.6436 -2.1323  1.5620
  425TIP3   OH222689   1.031   2.006   4.776  0.2991 -0.0935 -0.2634
  425TIP3    H122690   1.099   2.069   4.800  1.2125 -1.0145 -0.3750
  425TIP3    H222691   1.030   2.006   4.680  0.7869 -0.7387 -0.2761
  426TIP3   OH222692   2.992   2.081   1.195 -0.0042 -0.2959  0.4716
  426TIP3    H122693   3.007   2.029   1.273  1.4599 -1.5572 -0.5849
  426TIP3    H222694   2.951   2.020   1.133 -1.4214  0.7573  0.3025
  427TIP3   OH222695   2.305   0.527   5.152 -0.4792  0.1609  0.3366
  427TIP3    H122696   2.282   0.539   5.244 -2.8929  0.4637 -0.2472
  427TIP3    H222697   2.326   0.434   5.144 -2.8222 -0.4585  0.7326
  428TIP3   OH222698   3.718   0.564   3.320 -0.3870 -0.1405 -0.2541
  428TIP3    H122699   3.773   0.622   3.373 -0.4214  0.4673 -0.8732
  428TIP3    H222700   3.654   0.529   3.382 -0.1805  0.2481  0.1883
  429TIP3   OH222701   3.665   0.957  11.902 -0.5446 -0.4613 -0.1346
  429TIP3    H122702   3.677   0.998  11.988 -1.1243 -0.6256  0.0307
  429TIP3    H222703   3.722   1.007  11.844 -0.0904 -0.3946  0.3591
  430TIP3   OH222704   3.914   5.095  16.652  0.5198 -0.0641  0.3687
  430TIP3    H122705   3.949   5.183  16.643 -0.2167  0.1531 -0.5489
  430TIP3    H222706   3.905   5.082  16.747 -1.3912  1.6904  0.5130
  431TIP3   OH222707   0.676   5.638  12.348 -0.0514  0.2009 -0.4128
  431TIP3    H122708   0.719   5.555  12.327 -1.3059 -1.2974  2.3702
  431TIP3    H222709   0.742   5.688  12.396  0.7037  0.8951 -2.0881
  432TIP3   OH222710   3.032   2.905  14.926 -0.1841  0.5802 -0.1920
  432TIP3    H122711   3.096   2.927  14.858  0.5393  0.5024  0.4394
  432TIP3    H222712   2.995   2.989  14.952 -0.5351  0.6004 -0.7450
  433TIP3   OH222713   1.320   3.588   1.582 -0.0448  0.3905  0.4080
  433TIP3    H122714   1.391   3.633   1.536 -0.0240  1.3207  1.3143
  433TIP3    H222715   1.341   3.495   1.573 -0.1279  0.5301 -1.5711
  434TIP3   OH222716   4.756   2.640   4.770 -0.1854 -0.2174 -0.5711
  434TIP3    H122717   4.852   2.635   4.776 -0.2312 -0.4187  0.1210
  434TIP3    H222718   4.738   2.728   4.739  0.2435 -0.3608 -1.2516
  435TIP3   OH222719   4.528   0.541  11.885  0.0060  0.3759  0.1898
  435TIP3    H122720   4.553   0.488  11.809 -1.1385 -0.0804  0.1179
  435TIP3    H222721   4.494   0.478  11.948 -0.1703  0.8916  0.6166
  436TIP3   OH222722   3.524   1.051   1.279  0.8580 -0.4760 -0.2016
  436TIP3    H122723   3.498   0.983   1.217 -1.6156  3.0051 -3.4146
  436TIP3    H222724   3.469   1.036   1.356 -0.3633 -1.5108 -1.2340
  437TIP3   OH222725   0.229   3.437   4.254  0.2439 -0.4924 -0.4449
  437TIP3    H122726   0.229   3.531   4.270  1.4989 -0.6366  0.5232
  437TIP3    H222727   0.136   3.412   4.256 -0.0742  0.6529 -0.3455
  438TIP3   OH222728   1.099   6.198  16.003 -0.5466  0.3611 -0.2035
  438TIP3    H122729   1.060   6.133  15.945  0.2161 -0.2946 -0.0105
  438TIP3    H222730   1.182   6.220  15.960  0.6839 -1.1528  1.2647
  439TIP3   OH222731   4.522   3.661  17.088 -0.0663  0.4533 -0.2075
  439TIP3    H122732   4.429   3.657  17.112 -0.2947 -0.9708 -1.1813
  439TIP3    H222733   4.533   3.592  17.023  1.9777 -0.3095  0.8458
  440TIP3   OH222734   6.757   5.822   4.967  0.7885  0.1161  0.0600
  440TIP3    H122735   6.716   5.905   4.941  1.1386  0.2438 -0.0954
  440TIP3    H222736   6.717   5.756   4.911  0.5957  0.1974  0.1013
  441TIP3   OH222737   0.590   6.694   5.358 -0.2432  0.1008 -0.0505
  441TIP3    H122738   0.582   6.779   5.315 -0.7741  1.2851  2.2207
  441TIP3    H222739   0.504   6.653   5.346 -0.1384  0.0764 -0.7497
  442TIP3   OH222740   6.740   0.253  16.212  0.1964  0.4173 -0.3683
  442TIP3    H122741   6.780   0.337  16.236 -0.8589  0.8915 -0.2260
  442TIP3    H222742   6.654   0.276  16.178 -0.5802 -0.6730  0.7442
  443TIP3   OH222743   1.817   0.695  15.802 -0.2467 -0.8206  0.1531
  443TIP3    H122744   1.793   0.751  15.728 -1.4867 -4.1237 -2.1803
  443TIP3    H222745   1.741   0.699  15.860 -0.0294  0.3661  0.3925
  444TIP3   OH222746   5.156   5.010   5.107 -0.2620 -0.4667 -0.0828
  444TIP3    H122747   5.196   5.094   5.086 -0.2403 -0.6219 -0.6751
  444TIP3    H222748   5.081   5.003   5.047  0.3979 -1.3637 -0.8282
  445TIP3   OH222749   1.937   2.793  15.716 -0.8578 -0.1054  0.3968
  445TIP3    H122750   1.989   2.840  15.651 -1.4661 -1.7027 -1.3276
  445TIP3    H222751   1.930   2.854  15.790  1.7351  0.9206 -0.1089
  446TIP3   OH222752   4.928   3.204  14.549  1.2837  0.4858 -0.7449
  446TIP3    H122753   4.908   3.160  14.466  0.7292 -1.2924  0.2903
  446TIP3    H222754   5.019   3.179  14.568  0.8834 -0.4769 -0.0242
  447TIP3   OH222755   1.432   0.555   2.878 -0.4452 -0.2642  0.4994
  447TIP3    H122756   1.523   0.552   2.907  0.4126  1.2883 -1.7751
  447TIP3    H222757   1.390   0.619   2.935  0.1629 -0.1785  0.8587
  448TIP3   OH222758   5.265   4.437  14.574  0.2878  0.1054 -0.2317
  448TIP3    H122759   5.332   4.469  14.514  0.4409  1.6007  0.6863
  448TIP3    H222760   5.190   4.417  14.519  0.9041  0.0662 -1.0710
  449TIP3   OH222761   3.575   0.899   4.547 -0.5634  0.0262 -0.2978
  449TIP3    H122762   3.531   0.984   4.540  1.1236  0.8982 -0.8870
  449TIP3    H222763   3.552   0.853   4.466 -0.2179  0.5772 -0.7144
  450TIP3   OH222764   6.764   4.518   2.291  0.0933 -0.2829 -0.0597
  450TIP3    H122765   6.828   4.452   2.319  0.3295  0.1541  0.4548
  450TIP3    H222766   6.814   4.578   2.236  0.3673  0.5855  1.1018
  451TIP3   OH222767   3.310   0.882   2.585 -0.1453  0.8029  0.5270
  451TIP3    H122768   3.395   0.855   2.549 -0.3165  2.1455 -1.0129
  451TIP3    H222769   3.248   0.819   2.548 -0.2130  1.7145 -1.0073
  452TIP3   OH222770   2.600   4.613  12.902  0.1022  0.4313  0.2281
  452TIP3    H122771   2.642   4.660  12.830 -1.4867  1.2467 -0.2262
  452TIP3    H222772   2.550   4.543  12.859 -2.9972  2.5088  0.1597
  453TIP3   OH222773   0.337   5.288   0.088 -0.1449  0.2115  0.0309
  453TIP3    H122774   0.294   5.208   0.058 -0.4225  0.6140 -0.6550
  453TIP3    H222775   0.339   5.345   0.012  3.0240 -0.3563 -0.4292
  454TIP3   OH222776   0.804   2.560  12.823  0.1036  0.0816  0.8322
  454TIP3    H122777   0.766   2.495  12.764 -1.6471  1.1499  0.7086
  454TIP3    H222778   0.834   2.630  12.765 -1.3091  0.9806  1.1494
  455TIP3   OH222779   6.763   3.069  16.724 -0.3550  0.1246  0.0855
  455TIP3    H122780   6.810   3.003  16.775 -1.8667 -0.4221  0.8464
  455TIP3    H222781   6.807   3.151  16.743  2.2534 -0.7296 -1.6937
  456TIP3   OH222782   0.887   1.426  16.367  0.0245  0.7872  0.7803
  456TIP3    H122783   0.983   1.427  16.367  0.0784 -0.4502 -0.3848
  456TIP3    H222784   0.864   1.333  16.372 -1.1511  1.1181  2.1229
  457TIP3   OH222785   0.577   3.169   4.205  0.2630 -0.1789  0.1344
  457TIP3    H122786   0.571   3.234   4.135  0.8032 -1.5630 -1.2422
  457TIP3    H222787   0.525   3.206   4.276  0.2275  1.5635 -0.7503
  458TIP3   OH222788   1.297   0.582  13.848 -0.1953  0.4668  0.1964
  458TIP3    H122789   1.210   0.604  13.879 -0.4208 -0.9507  0.6397
  458TIP3    H222790   1.291   0.490  13.822  0.8127  0.7380 -1.0729
  459TIP3   OH222791   1.824   1.906   5.898 -0.0473 -0.2326 -0.4011
  459TIP3    H122792   1.848   1.909   5.991  0.6750 -1.8923 -0.4928
  459TIP3    H222793   1.761   1.834   5.892 -0.3387  0.0772 -1.1588
  460TIP3   OH222794   4.089   6.119  13.931  0.1404 -0.4248  0.3883
  460TIP3    H122795   4.152   6.088  13.865  1.0885 -0.4615  1.2849
  460TIP3    H222796   4.124   6.088  14.014  0.1748  1.5228  1.1472
  461TIP3   OH222797   0.938   6.248  14.928  0.3629 -0.3397 -0.7558
  461TIP3    H122798   0.848   6.279  14.912  0.0340 -0.4678  0.7317
  461TIP3    H222799   0.936   6.156  14.904  0.2542 -0.2161 -1.2469
  462TIP3   OH222800   3.923   2.104   3.248  0.0925  0.1061  0.6370
  462TIP3    H122801   3.932   2.057   3.331 -1.0723 -0.7234  0.3221
  462TIP3    H222802   3.991   2.066   3.192  0.0408 -0.2548  0.8099
  463TIP3   OH222803   3.700   6.003   3.587  0.2172 -0.3220  0.6545
  463TIP3    H122804   3.669   5.924   3.542  0.7246 -0.9270  1.3351
  463TIP3    H222805   3.626   6.063   3.585  0.0699 -0.5065 -0.5680
  464TIP3   OH222806   2.816   0.279  15.613 -0.7912  0.4030 -0.5060
  464TIP3    H122807   2.781   0.211  15.671  0.9739 -1.2564 -1.2939
  464TIP3    H222808   2.782   0.257  15.527  1.4088 -0.7784 -1.1439
  465TIP3   OH222809   3.816   0.016   3.048  0.2695 -0.2054 -0.3478
  465TIP3    H122810   3.899   0.064   3.038 -0.6918  1.9844  1.2862
  465TIP3    H222811   3.792  -0.010   2.960  2.3983 -0.4281 -0.9282
  466TIP3   OH222812   1.471   5.779   1.050 -0.2062  0.0407  0.1248
  466TIP3    H122813   1.406   5.812   1.111  1.3378  0.0897  1.8137
  466TIP3    H222814   1.533   5.730   1.104  1.2737  0.1430 -1.3785
  467TIP3   OH222815   2.640   3.936   5.279 -0.1228 -0.3028 -0.9290
  467TIP3    H122816   2.623   4.021   5.321  1.5984  0.9521 -2.5972
  467TIP3    H222817   2.557   3.889   5.286 -1.4221  1.8801 -0.7483
  468TIP3   OH222818   6.088   6.434   2.892 -0.2739  0.2176 -0.3537
  468TIP3    H122819   6.138   6.394   2.821  1.0137 -0.4771  0.9111
  468TIP3    H222820   6.120   6.524   2.896 -0.8760  0.4848 -1.0887
  469TIP3   OH222821   5.255   5.994  16.462 -0.1195 -0.3792 -0.4922
  469TIP3    H122822   5.163   5.978  16.441 -0.5954  0.4602  0.9093
  469TIP3    H222823   5.254   6.042  16.544  1.5872 -0.5247 -0.3459
  470TIP3   OH222824   2.169   4.675  11.821  0.2180  0.0883 -0.0216
  470TIP3    H122825   2.109   4.647  11.890  1.1601 -1.2941  0.2637
  470TIP3    H222826   2.215   4.750  11.859 -0.4435  0.3954  0.2010
  471TIP3   OH222827   1.165   2.289   6.083 -0.3882 -0.0556  0.0980
  471TIP3    H122828   1.086   2.344   6.083  0.7484  1.6847  1.7508
  471TIP3    H222829   1.235   2.348   6.108  0.9239 -2.2691  2.0049
  472TIP3   OH222830   0.962   5.192  15.221 -0.4060  0.2374 -0.2517
  472TIP3    H122831   0.937   5.212  15.311  1.2089  0.1309  0.2493
  472TIP3    H222832   0.939   5.270  15.171 -1.8252  0.0902  0.1283
  473TIP3   OH222833   3.481   1.350  11.548  0.0932  0.0697 -0.1402
  473TIP3    H122834   3.387   1.331  11.553  0.1280 -0.4985 -1.3110
  473TIP3    H222835   3.485   1.445  11.535 -0.4086 -0.0785 -1.6185
  474TIP3   OH222836   0.353   4.069   1.561 -0.4827  0.2013 -0.4161
  474TIP3    H122837   0.265   4.093   1.591  0.3525  0.4977  1.9947
  474TIP3    H222838   0.411   4.134   1.601  0.9845 -0.9128 -0.6478
  475TIP3   OH222839   1.857   6.443   5.664 -0.1807 -0.4627  0.3759
  475TIP3    H122840   1.919   6.510   5.692 -1.2932  1.1006 -0.7038
  475TIP3    H222841   1.844   6.388   5.741  1.3964  0.0506  1.0482
  476TIP3   OH222842   1.507   6.665   3.048 -0.2022  0.6764 -0.1399
  476TIP3    H122843   1.498   6.614   3.129  0.0097  1.4870  0.4089
  476TIP3    H222844   1.601   6.677   3.038 -0.1673 -0.1928 -1.0192
  477TIP3   OH222845   0.922   2.353   2.251 -0.1635 -0.0806 -0.3588
  477TIP3    H122846   0.913   2.373   2.344 -0.4620  1.0306 -0.6027
  477TIP3    H222847   0.953   2.263   2.248 -0.8843 -0.3903  0.8015
  478TIP3   OH222848   4.283   6.209  15.834 -0.0226  0.0294  0.2456
  478TIP3    H122849   4.352   6.254  15.785 -0.6083  0.8718  0.1935
  478TIP3    H222850   4.330   6.165  15.905  0.4044  2.0192  1.2502
  479TIP3   OH222851   3.084   2.854   3.764 -0.7417 -0.6936  0.3176
  479TIP3    H122852   3.032   2.863   3.685 -1.3977 -1.8402  0.5971
  479TIP3    H222853   3.070   2.763   3.791 -0.2587 -0.4107  1.5558
  480TIP3   OH222854   5.461   3.484   3.862 -0.8162 -0.4181  0.0426
  480TIP3    H122855   5.464   3.496   3.957 -1.4173  2.1959 -0.1811
  480TIP3    H222856   5.526   3.546   3.828 -2.8466  1.0730 -1.3482
  481TIP3   OH222857   1.247   2.211  13.743 -0.2389  0.0338 -0.7651
  481TIP3    H122858   1.237   2.272  13.671 -2.7922 -1.2865 -1.6375
  481TIP3    H222859   1.216   2.127  13.709 -2.1607 -0.5206  1.9981
  482TIP3   OH222860   1.243   3.929   0.549  0.2354  0.2391 -0.0241
  482TIP3    H122861   1.259   3.852   0.495 -0.1453 -1.4064  2.0594
  482TIP3    H222862   1.149   3.926   0.568  0.2099  1.2397  0.0460
  483TIP3   OH222863   4.215   1.942  15.436 -0.1899 -0.2184 -0.4681
  483TIP3    H122864   4.202   1.863  15.489  0.9467 -0.2003 -0.1309
  483TIP3    H222865   4.155   2.006  15.473  0.6832 -0.1638  0.9398
  484TIP3   OH222866   5.165   0.301  16.391 -0.6274 -0.5924 -0.0222
  484TIP3    H122867   5.113   0.381  16.378 -1.5847 -0.9342  1.4440
  484TIP3    H222868   5.182   0.269  16.302 -2.6444 -0.2469 -0.5976
  485TIP3   OH222869   2.143   3.651  14.671  0.2302 -0.4211 -0.0096
  485TIP3    H122870   2.173   3.741  14.663 -0.6577 -0.1789 -0.8432
  485TIP3    H222871   2.064   3.647  14.617  1.1626 -2.1274 -1.3543
  486TIP3   OH222872   6.127   3.649   3.551 -0.0871 -0.1522  0.1433
  486TIP3    H122873   6.214   3.632   3.589 -0.4986  0.4439  1.3895
  486TIP3    H222874   6.070   3.584   3.593 -0.3457 -0.2073 -0.2926
  487TIP3   OH222875   6.665   1.254  12.002 -0.1783  0.5069 -0.3830
  487TIP3    H122876   6.729   1.218  12.063 -0.4920 -0.4855 -0.6333
  487TIP3    H222877   6.593   1.283  12.058 -0.7388 -0.9640 -0.3000
  488TIP3   OH222878   5.241   1.455   2.437 -0.5193  0.0622  0.6537
  488TIP3    H122879   5.266   1.482   2.525 -0.4640 -0.0933  0.6851
  488TIP3    H222880   5.184   1.379   2.450 -1.6830  0.8851  0.6293
  489TIP3   OH222881   5.709   3.001  12.804 -0.3112 -0.4767  0.0023
  489TIP3    H122882   5.741   3.065  12.740 -0.0140 -1.4967 -0.8913
  489TIP3    H222883   5.743   2.917  12.773 -2.8341 -1.4704 -0.3324
  490TIP3   OH222884   4.171   3.785  16.926 -0.6316  1.0337 -0.2352
  490TIP3    H122885   4.252   3.790  16.876 -0.2578  1.0475  0.3567
  490TIP3    H222886   4.194   3.820  17.012 -0.8978 -0.2646  0.3854
  491TIP3   OH222887   1.649   0.408  13.156  0.1877 -0.1717 -0.2363
  491TIP3    H122888   1.638   0.314  13.138  0.8285 -0.4170  0.5927
  491TIP3    H222889   1.675   0.412  13.248  0.7780  0.7868 -0.4286
  492TIP3   OH222890   2.936   5.197   1.119 -0.1515 -0.0281 -0.2213
  492TIP3    H122891   2.847   5.233   1.117  0.0535  0.4999  0.0135
  492TIP3    H222892   2.993   5.274   1.121  0.3080 -0.3654 -0.2578
  493TIP3   OH222893   2.200   4.231   3.131 -0.2704 -0.3914  0.1851
  493TIP3    H122894   2.198   4.175   3.208 -1.8382 -0.7184 -0.0674
  493TIP3    H222895   2.149   4.184   3.065  0.6720  0.0862 -0.9161
  494TIP3   OH222896   3.158   2.145  16.209 -0.2810  0.1046 -0.0827
  494TIP3    H122897   3.203   2.086  16.148 -0.3635  0.0858 -0.1263
  494TIP3    H222898   3.160   2.099  16.293  3.1297  1.6910  0.8700
  495TIP3   OH222899   0.119   5.503  13.974  0.0931 -0.4852  0.6567
  495TIP3    H122900   0.033   5.469  13.999 -0.6570  0.1736 -0.9128
  495TIP3    H222901   0.147   5.449  13.900  0.1825  0.4514 -0.0162
  496TIP3   OH222902   2.438   5.474  12.664 -0.1894  0.0125  0.1054
  496TIP3    H122903   2.494   5.535  12.616  0.5874  0.5183  1.5752
  496TIP3    H222904   2.436   5.509  12.753 -3.3371  0.3269  0.0207
  497TIP3   OH222905   3.050   5.761  12.767  0.5557 -0.0891  0.3011
  497TIP3    H122906   2.962   5.724  12.778 -0.5899  1.7846 -1.6963
  497TIP3    H222907   3.108   5.685  12.763 -1.1789 -1.4715  0.1912
  498TIP3   OH222908   6.663   3.152   2.897  0.2624 -0.0237 -0.1387
  498TIP3    H122909   6.710   3.106   2.827  0.4371 -0.9733  0.5799
  498TIP3    H222910   6.716   3.136   2.975 -1.2231 -1.1155  0.6969
  499TIP3   OH222911   5.709   4.452   3.055 -0.3483  0.2897 -0.6356
  499TIP3    H122912   5.670   4.425   2.972 -0.2346  0.1763 -0.6525
  499TIP3    H222913   5.719   4.370   3.104 -0.6433  0.3841 -0.4109
  500TIP3   OH222914   0.744   5.370   4.485  0.2613  0.0548  0.1453
  500TIP3    H122915   0.832   5.387   4.519  0.2791 -0.3876  0.3267
  500TIP3    H222916   0.742   5.415   4.400 -0.2014  2.2215  1.2444
  501TIP3   OH222917   3.405   6.095   6.005  0.0413  0.0381  0.0925
  501TIP3    H122918   3.322   6.141   5.995  0.3747  0.3171 -1.8689
  501TIP3    H222919   3.384   6.017   6.057 -2.2110 -1.6438 -3.0360
  502TIP3   OH222920   3.449   3.942   1.549  0.5782  0.3289  0.0348
  502TIP3    H122921   3.528   3.893   1.570  1.0691 -0.2219 -2.6843
  502TIP3    H222922   3.463   4.029   1.588  0.7997 -0.8182  2.7571
  503TIP3   OH222923   0.487   2.599   4.474 -0.6514 -0.1299  0.6410
  503TIP3    H122924   0.573   2.565   4.498 -1.2017 -2.6689 -0.5986
  503TIP3    H222925   0.497   2.625   4.382 -0.8392  0.9984  0.9294
  504TIP3   OH222926   4.330   0.229   6.242  0.0962  0.2063 -0.7773
  504TIP3    H122927   4.242   0.264   6.261  0.2811 -0.4251  1.6088
  504TIP3    H222928   4.330   0.142   6.281  1.4868 -0.2085 -1.6258
  505TIP3   OH222929   1.558   3.840  16.319  0.4801  0.4359  0.1420
  505TIP3    H122930   1.572   3.804  16.406  1.3445  1.2091  0.3380
  505TIP3    H222931   1.538   3.932  16.334 -0.7049  0.2952 -0.4073
  506TIP3   OH222932   1.154   6.490   1.595  0.6932 -0.1602  0.1380
  506TIP3    H122933   1.130   6.520   1.507  0.2897 -3.0411 -0.8418
  506TIP3    H222934   1.246   6.517   1.604  0.5199  0.8453 -0.8436
  507TIP3   OH222935   4.199   3.661  12.986  0.3335 -0.2885  0.0346
  507TIP3    H122936   4.112   3.649  13.025 -0.3287  1.4557 -0.8339
  507TIP3    H222937   4.209   3.586  12.928 -0.5380 -0.5855  0.2417
  508TIP3   OH222938   0.294   1.283  13.543  0.1084 -0.7553  0.3546
  508TIP3    H122939   0.249   1.199  13.539  0.6094 -1.0440  0.6220
  508TIP3    H222940   0.281   1.313  13.632 -2.2792  0.7228 -0.3881
  509TIP3   OH222941   3.215   0.216   0.202 -0.0703  0.2803 -0.5340
  509TIP3    H122942   3.143   0.161   0.233 -0.7675  1.3501 -0.2055
  509TIP3    H222943   3.220   0.198   0.108 -1.5895  1.0994 -0.7895
  510TIP3   OH222944   4.700   2.185  11.167 -0.4812  0.1489  0.4761
  510TIP3    H122945   4.650   2.192  11.086 -0.3107 -0.0015  0.3576
  510TIP3    H222946   4.769   2.121  11.148 -0.2550  0.3380  0.6431
  511TIP3   OH222947   3.410   5.841  11.268  0.6410 -0.1764  0.0867
  511TIP3    H122948   3.473   5.825  11.339  0.3725  0.2930  0.4346
  511TIP3    H222949   3.446   5.793  11.193  0.8495 -0.8060  0.5768
  512TIP3   OH222950   0.176   1.012  12.588 -0.1413 -0.1719 -0.0657
  512TIP3    H122951   0.143   0.989  12.502 -0.0232 -1.3866  0.1979
  512TIP3    H222952   0.251   1.070  12.571 -1.5699  1.5928 -0.6895
  513TIP3   OH222953   3.347   4.159  13.794 -0.1523  0.7500 -0.1310
  513TIP3    H122954   3.276   4.149  13.858  0.4063  2.6882  0.8694
  513TIP3    H222955   3.302   4.156  13.709 -1.2557  0.6427  0.4304
  514TIP3   OH222956   2.851   3.647  14.637 -0.0764 -0.1518 -0.4238
  514TIP3    H122957   2.786   3.624  14.703 -0.2439 -0.0849 -0.5667
  514TIP3    H222958   2.920   3.581  14.648 -1.1121 -1.4989 -1.6459
  515TIP3   OH222959   6.360   4.665   2.266  0.1893  0.2493 -0.0819
  515TIP3    H122960   6.303   4.605   2.314 -1.3211  1.7849  0.1784
  515TIP3    H222961   6.365   4.628   2.177 -2.9416  1.0182 -0.7168
  516TIP3   OH222962   1.463   1.522  14.584  0.1151  0.5551  0.3988
  516TIP3    H122963   1.459   1.475  14.500 -0.6341  1.4178 -0.0630
  516TIP3    H222964   1.404   1.472  14.641 -1.0013  1.1359 -0.2097
  517TIP3   OH222965   0.422   0.839   2.215 -0.3061  0.0812 -0.0635
  517TIP3    H122966   0.337   0.881   2.223  0.9897  2.9788 -0.0532
  517TIP3    H222967   0.447   0.854   2.124 -1.1470 -3.8161 -1.1266
  518TIP3   OH222968   3.939   3.968   1.176 -0.3814  0.4552 -0.3080
  518TIP3    H122969   3.895   3.889   1.144  0.3939 -0.6008  1.1107
  518TIP3    H222970   4.017   3.936   1.221  0.3007  2.0835 -0.2551
  519TIP3   OH222971   3.869   0.589   3.648 -0.0646 -0.0039 -0.1184
  519TIP3    H122972   3.925   0.655   3.606 -0.4914 -0.3103 -1.2240
  519TIP3    H222973   3.930   0.524   3.681  0.2608 -0.3692 -1.3767
  520TIP3   OH222974   6.072   2.462   4.015 -0.3145 -0.5267 -0.2595
  520TIP3    H122975   6.167   2.460   4.024 -0.3030 -1.9594 -0.4677
  520TIP3    H222976   6.040   2.407   4.086 -0.9427 -0.6169 -0.6004
  521TIP3   OH222977   5.247   3.261   5.763 -0.1218 -0.3485  0.1973
  521TIP3    H122978   5.254   3.201   5.690 -0.2814  1.4232 -1.3536
  521TIP3    H222979   5.333   3.303   5.769  0.5025 -1.7758  2.2783
  522TIP3   OH222980   3.382   2.449  15.741  0.4481  0.1652  0.1463
  522TIP3    H122981   3.378   2.408  15.654 -0.1095 -1.1732  0.7792
  522TIP3    H222982   3.296   2.490  15.751  0.3202 -0.1250  0.2636
  523TIP3   OH222983   6.287   6.109   0.647  0.3841 -0.3714 -0.0326
  523TIP3    H122984   6.312   6.019   0.670  3.3123  0.5220  0.7702
  523TIP3    H222985   6.263   6.149   0.731 -0.2383 -0.1881 -0.2909
  524TIP3   OH222986   4.529   1.216   2.316  0.3162  0.4291  0.0053
  524TIP3    H122987   4.503   1.301   2.283 -0.3993  0.3245  0.2785
  524TIP3    H222988   4.492   1.212   2.405 -0.7227 -0.6481 -0.4475
  525TIP3   OH222989   2.950   2.310  12.009 -0.3229 -0.0123 -0.0012
  525TIP3    H122990   2.965   2.218  11.991  0.7087  0.0386  0.5389
  525TIP3    H222991   2.871   2.332  11.960 -0.4379 -1.1194 -0.3193
  526TIP3   OH222992   1.041   5.182  17.282  0.3389 -0.2190  0.3608
  526TIP3    H122993   1.113   5.127  17.251 -0.2778 -0.2126 -1.2189
  526TIP3    H222994   1.024   5.151  17.371  1.8988 -0.6008  0.5596
  527TIP3   OH222995   2.380   5.604   4.216  0.6676  0.3180  0.0472
  527TIP3    H122996   2.417   5.653   4.289  0.3625  0.9975 -0.2487
  527TIP3    H222997   2.421   5.641   4.138  0.3531  0.1823 -0.1887
  528TIP3   OH222998   0.778   6.669  11.611  0.1491 -0.3800 -0.1504
  528TIP3    H122999   0.767   6.575  11.618 -0.0118 -0.3965 -0.6058
  528TIP3    H223000   0.741   6.692  11.526 -0.1968  0.1520  0.1363
  529TIP3   OH223001   2.352   2.870   1.895  0.3905  0.1909 -0.3756
  529TIP3    H123002   2.436   2.903   1.926 -0.4570  1.7212  0.4387
  529TIP3    H223003   2.347   2.897   1.803  2.1031 -2.7097 -1.4391
  530TIP3   OH223004   0.790   1.311  13.460 -0.2573  0.1774 -0.3328
  530TIP3    H123005   0.739   1.230  13.459  0.0876 -0.0437 -0.1438
  530TIP3    H223006   0.739   1.370  13.515 -0.1395 -0.1561  0.1400
  531TIP3   OH223007   2.167   1.844  16.915  0.4720 -0.1452  0.1434
  531TIP3    H123008   2.113   1.821  16.839 -0.2113 -0.6344  0.7654
  531TIP3    H223009   2.190   1.936  16.902 -0.9025  0.2074  0.0945
  532TIP3   OH223010   0.275   2.208   1.440  0.2765  0.8097  0.2278
  532TIP3    H123011   0.288   2.130   1.388 -1.0047  0.3919  0.4902
  532TIP3    H223012   0.183   2.232   1.425  0.5453  2.0552  0.4291
  533TIP3   OH223013   0.266   0.634  14.998 -0.0709 -0.3358 -0.4286
  533TIP3    H123014   0.244   0.710  14.945  1.5834 -0.0880 -0.8183
  533TIP3    H223015   0.198   0.570  14.978 -0.4416  0.3780 -1.5290
  534TIP3   OH223016   0.958   3.288   3.003 -0.1122  0.6158 -0.7457
  534TIP3    H123017   0.943   3.275   3.097 -2.1181  2.3350 -0.7431
  534TIP3    H223018   1.052   3.305   2.996 -0.0519  1.3159  1.1073
  535TIP3   OH223019   0.336   3.250  17.259 -0.0049 -0.0830  0.1951
  535TIP3    H123020   0.279   3.324  17.281 -0.2624  0.0674 -0.9055
  535TIP3    H223021   0.291   3.205  17.188 -0.1727 -1.7081  1.2756
  536TIP3   OH223022   1.363   4.883   4.585  0.2391  0.1554 -0.0647
  536TIP3    H123023   1.317   4.812   4.542  1.1575 -1.0662  0.9048
  536TIP3    H223024   1.315   4.898   4.667  0.4929  0.1038  0.0981
  537TIP3   OH223025   6.410   3.919   0.910  0.3894 -0.0696 -0.2105
  537TIP3    H123026   6.327   3.872   0.908 -0.6565  1.7007 -0.3759
  537TIP3    H223027   6.391   4.004   0.869  2.0711  0.6984  0.4810
  538TIP3   OH223028   6.309   0.026   4.429 -0.1187  0.6755  0.6417
  538TIP3    H123029   6.224   0.064   4.450 -0.2731  0.8353 -0.2330
  538TIP3    H223030   6.303   0.002   4.337 -0.4384 -2.6131  1.3837
  539TIP3   OH223031   6.631   0.662  13.064  0.1094  0.2231 -0.0613
  539TIP3    H123032   6.578   0.607  13.007  0.6734 -0.7743  0.3552
  539TIP3    H223033   6.722   0.637  13.045  0.2848 -1.1394  2.1924
  540TIP3   OH223034   0.142   6.490   1.293 -0.0709  0.5817  0.1630
  540TIP3    H123035   0.232   6.522   1.299 -0.1259  0.4862  2.5984
  540TIP3    H223036   0.125   6.482   1.199  2.5041  0.4312 -0.3526
  541TIP3   OH223037   1.192   1.736   5.227  0.3744 -0.2132 -0.2602
  541TIP3    H123038   1.099   1.759   5.235  0.0877 -1.2347 -0.4471
  541TIP3    H223039   1.237   1.802   5.279 -0.6165 -0.7335  1.3821
  542TIP3   OH223040   0.575   4.959   4.922 -0.0983  0.0024  0.2435
  542TIP3    H123041   0.656   4.908   4.925  1.8975  2.8739  0.4820
  542TIP3    H223042   0.598   5.042   4.965 -2.8175  1.4465 -0.8227
  543TIP3   OH223043   4.214   3.430  14.243  0.5220 -0.5867 -0.6748
  543TIP3    H123044   4.123   3.401  14.245  0.3400 -0.0351  1.2098
  543TIP3    H223045   4.216   3.507  14.300  2.0340 -0.1641 -1.2361
  544TIP3   OH223046   5.776   4.005   0.045  0.3507  0.2332  0.1758
  544TIP3    H123047   5.755   3.997   0.138 -2.2171  0.0039 -0.3245
  544TIP3    H223048   5.871   3.999   0.040  0.4844 -0.7335  2.6832
  545TIP3   OH223049   3.217   0.506   3.100  0.0467  0.2942 -0.5372
  545TIP3    H123050   3.186   0.489   3.189 -1.4704  1.6691 -0.7356
  545TIP3    H223051   3.312   0.513   3.108  0.0778 -1.1260  0.6811
  546TIP3   OH223052   0.851   2.561   0.517 -0.4015 -0.3346 -0.6369
  546TIP3    H123053   0.808   2.517   0.591  0.1884  0.3814  0.1566
  546TIP3    H223054   0.869   2.491   0.455 -0.8823 -0.9619 -0.0864
  547TIP3   OH223055   4.595   6.254   5.477  0.2191  0.1019  0.7396
  547TIP3    H123056   4.515   6.219   5.515 -0.4189 -0.1624 -0.7889
  547TIP3    H223057   4.566   6.315   5.410  1.2664 -0.7665 -0.5556
  548TIP3   OH223058   0.995   1.628   3.493 -0.1550  0.0432  0.3883
  548TIP3    H123059   0.954   1.589   3.570 -1.0624 -0.8130 -0.4990
  548TIP3    H223060   0.935   1.609   3.421  1.7507 -1.2094 -0.9778
  549TIP3   OH223061   1.850   6.381  15.628 -0.2711 -0.0057  0.5095
  549TIP3    H123062   1.765   6.348  15.658  0.3696 -2.1750  0.1314
  549TIP3    H223063   1.914   6.327  15.675  0.8604  0.5396 -0.3585
  550TIP3   OH223064   4.637   3.673   2.615 -0.0887  0.2276  0.3386
  550TIP3    H123065   4.618   3.642   2.527  1.0561 -0.3269  0.2711
  550TIP3    H223066   4.687   3.602   2.655  0.7400  1.1135  0.9054
  551TIP3   OH223067   3.430   5.461   2.927 -0.3393  0.4168 -0.2440
  551TIP3    H123068   3.497   5.518   2.965 -0.1316 -0.0176  0.0493
  551TIP3    H223069   3.362   5.455   2.995 -0.7882  1.0445 -0.6321
  552TIP3   OH223070   6.764   5.629   4.432 -0.0614  0.0705 -0.0100
  552TIP3    H123071   6.700   5.688   4.472 -1.6227 -1.0196 -0.7615
  552TIP3    H223072   6.791   5.571   4.503  1.2135  1.4220  0.6467
  553TIP3   OH223073   0.487   2.071  16.683  0.8905  0.4449 -0.5235
  553TIP3    H123074   0.501   2.161  16.710  0.3587 -0.2869  2.5705
  553TIP3    H223075   0.525   2.018  16.753 -3.0044 -1.6667  0.3397
  554TIP3   OH223076   3.292   3.156  16.583  0.3031  0.1872  0.6351
  554TIP3    H123077   3.243   3.075  16.597 -0.1196  0.5569  1.3477
  554TIP3    H223078   3.350   3.163  16.659  2.2487 -0.7668 -0.6679
  555TIP3   OH223079   5.685   2.052  17.044 -0.4943 -0.0587  0.0674
  555TIP3    H123080   5.591   2.040  17.053 -0.5763  1.0203  0.6867
  555TIP3    H223081   5.698   2.146  17.046  0.5471 -0.1699 -0.6347
  556TIP3   OH223082   3.468   2.945  15.661  0.6566  0.2565 -0.2738
  556TIP3    H123083   3.453   3.039  15.646  0.8241  0.3276 -0.0080
  556TIP3    H223084   3.388   2.914  15.702  0.6797  0.3294 -0.1715
  557TIP3   OH223085   6.327   1.502  11.077  0.4444 -0.1125  0.3472
  557TIP3    H123086   6.266   1.463  11.015  2.1268 -1.0152 -0.8065
  557TIP3    H223087   6.375   1.567  11.026  0.7708  0.2751  1.1225
  558TIP3   OH223088   1.552   1.793  13.136  0.1332 -0.4704  0.5215
  558TIP3    H123089   1.560   1.809  13.042  0.1403  0.1904  0.6319
  558TIP3    H223090   1.464   1.821  13.158  0.7742  1.2247  1.0642
  559TIP3   OH223091   6.619   3.447  13.518 -0.2095  0.5438  0.5186
  559TIP3    H123092   6.672   3.369  13.536 -1.3242 -0.3897 -0.0501
  559TIP3    H223093   6.563   3.421  13.445 -0.8589  1.7717  0.5525
  560TIP3   OH223094   5.839   1.954   1.373 -0.0768 -0.3154  0.0696
  560TIP3    H123095   5.843   2.045   1.343 -0.1011 -0.0087  0.9809
  560TIP3    H223096   5.907   1.909   1.323  0.1534  0.2715 -0.1500
  561TIP3   OH223097   2.622   5.435  12.095 -0.2978  0.0329  0.8666
  561TIP3    H123098   2.542   5.402  12.054 -0.2361  0.5455  0.3056
  561TIP3    H223099   2.689   5.422  12.029 -0.1417  0.6326  0.9001
  562TIP3   OH223100   0.355   0.148  10.989 -0.0093  0.1737 -0.7374
  562TIP3    H123101   0.377   0.055  10.980 -2.1403 -0.3991 -0.6567
  562TIP3    H223102   0.375   0.168  11.081  0.2970 -0.2476 -0.7081
  563TIP3   OH223103   3.205   1.623   1.509 -0.1418 -0.0754  0.5730
  563TIP3    H123104   3.240   1.563   1.443  0.5433  1.6769 -0.7266
  563TIP3    H223105   3.281   1.643   1.565 -0.7091 -1.5207  1.9582
  564TIP3   OH223106   4.187   5.763  13.406  0.1012 -0.3758  0.3571
  564TIP3    H123107   4.224   5.763  13.318 -0.0144 -2.8268  0.2339
  564TIP3    H223108   4.109   5.708  13.399 -0.4411  0.1576  1.8059
  565TIP3   OH223109   4.526   1.420   1.188  0.3939 -0.0614 -0.2167
  565TIP3    H123110   4.477   1.338   1.185 -1.9883  1.2573 -0.8748
  565TIP3    H223111   4.480   1.472   1.254  1.8865  0.7187  0.2343
  566TIP3   OH223112   6.003   1.049  15.443 -0.0008 -0.0291  0.2208
  566TIP3    H123113   5.944   1.074  15.515 -1.2448 -2.0275 -0.0011
  566TIP3    H223114   6.091   1.056  15.481 -0.5533  0.1349  1.5541
  567TIP3   OH223115   2.592   1.891  16.854 -0.7153 -0.1883 -0.1693
  567TIP3    H123116   2.565   1.974  16.817  0.4729  0.3142  0.0535
  567TIP3    H223117   2.533   1.827  16.815 -1.3213  0.6882 -0.7215
  568TIP3   OH223118   4.995   4.575   5.207 -0.0871 -0.1363  0.2155
  568TIP3    H123119   5.033   4.607   5.125 -1.6684  0.6382 -0.2529
  568TIP3    H223120   5.067   4.580   5.270  0.3511  2.3257 -0.3700
  569TIP3   OH223121   2.489   5.639  16.524  0.1217  0.0352  0.0094
  569TIP3    H123122   2.555   5.707  16.529 -0.7143  0.8659 -0.0065
  569TIP3    H223123   2.463   5.624  16.615  0.5950 -0.5590  0.0502
  570TIP3   OH223124   0.539   3.228   4.984  0.7345  0.2223  0.1150
  570TIP3    H123125   0.538   3.190   4.896  2.1202 -1.1742  0.6675
  570TIP3    H223126   0.616   3.284   4.985  2.0316 -1.4838  1.0761
  571TIP3   OH223127   5.773   1.070   1.525 -0.4363  0.1043 -0.4717
  571TIP3    H123128   5.834   1.145   1.524 -0.8080  0.4297  0.5871
  571TIP3    H223129   5.829   0.993   1.516  0.1907  0.3742  0.8977
  572TIP3   OH223130   1.072   2.339  15.489  0.4395  0.5441 -0.1022
  572TIP3    H123131   0.980   2.316  15.506  0.3301  0.8275 -0.3047
  572TIP3    H223132   1.067   2.407  15.423  0.8435 -0.1882 -0.9045
  573TIP3   OH223133   1.995   3.112   2.414  0.4764  0.2677  0.5777
  573TIP3    H123134   1.960   3.187   2.463  2.9755  1.0025  1.4195
  573TIP3    H223135   2.038   3.152   2.338  0.3254 -0.4817  0.0936
  574TIP3   OH223136   1.866   4.302   5.663 -0.0324  0.1880 -0.1913
  574TIP3    H123137   1.961   4.307   5.658  0.0231 -1.3858 -2.2184
  574TIP3    H223138   1.846   4.211   5.641 -2.0334  0.6054 -0.2856
  575TIP3   OH223139   1.165   1.296  10.771 -0.2667 -0.4640  0.2044
  575TIP3    H123140   1.087   1.318  10.720  0.0548 -1.3120 -0.6867
  575TIP3    H223141   1.219   1.374  10.768 -0.1965 -0.5412 -0.8926
  576TIP3   OH223142   5.724   2.542   2.041  0.0232  0.2022  0.3322
  576TIP3    H123143   5.679   2.609   1.990  0.5277 -0.4811 -1.0377
  576TIP3    H223144   5.763   2.590   2.114  0.9850  1.5350 -1.0051
  577TIP3   OH223145   6.132   3.103  14.959  0.3599  0.0383  0.2909
  577TIP3    H123146   6.099   3.077  15.045 -3.1590 -2.0530 -1.4530
  577TIP3    H223147   6.132   3.023  14.908  0.8189  1.4558 -2.1066
  578TIP3   OH223148   4.915   4.735   1.271 -0.1062 -0.3419 -0.2334
  578TIP3    H123149   4.893   4.685   1.192 -0.7198 -1.9065  0.8687
  578TIP3    H223150   4.860   4.697   1.339  1.0700  0.3432  1.1600
  579TIP3   OH223151   6.329   2.463   4.709  0.4511  0.0615  0.5230
  579TIP3    H123152   6.345   2.501   4.623 -1.4088  0.6000  0.3888
  579TIP3    H223153   6.368   2.525   4.770  0.1006  0.6434  0.1622
  580TIP3   OH223154   1.880   6.089  13.390  0.2638 -0.0811 -0.1358
  580TIP3    H123155   1.973   6.111  13.402  0.3460 -0.9950  1.0437
  580TIP3    H223156   1.842   6.100  13.477  0.3660 -4.7360  0.7076
  581TIP3   OH223157   4.505   3.568  12.211 -0.3690 -0.4054  0.2363
  581TIP3    H123158   4.586   3.561  12.261 -0.3354 -1.9244 -0.0014
  581TIP3    H223159   4.517   3.647  12.158 -0.0065  0.6987  1.8625
  582TIP3   OH223160   6.491   6.159   1.605  0.0815 -0.1035  0.5115
  582TIP3    H123161   6.578   6.191   1.626  1.6384 -1.9056 -2.4547
  582TIP3    H223162   6.493   6.067   1.630  0.0664 -0.8340 -1.8819
  583TIP3   OH223163   1.615   5.445  11.826 -0.0569  0.6322 -0.5452
  583TIP3    H123164   1.645   5.362  11.787 -0.3104  0.6295 -0.7429
  583TIP3    H223165   1.604   5.504  11.751 -1.6882  0.2697 -0.6413
  584TIP3   OH223166   2.905   5.686  14.448  0.0366  0.2214 -0.4561
  584TIP3    H123167   2.904   5.769  14.496 -0.3049 -0.1625  0.2156
  584TIP3    H223168   2.818   5.648  14.462 -0.1259  0.1722 -1.5247
  585TIP3   OH223169   0.372   6.552  16.627  0.1995 -0.3897  0.3519
  585TIP3    H123170   0.431   6.627  16.630  0.0907 -0.0066 -3.0473
  585TIP3    H223171   0.430   6.476  16.622  0.4751 -0.1107 -1.4727
  586TIP3   OH223172   4.599   3.919   0.383  0.0090  0.8386 -0.9307
  586TIP3    H123173   4.549   3.966   0.450  1.5088  1.4204 -0.1958
  586TIP3    H223174   4.535   3.903   0.313 -1.7762 -0.4266  0.8996
  587TIP3   OH223175   6.619   1.696  15.857  0.0802  0.0769 -0.3801
  587TIP3    H123176   6.655   1.756  15.793  0.7557 -0.6808 -0.7291
  587TIP3    H223177   6.562   1.750  15.912  0.3768  0.9476 -0.9165
  588TIP3   OH223178   3.240   3.131  15.781 -0.3119 -0.3381  0.7415
  588TIP3    H123179   3.165   3.179  15.815 -0.1327  0.4599  0.0398
  588TIP3    H223180   3.210   3.097  15.696 -0.0886 -0.5721  0.7548
  589TIP3   OH223181   5.040   5.443   3.052  0.3537  0.0279 -0.5386
  589TIP3    H123182   5.076   5.529   3.032 -2.1043  1.9368  2.3884
  589TIP3    H223183   5.115   5.393   3.086  1.4633  1.6375 -0.5236
  590TIP3   OH223184   5.445   2.922  14.615 -0.2104  0.0474  0.1627
  590TIP3    H123185   5.534   2.911  14.648  0.0467  0.4093 -0.3958
  590TIP3    H223186   5.394   2.946  14.692 -0.1105 -1.5446  0.7538
  591TIP3   OH223187   5.103   1.790   1.515  0.0041  0.4504 -0.9206
  591TIP3    H123188   5.016   1.756   1.492 -0.0238 -0.5078  0.5090
  591TIP3    H223189   5.157   1.712   1.527  0.8443  1.0139 -0.9204
  592TIP3   OH223190   3.050   0.468  13.044  0.2719  0.2018 -0.4065
  592TIP3    H123191   3.130   0.416  13.039  1.0290  1.0372  1.8521
  592TIP3    H223192   2.982   0.405  13.066  0.5786 -0.2840 -0.8171
  593TIP3   OH223193   2.998   5.379  12.041 -0.3634 -0.6287 -0.0674
  593TIP3    H123194   3.007   5.429  12.123 -2.3436 -0.0746 -0.1539
  593TIP3    H223195   2.934   5.429  11.990  1.8076 -0.2056 -2.5784
  594TIP3   OH223196   1.972   3.544   5.093  0.1898  0.2563 -0.4547
  594TIP3    H123197   2.062   3.576   5.094  0.6025 -0.8527  0.7940
  594TIP3    H223198   1.974   3.468   5.035 -0.1801  0.7943 -1.1976
  595TIP3   OH223199   3.564   4.923   4.282  0.6704  0.0125  0.0864
  595TIP3    H123200   3.613   4.896   4.359 -0.0950  0.5044  0.7584
  595TIP3    H223201   3.561   4.844   4.227 -0.3147 -0.8827  1.3693
  596TIP3   OH223202   5.886   2.480   3.102 -0.1812 -0.2166  0.4812
  596TIP3    H123203   5.940   2.541   3.052  0.5198 -0.9814  0.2875
  596TIP3    H223204   5.936   2.466   3.183 -0.2093 -0.7364  0.4078
  597TIP3   OH223205   4.009   4.089   5.144 -0.4074 -0.3324 -0.5273
  597TIP3    H123206   4.100   4.063   5.129 -1.2851 -3.2050 -1.5210
  597TIP3    H223207   3.985   4.045   5.225 -0.3918  2.1016  0.8817
  598TIP3   OH223208   3.866   0.006   2.455 -0.4361 -0.1075  0.4484
  598TIP3    H123209   3.774   0.029   2.441 -0.3376  0.0193  0.0072
  598TIP3    H223210   3.914   0.062   2.394 -0.0777 -0.3221  0.5339
  599TIP3   OH223211   4.295   0.372   2.850 -0.1473  0.2630 -0.5010
  599TIP3    H123212   4.382   0.339   2.828  0.7551  1.6864  0.6800
  599TIP3    H223213   4.312   0.457   2.892 -2.0970  0.4868 -0.0655
  600TIP3   OH223214   3.178   5.311   5.615  0.5871  0.0651 -0.0528
  600TIP3    H123215   3.108   5.375   5.625  0.6862 -0.1545  3.0432
  600TIP3    H223216   3.257   5.364   5.603  0.2169  0.3734 -1.2496
  601TIP3   OH223217   4.192   6.436  15.527 -0.3113 -0.7515 -0.2565
  601TIP3    H123218   4.121   6.402  15.582 -0.7164  0.9658  0.3569
  601TIP3    H223219   4.272   6.404  15.568 -0.6048  0.4813  1.3782
  602TIP3   OH223220   3.599   6.247   5.401  1.0448  0.4611 -0.0273
  602TIP3    H123221   3.631   6.278   5.316  1.4493  0.1951  0.0257
  602TIP3    H223222   3.657   6.288   5.465 -1.4283  3.6478  0.4307
  603TIP3   OH223223   3.371   5.736  12.291 -0.6555 -0.1375  0.2207
  603TIP3    H123224   3.326   5.651  12.300 -2.1144  0.5859  0.1026
  603TIP3    H223225   3.305   5.793  12.252 -0.1814  1.4306  1.6218
  604TIP3   OH223226   4.672   3.675  16.321 -0.1851  0.0486 -0.4882
  604TIP3    H123227   4.597   3.734  16.310 -1.2216 -1.2902 -0.8110
  604TIP3    H223228   4.666   3.614  16.249 -0.9273 -2.3187  1.4392
  605TIP3   OH223229   1.229   4.241  16.857  0.2852  0.2174  0.7402
  605TIP3    H123230   1.322   4.241  16.880  0.3464  0.5702  0.4982
  605TIP3    H223231   1.214   4.326  16.815 -0.0942  0.0698  0.5655
  606TIP3   OH223232   4.850   0.571  16.029 -0.0776  0.5491  1.1196
  606TIP3    H123233   4.785   0.630  15.989  0.1584  0.2547  0.2822
  606TIP3    H223234   4.881   0.518  15.956  0.8467  0.4421  1.5875
  607TIP3   OH223235   1.541   1.235  13.890  0.3234  0.2630 -0.3132
  607TIP3    H123236   1.615   1.283  13.926  0.1054  1.0219 -0.8716
  607TIP3    H223237   1.580   1.156  13.852  0.6605 -0.1049  0.7405
  608TIP3   OH223238   3.711   1.311  12.061  0.1619  0.0901 -0.0296
  608TIP3    H123239   3.727   1.231  12.111  1.0687 -0.3585 -0.9984
  608TIP3    H223240   3.659   1.284  11.986 -2.1811  0.9536  1.1952
  609TIP3   OH223241   6.644   0.076  16.447 -0.2380 -0.6471 -0.0296
  609TIP3    H123242   6.635   0.096  16.540 -0.1089 -1.4074  0.1592
  609TIP3    H223243   6.646   0.161  16.403 -0.4691 -0.2888  0.6450
  610TIP3   OH223244   6.550   5.894  13.796  0.7136  0.4261 -0.1428
  610TIP3    H123245   6.578   5.947  13.871  2.6207  0.8123 -1.0588
  610TIP3    H223246   6.531   5.808  13.834 -2.4232  1.6160  1.3606
  611TIP3   OH223247   3.603   1.912  14.146  0.3264 -0.1566  0.0711
  611TIP3    H123248   3.628   1.933  14.236  0.2730 -0.6446  0.2026
  611TIP3    H223249   3.618   1.994  14.097 -0.4647  0.3673  0.6768
  612TIP3   OH223250   2.690   6.141   0.981 -0.1577 -0.1159 -0.2287
  612TIP3    H123251   2.682   6.144   0.886  0.3467 -0.0588 -0.2737
  612TIP3    H223252   2.699   6.232   1.007  0.3243 -0.1742 -0.1863
  613TIP3   OH223253   4.307   4.891  12.901 -0.5520 -0.4316 -0.0429
  613TIP3    H123254   4.297   4.893  12.996 -1.2973  1.9704 -0.1078
  613TIP3    H223255   4.221   4.863  12.869 -1.2122  1.4256 -0.0309
  614TIP3   OH223256   5.942   1.373  15.761  0.2798 -0.7179 -0.3039
  614TIP3    H123257   5.992   1.378  15.679  0.2932 -3.0438 -0.5148
  614TIP3    H223258   5.869   1.433  15.749  0.8327 -0.2800 -1.6175
  615TIP3   OH223259   4.223   0.329  11.332  0.7682 -0.2368  0.1825
  615TIP3    H123260   4.192   0.339  11.422 -0.9235 -1.9877 -0.1288
  615TIP3    H223261   4.225   0.418  11.297  0.9203  0.4094  1.7778
  616TIP3   OH223262   6.424   1.420   3.268 -0.0937  0.3279 -0.5441
  616TIP3    H123263   6.406   1.327   3.255 -0.2282  0.3402 -0.4464
  616TIP3    H223264   6.380   1.442   3.350 -1.1567  0.7695 -1.2106
  617TIP3   OH223265   1.219   6.435  16.714  0.2594 -0.7290  0.3321
  617TIP3    H123266   1.306   6.474  16.715 -0.4172  0.8769  1.2135
  617TIP3    H223267   1.202   6.413  16.806 -0.8169  0.3993  0.4446
  618TIP3   OH223268   3.020   5.985  10.852  0.5996 -0.0096 -0.0896
  618TIP3    H123269   3.057   6.008  10.767 -1.4592 -2.5974 -1.8844
  618TIP3    H223270   3.095   5.973  10.909  2.0006  3.0272 -1.1057
  619TIP3   OH223271   5.490   0.753  11.667  0.0530 -0.3243  0.6899
  619TIP3    H123272   5.463   0.661  11.674 -0.6070 -0.1956 -0.0368
  619TIP3    H223273   5.577   0.755  11.707  0.3412 -1.3977  0.1678
  620TIP3   OH223274   5.461   2.472  14.415  0.4626  0.2688  0.6334
  620TIP3    H123275   5.521   2.536  14.455  1.0670  1.2614 -1.6894
  620TIP3    H223276   5.402   2.525  14.361  0.1483 -1.0275 -0.3497
  621TIP3   OH223277   0.853   1.413  12.137 -0.2241  0.1478 -0.1614
  621TIP3    H123278   0.874   1.422  12.044 -1.1670  2.3045 -0.2307
  621TIP3    H223279   0.849   1.503  12.170 -1.7972 -0.4571  1.5058
  622TIP3   OH223280   6.535   6.392  11.439  0.0400 -0.2728 -0.0244
  622TIP3    H123281   6.445   6.367  11.461  0.1124 -1.3912 -0.9176
  622TIP3    H223282   6.543   6.374  11.346  0.3344  2.5248 -0.6456
  623TIP3   OH223283   5.277   0.477   4.214  0.5791  0.1677  0.3526
  623TIP3    H123284   5.192   0.505   4.247  0.1582 -0.2605 -0.3387
  623TIP3    H223285   5.312   0.419   4.282 -0.5274 -1.1668 -0.1834
  624TIP3   OH223286   3.870   1.377   4.333 -0.2233 -0.1298  0.0259
  624TIP3    H123287   3.939   1.443   4.329 -0.9587  0.7932  1.8455
  624TIP3    H223288   3.893   1.322   4.408 -0.8918 -0.4901 -0.0285
  625TIP3   OH223289   5.430   2.211   2.537 -0.2610  0.2707  0.1355
  625TIP3    H123290   5.388   2.286   2.494 -2.7668 -1.4979 -0.7757
  625TIP3    H223291   5.465   2.159   2.465 -0.2905 -0.3775  0.5823
  626TIP3   OH223292   6.295   0.102  14.655  0.2162 -0.1459 -0.0900
  626TIP3    H123293   6.219   0.098  14.599 -0.0316  1.3778  0.1063
  626TIP3    H223294   6.301   0.194  14.682 -0.1131 -0.9095  2.9429
  627TIP3   OH223295   6.066   4.588  14.784 -0.5982  0.0515  0.7649
  627TIP3    H123296   6.077   4.518  14.848 -0.9485 -0.6918  0.0270
  627TIP3    H223297   6.136   4.575  14.721 -0.6041  0.4254  0.6769
  628TIP3   OH223298   2.949   5.668   1.019  0.3566 -0.2941 -0.1465
  628TIP3    H123299   2.904   5.749   1.043  0.3448 -0.2304 -0.3780
  628TIP3    H223300   3.020   5.696   0.961  1.2461 -0.3002  0.9044
  629TIP3   OH223301   4.799   5.246   2.540 -0.4399  0.1552 -0.3867
  629TIP3    H123302   4.866   5.299   2.498 -0.2950  0.7543  0.5920
  629TIP3    H223303   4.728   5.242   2.475  1.5240 -2.7596 -2.6004
  630TIP3   OH223304   1.666   4.734   1.297  0.0495 -0.4871 -0.0945
  630TIP3    H123305   1.583   4.780   1.286 -0.7224 -2.0683 -1.2435
  630TIP3    H223306   1.727   4.782   1.242 -0.2427  0.3012  0.2496
  631TIP3   OH223307   5.062   1.233  12.930  0.1512  0.4072  0.3185
  631TIP3    H123308   5.100   1.154  12.891 -0.3189  1.4066 -2.3583
  631TIP3    H223309   5.138   1.289  12.949  0.4244 -0.3195  1.4947
  632TIP3   OH223310   1.026   6.380   4.143  0.2752  0.2182 -0.6757
  632TIP3    H123311   1.035   6.319   4.069 -1.5836  0.5671 -1.2368
  632TIP3    H223312   1.040   6.325   4.220 -2.6613 -1.3421 -1.0862
  633TIP3   OH223313   0.577   3.184   6.310 -0.1372 -0.2703  0.1815
  633TIP3    H123314   0.490   3.222   6.325 -0.1041 -0.0932 -0.0681
  633TIP3    H223315   0.560   3.101   6.265 -0.2509 -0.9134  1.3674
  634TIP3   OH223316   3.385   0.446   3.924  0.6875 -0.0992  0.1176
  634TIP3    H123317   3.397   0.514   3.858 -0.4289  0.1188  0.1161
  634TIP3    H223318   3.447   0.468   3.993 -0.0094  1.2273  0.3505
  635TIP3   OH223319   3.553   6.615   5.401 -0.2090  0.3356 -0.0913
  635TIP3    H123320   3.546   6.650   5.312 -1.1865 -0.9687 -0.5414
  635TIP3    H223321   3.498   6.537   5.402  0.4939 -0.1912  1.4114
  636TIP3   OH223322   0.076   0.277  13.239 -0.1120 -0.2162 -0.4858
  636TIP3    H123323   0.162   0.310  13.263 -0.1135  0.8568 -1.8226
  636TIP3    H223324   0.016   0.323  13.297  0.1777 -0.7779  0.2775
  637TIP3   OH223325   0.574   3.940   0.440 -0.1624 -0.3084 -0.0019
  637TIP3    H123326   0.645   3.942   0.375  0.4642 -0.0846  0.6688
  637TIP3    H223327   0.570   3.849   0.468  1.1555 -0.0109  1.3101
  638TIP3   OH223328   1.092   3.807   2.358  0.2662 -0.9118  0.5788
  638TIP3    H123329   1.065   3.828   2.448  0.1713 -1.8355  0.7746
  638TIP3    H223330   1.183   3.778   2.367  0.4682 -0.3728  0.2829
  639TIP3   OH223331   1.684   6.577  13.187 -1.2051 -0.4205 -0.3999
  639TIP3    H123332   1.659   6.504  13.130  0.6640 -0.6363 -1.0276
  639TIP3    H223333   1.689   6.653  13.129 -0.8327 -0.3042 -0.2221
  640TIP3   OH223334   3.423   2.579  13.484 -0.0836 -0.8024  0.2942
  640TIP3    H123335   3.508   2.547  13.513  0.2667  0.8167  1.1840
  640TIP3    H223336   3.365   2.566  13.560 -0.2186 -0.4138  0.2601
  641TIP3   OH223337   4.284   5.042   1.874 -0.3042  0.2014 -0.0285
  641TIP3    H123338   4.211   5.000   1.830 -0.1274  3.4807 -4.0295
  641TIP3    H223339   4.262   5.038   1.967 -3.3577 -2.6750 -0.7225
  642TIP3   OH223340   5.144   6.341  10.818 -0.1101 -0.5282 -0.1809
  642TIP3    H123341   5.174   6.318  10.730 -0.5848 -2.3290  0.0967
  642TIP3    H223342   5.224   6.368  10.864 -0.0680  2.1122 -1.5812
  643TIP3   OH223343   1.622   6.694  15.516  0.0978  0.2517 -0.7917
  643TIP3    H123344   1.676   6.635  15.464  0.0648  1.1890 -1.9417
  643TIP3    H223345   1.683   6.740  15.573  0.3771  0.5131 -1.2998
  644TIP3   OH223346   1.677   4.600  11.396 -0.0394  0.1209 -0.1398
  644TIP3    H123347   1.754   4.632  11.442 -0.6136  1.0031  0.2340
  644TIP3    H223348   1.696   4.615  11.303  0.2142  0.3812 -0.0469
  645TIP3   OH223349   3.649   1.739   5.163 -0.1770  0.0144 -0.0037
  645TIP3    H123350   3.695   1.717   5.082  0.9871 -1.5287  1.0079
  645TIP3    H223351   3.596   1.662   5.183  1.1638 -0.5300  1.7426
  646TIP3   OH223352   6.157   2.766  11.976 -0.3059 -0.4885 -0.0730
  646TIP3    H123353   6.235   2.812  12.005 -1.9942  3.4932 -1.1843
  646TIP3    H223354   6.151   2.785  11.882 -2.7228 -0.3510  0.0386
  647TIP3   OH223355   1.026   2.932  12.697 -0.0103 -0.4640 -0.2779
  647TIP3    H123356   0.989   3.020  12.690  1.0306 -0.0179 -0.3476
  647TIP3    H223357   0.953   2.874  12.677 -1.2280  0.2965  1.7430
  648TIP3   OH223358   4.132   6.484   4.482 -0.3930 -0.0092  0.2044
  648TIP3    H123359   4.225   6.505   4.489  0.1644 -1.9932 -0.3825
  648TIP3    H223360   4.101   6.532   4.405  0.4177 -0.1606 -0.2253
  649TIP3   OH223361   1.455   6.552   1.773  0.3034 -0.3010 -0.0194
  649TIP3    H123362   1.519   6.588   1.712  0.4535 -0.0792  0.2685
  649TIP3    H223363   1.483   6.583   1.859 -0.9670  0.9568 -0.0176
  650TIP3   OH223364   0.261   1.894   1.933 -0.1818  0.1858 -0.3776
  650TIP3    H123365   0.226   1.888   1.843 -0.6438  3.6502 -0.5631
  650TIP3    H223366   0.356   1.900   1.921  0.2405 -3.4881 -0.2180
  651TIP3   OH223367   1.808   5.624  14.424  0.4236 -0.4192 -0.1078
  651TIP3    H123368   1.875   5.649  14.360  0.1853  0.7591  0.0747
  651TIP3    H223369   1.857   5.588  14.498  0.8183 -0.0592 -0.1918
  652TIP3   OH223370   4.052   3.294   1.579  0.4414  0.2968 -0.1569
  652TIP3    H123371   4.025   3.259   1.664 -0.3364 -0.0418 -0.5318
  652TIP3    H223372   4.069   3.387   1.595  3.9683 -0.4330  1.1912
  653TIP3   OH223373   3.765   1.739   2.993  0.3788 -0.0258  0.2091
  653TIP3    H123374   3.755   1.828   3.025 -0.0231  0.3023 -0.7990
  653TIP3    H223375   3.749   1.684   3.069 -1.8538  0.6877  0.3226
  654TIP3   OH223376   5.214   4.758  14.337 -0.3002  0.2941 -0.0614
  654TIP3    H123377   5.150   4.744  14.268 -0.9474  5.5172 -0.9526
  654TIP3    H223378   5.164   4.755  14.419 -1.1755  1.4836 -0.5275
  655TIP3   OH223379   4.338   0.321  15.775  0.5370 -0.1184 -0.6269
  655TIP3    H123380   4.338   0.226  15.790 -0.3218 -0.1715 -0.9378
  655TIP3    H223381   4.428   0.341  15.749  1.0939 -0.6227  0.8093
  656TIP3   OH223382   4.277   1.783  14.404  0.1700  0.1751 -0.0783
  656TIP3    H123383   4.314   1.702  14.369 -0.5499 -0.4784  0.6508
  656TIP3    H223384   4.343   1.814  14.467 -0.2737 -0.7287  0.8580
  657TIP3   OH223385   4.555   6.524   1.749 -0.6420 -0.0248  0.0138
  657TIP3    H123386   4.595   6.509   1.835 -1.9876 -0.3927  0.6079
  657TIP3    H223387   4.565   6.618   1.733  0.2077 -0.0643  0.2466
  658TIP3   OH223388   5.345   2.189  13.833  0.1251  0.1259  0.2118
  658TIP3    H123389   5.411   2.149  13.891  0.1947 -0.3547 -0.1902
  658TIP3    H223390   5.277   2.220  13.893  1.4554  2.1412  0.7931
  659TIP3   OH223391   4.772   0.494  12.430 -0.2560 -0.1234  0.0229
  659TIP3    H123392   4.768   0.460  12.341  2.7808 -3.5737  1.0017
  659TIP3    H223393   4.716   0.435  12.482  0.7899 -0.3628  0.9199
  660TIP3   OH223394   4.308   0.215  14.015  0.2620 -0.2490  0.0879
  660TIP3    H123395   4.215   0.237  14.013 -0.3942 -2.7866  0.3553
  660TIP3    H223396   4.350   0.296  14.045 -1.6831  1.3209 -1.0687
  661TIP3   OH223397   3.844   3.785  12.802 -0.1354  0.2850  0.6712
  661TIP3    H123398   3.900   3.828  12.866  0.3473  0.5527  0.0793
  661TIP3    H223399   3.784   3.853  12.773  2.2303  1.3915 -2.1448
  662TIP3   OH223400   2.606   5.964  16.700  0.4271  0.2203  0.6478
  662TIP3    H123401   2.661   5.988  16.773  2.2790 -1.5365 -0.0826
  662TIP3    H223402   2.646   5.885  16.664 -1.3393  0.0981 -1.2696
  663TIP3   OH223403   5.275   5.786   4.259 -0.0992 -0.1422  0.0337
  663TIP3    H123404   5.323   5.786   4.176  0.1765 -0.6152  0.1848
  663TIP3    H223405   5.311   5.711   4.307  0.2788  0.5714  0.8898
  664TIP3   OH223406   5.247   2.218  13.466 -0.4958 -0.2396 -0.0200
  664TIP3    H123407   5.222   2.295  13.415  0.7224 -1.2183 -2.2228
  664TIP3    H223408   5.186   2.217  13.539 -1.1566  2.2649 -0.4430
  665TIP3   OH223409   0.367   2.397  16.208  0.3246  0.1406 -0.0261
  665TIP3    H123410   0.377   2.302  16.194  1.8112  0.0453  1.3676
  665TIP3    H223411   0.297   2.405  16.272 -1.9489  0.2239 -2.3529
  666TIP3   OH223412   3.197   4.676   1.635  0.0222  0.5073 -0.1172
  666TIP3    H123413   3.287   4.690   1.604 -0.3983  0.8383 -1.2550
  666TIP3    H223414   3.152   4.636   1.560 -1.5623  3.1847 -0.7209
  667TIP3   OH223415   4.339   6.332   4.869 -0.1919  0.3754 -0.0390
  667TIP3    H123416   4.358   6.418   4.831  0.2026  0.6323  0.7171
  667TIP3    H223417   4.421   6.283   4.861  0.2669  0.8296  1.4934
  668TIP3   OH223418   1.401   0.706  16.873 -0.2814 -0.2884 -0.0942
  668TIP3    H123419   1.314   0.744  16.867  0.0823  0.6021  0.1681
  668TIP3    H223420   1.431   0.699  16.782 -0.2546  0.2858 -0.1320
  669TIP3   OH223421   3.334   1.345   2.375  0.8477  0.2813  0.1124
  669TIP3    H123422   3.334   1.437   2.347 -0.9570 -0.2672 -1.8924
  669TIP3    H223423   3.260   1.338   2.435  0.2316 -0.0988 -0.6785
  670TIP3   OH223424   0.591   5.041  14.050  0.5672  0.0902  1.0273
  670TIP3    H123425   0.613   4.954  14.082  1.1505  0.8499  2.7812
  670TIP3    H223426   0.661   5.063  13.989  0.5126 -0.5699  0.7166
  671TIP3   OH223427   2.235   5.324   0.419  0.3314  0.7485  0.0900
  671TIP3    H123428   2.277   5.336   0.334  1.1984  1.5008  0.6020
  671TIP3    H223429   2.171   5.395   0.424  0.1778  0.6164  0.0075
  672TIP3   OH223430   2.289   4.026  16.847  0.1184  0.0442  0.9341
  672TIP3    H123431   2.258   3.936  16.856 -1.0469  0.3016 -0.3143
  672TIP3    H223432   2.228   4.078  16.899 -2.7695  0.7525 -2.7661
  673TIP3   OH223433   1.893   4.118   0.666 -0.3964  0.2831 -0.2788
  673TIP3    H123434   1.926   4.173   0.596  1.2147  0.4853  0.6006
  673TIP3    H223435   1.937   4.034   0.653  0.1363  0.4076  0.6285
  674TIP3   OH223436   6.748   3.597   6.275  0.1462 -0.0756 -0.4837
  674TIP3    H123437   6.797   3.586   6.356 -0.1225  0.0748 -0.3017
  674TIP3    H223438   6.657   3.585   6.299  0.1313 -0.9298 -0.9317
  675TIP3   OH223439   3.718   1.772  12.804  0.3758 -0.3245  0.3563
  675TIP3    H123440   3.641   1.813  12.765  0.9857 -0.0661 -0.6149
  675TIP3    H223441   3.792   1.812  12.758  1.0312 -1.6812  0.1795
  676TIP3   OH223442   3.388   1.693  15.641 -0.2360  0.0697 -0.1047
  676TIP3    H123443   3.305   1.687  15.594  0.4618 -0.0152 -1.3930
  676TIP3    H223444   3.454   1.700  15.571  0.8874 -0.4408  0.8707
  677TIP3   OH223445   5.390   2.837   1.760 -0.0221  0.6396  0.2050
  677TIP3    H123446   5.399   2.800   1.673  0.9930  0.5058  0.3549
  677TIP3    H223447   5.311   2.892   1.755  0.5989  1.4782 -1.0933
  678TIP3   OH223448   4.607   1.614  11.936  0.0484 -0.2559  0.2892
  678TIP3    H123449   4.522   1.577  11.910  1.3764 -2.7032 -0.9910
  678TIP3    H223450   4.635   1.665  11.860  1.0671 -2.0945 -0.6387
  679TIP3   OH223451   1.845   4.635  15.014 -0.0947 -0.2049 -0.6084
  679TIP3    H123452   1.891   4.553  15.032 -2.6923 -1.7554 -0.5727
  679TIP3    H223453   1.855   4.648  14.920  0.8618 -0.1773 -0.5186
  680TIP3   OH223454   3.372   2.458  13.002 -0.4757 -0.2666  0.4405
  680TIP3    H123455   3.325   2.483  13.082 -0.8236  0.6972 -0.0447
  680TIP3    H223456   3.459   2.433  13.032 -0.6408 -0.0325  1.1325
  681TIP3   OH223457   2.243   2.271  16.312 -0.0949 -0.2586 -0.3597
  681TIP3    H123458   2.172   2.214  16.341 -0.4031  0.0117 -0.5732
  681TIP3    H223459   2.199   2.343  16.267  0.3422 -0.3290 -0.9084
  682TIP3   OH223460   5.665   6.254   0.382 -0.5637 -0.3567  0.3735
  682TIP3    H123461   5.753   6.255   0.419 -0.1850  1.0975 -0.4912
  682TIP3    H223462   5.673   6.203   0.301 -0.3727  0.3299 -0.0388
  683TIP3   OH223463   6.701   1.470   4.415 -0.5774 -0.4774 -0.4681
  683TIP3    H123464   6.683   1.377   4.398 -1.4047 -0.5341  0.5439
  683TIP3    H223465   6.734   1.471   4.505 -1.9404  0.3216  0.0645
  684TIP3   OH223466   6.120   1.588   5.374  0.0609  0.1629 -0.2381
  684TIP3    H123467   6.120   1.664   5.316  1.8836  0.2983 -0.1146
  684TIP3    H223468   6.206   1.549   5.362 -0.3731 -1.1418  0.6752
  685TIP3   OH223469   4.479   4.533   2.040  0.7711  0.0842  0.6550
  685TIP3    H123470   4.486   4.605   1.977  0.1817 -0.5830 -0.1914
  685TIP3    H223471   4.388   4.534   2.068  0.0382 -1.8946 -1.3260
  686TIP3   OH223472   3.925   0.191   3.317  0.2143 -0.0100  0.2212
  686TIP3    H123473   3.978   0.259   3.360  0.7012 -0.2465 -0.0025
  686TIP3    H223474   3.989   0.127   3.285 -0.2905 -1.2011  1.4845
  687TIP3   OH223475   1.271   0.345   0.827 -0.6675  0.4280 -0.6407
  687TIP3    H123476   1.336   0.285   0.862 -1.2829  0.4681  0.6642
  687TIP3    H223477   1.222   0.375   0.905 -1.6500  1.0779 -1.4767
  688TIP3   OH223478   3.385   5.240   4.980  0.2776  0.2938 -0.0573
  688TIP3    H123479   3.305   5.292   4.989  1.3455  2.2928 -1.2398
  688TIP3    H223480   3.456   5.304   4.985  1.9829 -1.5843  2.6365
  689TIP3   OH223481   1.156   4.325   4.283 -0.1416  0.0779 -0.2522
  689TIP3    H123482   1.191   4.260   4.222  0.2892 -1.0000  1.0860
  689TIP3    H223483   1.230   4.346   4.340 -0.3208  1.6630 -0.5652
  690TIP3   OH223484   4.285   0.561  17.153  0.2618 -0.3727  0.1213
  690TIP3    H123485   4.247   0.574  17.239 -0.5262  0.6740 -0.3601
  690TIP3    H223486   4.232   0.491  17.114  0.8960 -1.1498  0.6336
  691TIP3   OH223487   2.455   6.612   1.133  0.3079  0.1796 -0.0165
  691TIP3    H123488   2.520   6.675   1.162 -0.0135  0.5785 -0.1601
  691TIP3    H223489   2.397   6.600   1.209 -0.1779  0.7673 -0.2861
  692TIP3   OH223490   2.024   4.770   4.943  0.5109  0.4392 -0.3297
  692TIP3    H123491   1.992   4.697   4.889  0.8996  0.3129 -0.3908
  692TIP3    H223492   1.969   4.844   4.917 -0.2661  0.0445  0.1280
  693TIP3   OH223493   0.109   0.855  10.905 -0.0049  0.4108  0.2679
  693TIP3    H123494   0.186   0.909  10.925  1.2944 -1.4351  0.5513
  693TIP3    H223495   0.141   0.765  10.912 -2.4219 -0.4575  1.3052
  694TIP3   OH223496   2.940   3.654  15.633  0.1022 -0.4906 -0.7030
  694TIP3    H123497   2.986   3.571  15.628  0.5935 -0.1834 -1.7118
  694TIP3    H223498   2.858   3.639  15.584 -1.0335 -1.1072  1.2899
  695TIP3   OH223499   1.320   6.470   3.228 -1.1225  0.2147  0.8111
  695TIP3    H123500   1.350   6.445   3.141  0.5007  0.6593  1.2076
  695TIP3    H223501   1.256   6.403   3.251 -0.7314 -0.5566 -0.2674
  696TIP3   OH223502   1.379   2.469  13.813  1.2119 -0.2973  0.2190
  696TIP3    H123503   1.361   2.399  13.876  2.3961  0.7810  1.8318
  696TIP3    H223504   1.447   2.432  13.755  1.4855 -0.6547  0.7621
  697TIP3   OH223505   6.460   5.589   1.731 -0.0562 -0.5193  0.2710
  697TIP3    H123506   6.548   5.596   1.768 -0.3498 -2.2435  1.4229
  697TIP3    H223507   6.417   5.523   1.785 -1.5916 -0.7676 -1.1785
  698TIP3   OH223508   4.667   5.865   2.051  0.2452 -0.1989 -0.7021
  698TIP3    H123509   4.751   5.872   2.004  0.3837 -0.2278 -0.4606
  698TIP3    H223510   4.692   5.846   2.142 -0.0019  0.4158 -0.5008
  699TIP3   OH223511   5.120   5.357  16.402 -0.0734  0.5559  0.3557
  699TIP3    H123512   5.148   5.277  16.446 -1.3142 -0.5661 -0.7902
  699TIP3    H223513   5.148   5.345  16.311  0.2320  1.6798  0.2951
  700TIP3   OH223514   6.628   6.512  12.673  0.2380 -0.0980  0.2399
  700TIP3    H123515   6.654   6.587  12.727  0.3503 -0.1657  0.2801
  700TIP3    H223516   6.643   6.540  12.583  0.4170 -0.1241  0.2614
  701TIP3   OH223517   4.296   4.942   2.954  0.0028  0.4827  0.7441
  701TIP3    H123518   4.294   5.008   2.884 -0.2050  0.6902  0.9477
  701TIP3    H223519   4.374   4.889   2.934  0.6047  1.2517  1.0010
  702TIP3   OH223520   0.329   5.624   1.554  0.0618  0.1016  0.0975
  702TIP3    H123521   0.280   5.638   1.635 -2.5525  1.7516 -1.6144
  702TIP3    H223522   0.383   5.702   1.544  0.2949 -0.0480  0.1669
  703TIP3   OH223523   5.590   0.445  13.740  0.0755  0.0646 -0.0929
  703TIP3    H123524   5.525   0.422  13.807 -1.3478 -0.5066 -1.6025
  703TIP3    H223525   5.623   0.360  13.710 -1.4097  0.1282 -2.0776
  704TIP3   OH223526   2.800   0.404   5.908  0.2160 -0.1786  0.4079
  704TIP3    H123527   2.888   0.427   5.879 -0.0924 -0.5160 -0.8581
  704TIP3    H223528   2.743   0.431   5.835 -0.4311 -2.4027  0.0139
  705TIP3   OH223529   2.958   4.827  14.706 -1.0334  0.1630 -0.0296
  705TIP3    H123530   2.905   4.904  14.726 -1.1684 -0.1972  1.0988
  705TIP3    H223531   2.926   4.796  14.622 -0.8724  1.4185 -0.5687
  706TIP3   OH223532   0.631   5.456   3.103 -0.1476  0.1116  0.1834
  706TIP3    H123533   0.537   5.441   3.099 -0.1889  0.6264 -1.7844
  706TIP3    H223534   0.658   5.421   3.188 -1.8709 -1.3900  0.1543
  707TIP3   OH223535   4.482   0.732   1.808  0.2087  0.0180  0.1521
  707TIP3    H123536   4.532   0.665   1.856 -0.0318 -0.5843 -0.4264
  707TIP3    H223537   4.450   0.687   1.730  0.5678  0.9797 -0.5762
  708TIP3   OH223538   5.352   5.262  15.924  0.1596 -0.1883 -0.0394
  708TIP3    H123539   5.412   5.189  15.935  1.3171  0.7589  0.1108
  708TIP3    H223540   5.403   5.329  15.879  0.1038  1.6862  2.4671
  709TIP3   OH223541   6.227   6.475  12.217 -0.2777  0.1072 -0.0873
  709TIP3    H123542   6.174   6.501  12.292 -0.7947  0.3109 -0.5200
  709TIP3    H223543   6.173   6.494  12.141 -0.7769 -2.4024 -0.4441
  710TIP3   OH223544   6.607   0.987   5.245 -0.3065 -0.1309  0.1392
  710TIP3    H123545   6.524   0.942   5.261 -0.2480 -0.6742 -0.9705
  710TIP3    H223546   6.583   1.069   5.203 -0.2621 -0.7122 -1.0682
  711TIP3   OH223547   6.073   3.569   1.339  0.0437  0.7026 -0.3902
  711TIP3    H123548   6.003   3.572   1.274  0.4015 -2.4283 -1.0754
  711TIP3    H223549   6.140   3.628   1.305 -1.0255  1.4377 -1.2768
  712TIP3   OH223550   0.766   2.111  14.930  0.1510  0.1569 -0.1490
  712TIP3    H123551   0.824   2.096  15.004  0.9988 -1.5310 -1.0890
  712TIP3    H223552   0.678   2.090  14.963  0.7030 -2.2979  0.0064
  713TIP3   OH223553   6.739   1.511   1.163 -0.2986  0.4476  0.3601
  713TIP3    H123554   6.754   1.478   1.251 -1.9235  0.6442  0.7515
  713TIP3    H223555   6.665   1.459   1.131  0.3834  0.2625 -0.9623
  714TIP3   OH223556   3.158   6.176  14.727  0.0281 -0.2469  0.2693
  714TIP3    H123557   3.172   6.084  14.706 -1.2907 -0.2763 -0.6191
  714TIP3    H223558   3.064   6.182  14.745 -0.1817  1.1752 -1.0901
  715TIP3   OH223559   6.732   6.295  11.604  0.2369  0.0023 -0.4739
  715TIP3    H123560   6.690   6.294  11.690  1.8760 -0.4079  0.3571
  715TIP3    H223561   6.668   6.337  11.547 -0.3837  1.4626  1.2059
  716TIP3   OH223562   1.708   6.693  16.703  0.2215  0.1268  0.8388
  716TIP3    H123563   1.681   6.677  16.612  1.2942 -1.3201  0.7472
  716TIP3    H223564   1.764   6.771  16.697  0.8817 -0.3748  0.1125
  717TIP3   OH223565   3.051   4.869   6.917 -0.3712  0.0951 -0.3062
  717TIP3    H123566   3.129   4.831   6.876  0.1708  1.0442 -0.1935
  717TIP3    H223567   2.983   4.803   6.906  0.4362 -0.7234 -0.4627
  718TIP3   OH223568   3.170   1.321   3.797  0.0081  0.0475  0.1936
  718TIP3    H123569   3.166   1.416   3.810  0.7785 -0.0045  0.8771
  718TIP3    H223570   3.088   1.299   3.752  0.1485  1.1384 -0.6261
  719TIP3   OH223571   2.365   6.664  15.794 -0.1700 -0.0624  0.4785
  719TIP3    H123572   2.344   6.696  15.882  0.7435  0.6975  0.4442
  719TIP3    H223573   2.451   6.623  15.804  0.0577  0.2586 -0.1033
  720TIP3   OH223574   4.813   6.101   2.390 -0.2095  0.3707  1.0193
  720TIP3    H123575   4.754   6.120   2.464 -0.8735  1.2375  0.2969
  720TIP3    H223576   4.822   6.006   2.390 -2.1743  0.1410  0.7654
  721TIP3   OH223577   2.705   0.481   1.620  0.0741 -0.7287 -0.0614
  721TIP3    H123578   2.644   0.416   1.586  0.8732 -1.4435 -0.1505
  721TIP3    H223579   2.650   0.540   1.671 -0.7777 -1.0218 -0.6137
  722TIP3   OH223580   4.474   4.210   2.570  0.7023  0.0905  0.4543
  722TIP3    H123581   4.474   4.125   2.527 -1.8192  0.4717 -0.4836
  722TIP3    H223582   4.565   4.224   2.596  1.1659 -2.9291  0.7976
  723TIP3   OH223583   1.276   0.386   4.010  0.0366  0.0653  0.2958
  723TIP3    H123584   1.210   0.366   3.943 -0.1346  0.1308  0.4437
  723TIP3    H223585   1.268   0.315   4.073  1.5894 -1.1267 -0.7695
  724TIP3   OH223586   6.104   0.902   5.439 -0.0167  0.0051  0.2651
  724TIP3    H123587   6.085   0.968   5.372 -1.9820 -1.2739 -0.5291
  724TIP3    H223588   6.119   0.952   5.519  0.4043  1.4764 -0.6944
  725TIP3   OH223589   4.436   1.236   5.724 -0.6491  0.4261  0.1622
  725TIP3    H123590   4.528   1.210   5.735 -0.6214  0.3419 -0.2580
  725TIP3    H223591   4.387   1.155   5.740 -0.4556 -0.6082 -3.5395
  726TIP3   OH223592   0.605   2.313  16.773  0.1539 -0.6235  0.1767
  726TIP3    H123593   0.649   2.326  16.857  0.4933 -2.3984  0.3139
  726TIP3    H223594   0.642   2.380  16.716 -0.7406  1.2012  1.6469
  727TIP3   OH223595   6.649   5.661   3.040 -0.2515 -0.4301 -0.3107
  727TIP3    H123596   6.656   5.647   2.946 -0.8202  1.2348 -0.6404
  727TIP3    H223597   6.562   5.626   3.062  0.1676 -1.4602 -0.2593
  728TIP3   OH223598   5.343   2.690   3.379  0.3134  0.0505 -0.5220
  728TIP3    H123599   5.439   2.686   3.376  0.3287  0.4606 -0.5968
  728TIP3    H223600   5.318   2.617   3.436  0.6111 -0.7214 -1.3438
  729TIP3   OH223601   4.429   3.283  15.495 -0.2645  0.0711  0.0908
  729TIP3    H123602   4.382   3.332  15.427  0.6166  0.8441  0.0167
  729TIP3    H223603   4.482   3.219  15.446  0.3650  0.6235  0.0355
  730TIP3   OH223604   6.165   6.445  15.343 -0.4511 -0.1772 -0.0453
  730TIP3    H123605   6.114   6.510  15.391 -1.6505  0.3539 -1.9142
  730TIP3    H223606   6.228   6.497  15.293 -0.6402 -0.5207 -0.6567
  731TIP3   OH223607   6.402   5.331  13.797 -0.3175 -0.1423 -0.2465
  731TIP3    H123608   6.330   5.317  13.858 -0.5192  2.7813  0.3312
  731TIP3    H223609   6.374   5.406  13.744  0.7263 -1.3231 -2.6092
  732TIP3   OH223610   5.085   2.487  13.717  0.2188 -0.5274 -0.6150
  732TIP3    H123611   5.117   2.546  13.648  1.2467 -0.8469 -0.4369
  732TIP3    H223612   5.064   2.545  13.790  0.1065 -0.2752 -0.8460
  733TIP3   OH223613   5.411   0.551  15.663 -0.4150 -0.5042 -0.4791
  733TIP3    H123614   5.384   0.471  15.618  1.7494 -1.8838  0.5014
  733TIP3    H223615   5.359   0.552  15.744 -0.9627 -0.5117 -0.8259
  734TIP3   OH223616   3.473   4.481   3.762  0.4288 -0.1242 -0.0154
  734TIP3    H123617   3.510   4.405   3.807  0.2347 -0.0477  0.2768
  734TIP3    H223618   3.413   4.444   3.698  1.6673 -0.2926 -1.1204
  735TIP3   OH223619   1.569   3.356   2.666  0.0643  0.0650  0.2881
  735TIP3    H123620   1.599   3.265   2.669  1.7065  0.5650  0.1130
  735TIP3    H223621   1.517   3.366   2.745 -1.3495 -1.4034 -0.4010
  736TIP3   OH223622   3.329   4.401  12.740 -0.9698  0.5669  0.4646
  736TIP3    H123623   3.254   4.397  12.800 -0.6871  1.9142  0.9370
  736TIP3    H223624   3.291   4.381  12.654 -1.6335 -0.0084  0.8732
  737TIP3   OH223625   6.139   5.788   4.203  0.3958 -0.3124  0.9830
  737TIP3    H123626   6.107   5.864   4.155  2.6296  0.8215  1.1404
  737TIP3    H223627   6.188   5.738   4.137 -1.8901 -2.2373  0.6310
  738TIP3   OH223628   0.141   1.303  16.000 -0.0320  0.2872  0.6661
  738TIP3    H123629   0.063   1.250  15.981  1.1133 -2.0228  2.0131
  738TIP3    H223630   0.107   1.377  16.050 -1.5520  0.3324 -0.3357
  739TIP3   OH223631   5.912   2.708   5.343 -0.4171  0.4526 -0.0931
  739TIP3    H123632   5.968   2.655   5.400 -1.1796 -0.3749 -0.0907
  739TIP3    H223633   5.838   2.732   5.398 -1.2465 -0.4964 -0.7480
  740TIP3   OH223634   4.851   0.184   1.296 -0.6605  0.7567  0.1888
  740TIP3    H123635   4.826   0.156   1.384  0.1194 -2.5268 -0.5249
  740TIP3    H223636   4.769   0.189   1.247 -0.8017 -0.8766  0.2314
  741TIP3   OH223637   2.367   4.616  11.072 -0.1777  0.8735 -0.1841
  741TIP3    H123638   2.294   4.641  11.015 -0.7229  2.2756  1.0450
  741TIP3    H223639   2.430   4.687  11.063  0.8982 -0.1542 -0.9590
  742TIP3   OH223640   2.822   4.970  15.206  0.5554 -0.0927  0.3749
  742TIP3    H123641   2.845   4.886  15.245 -1.0441 -1.7105 -1.8848
  742TIP3    H223642   2.860   4.967  15.118 -0.8183  0.8735 -0.2871
  743TIP3   OH223643   3.701   4.503  14.400  0.7986  0.8660  0.3176
  743TIP3    H123644   3.769   4.484  14.335 -0.3712  0.6599 -0.8793
  743TIP3    H223645   3.750   4.524  14.479  2.2517 -2.0350  0.3169
  744TIP3   OH223646   3.838   3.751   1.022 -0.2364  0.0042 -0.0300
  744TIP3    H123647   3.847   3.657   1.007  2.0114  0.2334 -0.4486
  744TIP3    H223648   3.903   3.791   0.964  1.5314  1.5546  2.7868
  745TIP3   OH223649   2.874   0.821  14.219  0.2361  0.2115  0.4433
  745TIP3    H123650   2.829   0.737  14.223 -0.1757  0.3448 -0.9223
  745TIP3    H223651   2.811   0.880  14.177  0.2793  1.3732  1.9436
  746TIP3   OH223652   2.623   3.610  13.998  0.5965 -0.0838 -0.8173
  746TIP3    H123653   2.658   3.530  14.037 -0.5799 -0.3336 -0.2262
  746TIP3    H223654   2.630   3.595  13.904 -1.5882 -1.8457 -0.7723
  747TIP3   OH223655   2.535   5.498  14.380  0.3234 -0.9624  0.6413
  747TIP3    H123656   2.600   5.429  14.369  0.2077 -0.9463 -0.2472
  747TIP3    H223657   2.575   5.576  14.341  0.6920 -0.3611  2.1553
  748TIP3   OH223658   1.552   4.957  16.738 -0.1205 -0.1070 -0.3105
  748TIP3    H123659   1.483   5.022  16.725  0.5737  0.2726 -2.4470
  748TIP3    H223660   1.511   4.874  16.718 -0.2182  0.0025 -0.5599
  749TIP3   OH223661   0.882   5.537  16.488 -0.5231  0.1691  0.7618
  749TIP3    H123662   0.942   5.479  16.534 -1.5156 -0.7573  0.9433
  749TIP3    H223663   0.820   5.566  16.556 -0.3248  1.0596  0.5731
  750TIP3   OH223664   1.287   6.751  10.377  0.0817 -0.5090 -0.8254
  750TIP3    H123665   1.250   6.819  10.433  0.7081 -1.4879  0.8475
  750TIP3    H223666   1.381   6.771  10.374  0.3897 -1.6359  0.2559
  751TIP3   OH223667   4.629   5.238   3.690 -0.0617 -0.2102 -0.1260
  751TIP3    H123668   4.722   5.234   3.715 -0.1528 -0.0060  0.2573
  751TIP3    H223669   4.628   5.287   3.608  0.1631 -0.1488 -0.0931
  752TIP3   OH223670   5.366   5.374   1.973  0.4085  0.1210  0.0218
  752TIP3    H123671   5.374   5.402   2.064 -0.3435  1.4881 -0.3149
  752TIP3    H223672   5.318   5.291   1.978  3.7164 -1.9245  1.1308
  753TIP3   OH223673   0.680   1.407   4.901 -0.2600 -0.1960 -0.3402
  753TIP3    H123674   0.700   1.346   4.830  0.6020 -0.5497  0.2014
  753TIP3    H223675   0.753   1.469   4.901 -0.5593  0.1612 -0.1468
  754TIP3   OH223676   3.124   6.655   1.120 -0.1153  0.2297 -0.8522
  754TIP3    H123677   3.121   6.727   1.183  0.2138  0.7811 -1.4459
  754TIP3    H223678   3.170   6.692   1.044  0.1398 -0.6394 -1.1312
  755TIP3   OH223679   0.632   3.101   5.732  0.5343  0.0039 -0.2834
  755TIP3    H123680   0.669   3.059   5.654  0.7607  0.4086 -0.3965
  755TIP3    H223681   0.548   3.138   5.701  0.9614  0.8013 -0.5306
  756TIP3   OH223682   1.732   2.885   5.959 -0.0863  0.5710  0.7716
  756TIP3    H123683   1.729   2.841   5.874  1.1138 -0.0929  1.0538
  756TIP3    H223684   1.817   2.928   5.962 -1.7853  4.5066 -0.1947
  757TIP3   OH223685   4.051   0.074  15.984 -0.1018  0.5918 -0.1116
  757TIP3    H123686   4.022   0.086  15.894  2.6560 -0.2204 -1.2307
  757TIP3    H223687   4.058  -0.021  15.995 -1.2002  0.6397  1.2832
  758TIP3   OH223688   3.191   5.110   5.810 -0.3706  0.2701 -0.2570
  758TIP3    H123689   3.164   5.166   5.737 -3.1294 -2.3996 -1.4824
  758TIP3    H223690   3.121   5.120   5.875  0.6923  0.5245  0.8957
  759TIP3   OH223691   1.856   1.693  14.020 -0.2334  0.0809 -0.2301
  759TIP3    H123692   1.765   1.680  13.994 -0.0608  0.7687 -1.2158
  759TIP3    H223693   1.862   1.786  14.041 -0.3509 -0.4081  2.3147
  760TIP3   OH223694   3.373   0.139   4.025 -0.0879  0.1246  0.3318
  760TIP3    H123695   3.432   0.147   3.950  0.2365  0.5898  0.6335
  760TIP3    H223696   3.291   0.177   3.995  0.3644  1.3456  0.5571
  761TIP3   OH223697   0.475   1.905   5.943 -0.3201  0.6311 -0.2888
  761TIP3    H123698   0.471   1.821   5.897 -0.7960 -0.5055  1.7343
  761TIP3    H223699   0.394   1.950   5.919 -0.8275 -0.1812 -0.0997
  762TIP3   OH223700   3.314   2.650  12.374 -0.1432 -0.2367  0.5198
  762TIP3    H123701   3.271   2.569  12.400  1.7907 -1.7104 -0.5213
  762TIP3    H223702   3.253   2.692  12.314 -1.0788 -1.0556  0.8790
  763TIP3   OH223703   6.511   3.414   1.581 -0.0271 -0.1027 -0.4806
  763TIP3    H123704   6.427   3.384   1.545 -0.4471  0.6178 -0.1129
  763TIP3    H223705   6.539   3.342   1.638 -1.7785  0.7683  1.6095
  764TIP3   OH223706   0.964   2.870   4.866 -0.1893 -0.0909 -0.6522
  764TIP3    H123707   0.987   2.857   4.958  1.1327 -0.1008 -0.9631
  764TIP3    H223708   0.881   2.918   4.869  0.5782  1.2710  0.5869
  765TIP3   OH223709   4.789   2.955   1.584  0.2442 -0.2029  0.1234
  765TIP3    H123710   4.714   2.951   1.643  1.5706 -1.0517  1.8179
  765TIP3    H223711   4.818   3.046   1.589 -0.1789 -0.0616  0.0751
  766TIP3   OH223712   2.833   2.201  13.083  0.0131  0.0210 -0.0004
  766TIP3    H123713   2.920   2.162  13.079 -0.1235 -0.3587  0.4873
  766TIP3    H223714   2.848   2.295  13.083  0.4231 -0.0426  0.0807
  767TIP3   OH223715   1.121   6.121   5.374  0.5525 -0.1983  0.5134
  767TIP3    H123716   1.133   6.062   5.448  2.7016 -2.6614 -1.6197
  767TIP3    H223717   1.176   6.197   5.395 -0.6177  0.1964  2.3646
  768TIP3   OH223718   3.378   1.138   2.977 -0.4091  0.2778 -0.1687
  768TIP3    H123719   3.326   1.084   3.037 -1.1765  0.5989 -0.5245
  768TIP3    H223720   3.380   1.088   2.896 -2.5802  1.4634 -1.0624
  769TIP3   OH223721   6.600   5.231  11.534 -0.1605  0.5538  0.4361
  769TIP3    H123722   6.558   5.295  11.477  0.2278  0.3820 -0.0459
  769TIP3    H223723   6.537   5.158  11.539  0.1189  0.2527 -0.3634
  770TIP3   OH223724   2.508   4.822  11.964 -0.1373 -0.5513 -0.2171
  770TIP3    H123725   2.471   4.874  11.892 -0.6985 -1.4621 -0.6222
  770TIP3    H223726   2.507   4.880  12.039  1.7732  0.9039 -1.2292
  771TIP3   OH223727   0.106   5.680  16.560  0.0382 -0.6895  0.0201
  771TIP3    H123728   0.178   5.680  16.498  0.5942  0.8546  0.6276
  771TIP3    H223729   0.070   5.769  16.556 -0.2476 -0.7037  1.5124
  772TIP3   OH223730   2.438   6.349   3.630 -0.1301  0.5657 -0.1527
  772TIP3    H123731   2.434   6.352   3.726  0.7802  1.0327 -0.1110
  772TIP3    H223732   2.527   6.378   3.610 -0.9031  2.3650 -1.2146
  773TIP3   OH223733   3.497   3.136  15.930 -0.1039  0.5003  0.0996
  773TIP3    H123734   3.432   3.107  15.866  0.9673 -0.3846 -0.6313
  773TIP3    H223735   3.449   3.193  15.989 -1.4251  0.2722 -0.7169
  774TIP3   OH223736   3.129   5.454   1.438 -0.2738  0.0770  0.3362
  774TIP3    H123737   3.128   5.385   1.372  1.0896  0.7578 -0.4402
  774TIP3    H223738   3.057   5.511   1.413  0.4466  0.5253 -0.8261
  775TIP3   OH223739   1.151   3.438   4.461  1.1223  0.1535  0.0684
  775TIP3    H123740   1.235   3.484   4.460  1.5904 -0.6347  0.9317
  775TIP3    H223741   1.128   3.429   4.369  0.9908  2.1140 -0.1244
  776TIP3   OH223742   5.641   1.977  16.682  0.0199 -0.1950  0.1339
  776TIP3    H123743   5.706   2.044  16.658 -2.0333  1.3411 -1.4644
  776TIP3    H223744   5.673   1.897  16.641  0.0462  0.9415 -2.2662
  777TIP3   OH223745   3.814   4.672  14.035 -0.3784  0.2186 -0.4185
  777TIP3    H123746   3.788   4.745  14.091  0.4509  1.3380 -1.4113
  777TIP3    H223747   3.866   4.714  13.965  2.3520 -1.6026  0.3652
  778TIP3   OH223748   0.304   5.794   2.823  0.8728  0.0140 -0.5671
  778TIP3    H123749   0.270   5.720   2.771 -0.3792  1.0637 -1.2946
  778TIP3    H223750   0.359   5.752   2.890  0.5482 -1.5474 -1.2201
  779TIP3   OH223751   5.154   2.840   1.052  0.1407  0.2388 -0.1536
  779TIP3    H123752   5.087   2.831   0.983 -1.2423  1.2538  0.9866
  779TIP3    H223753   5.113   2.804   1.130  0.6623  1.4561  0.7186
  780TIP3   OH223754   6.442   1.238  14.221  0.4169 -0.0707  0.2635
  780TIP3    H123755   6.524   1.210  14.181  0.2243  0.9865 -0.9344
  780TIP3    H223756   6.422   1.321  14.179 -0.8127  0.1258  1.1881
  781TIP3   OH223757   5.132   3.950   0.196  0.6264 -0.1768 -0.2702
  781TIP3    H123758   5.205   3.913   0.147  0.1465 -0.0650 -1.0972
  781TIP3    H223759   5.055   3.904   0.162 -0.0708  1.9431 -1.7689
  782TIP3   OH223760   5.929   1.242  12.964  0.6173 -0.8099  0.0557
  782TIP3    H123761   5.854   1.271  12.913  1.1060  1.0531  0.3197
  782TIP3    H223762   5.904   1.258  13.055  2.6299  3.6170  0.0740
  783TIP3   OH223763   5.959   2.379   4.259  0.0116  0.4033  0.4731
  783TIP3    H123764   6.037   2.371   4.313 -0.6814  2.6795  1.9519
  783TIP3    H223765   5.886   2.376   4.320 -1.2962 -3.1086 -0.9967
  784TIP3   OH223766   2.241   5.224  15.758  0.0467  0.1842 -0.2229
  784TIP3    H123767   2.275   5.256  15.674  0.9807  0.5673  0.2790
  784TIP3    H223768   2.216   5.134  15.741 -0.1712  0.3845 -1.0182
  785TIP3   OH223769   5.493   4.234   4.652  0.2486  0.1936  0.2648
  785TIP3    H123770   5.428   4.176   4.691 -1.8690  1.9734 -0.4270
  785TIP3    H223771   5.442   4.297   4.602  2.5397  1.6291 -0.4108
  786TIP3   OH223772   1.851   6.124   0.503 -0.0541  0.0241 -0.1819
  786TIP3    H123773   1.797   6.136   0.425 -1.4499  0.7509  0.8357
  786TIP3    H223774   1.821   6.041   0.540  1.9365 -1.3058 -1.3747
  787TIP3   OH223775   1.174   1.130  11.423 -0.1125 -0.3646  0.1140
  787TIP3    H123776   1.183   1.137  11.328  2.1158 -1.2700  0.1987
  787TIP3    H223777   1.166   1.036  11.440  2.8156 -0.5662  0.9545
  788TIP3   OH223778   1.211   1.864   6.473  0.3848  0.8633 -0.2246
  788TIP3    H123779   1.246   1.947   6.441 -0.2001  0.6007 -1.6067
  788TIP3    H223780   1.282   1.802   6.463  0.3917  0.9089 -0.4549
  789TIP3   OH223781   3.757   2.668   4.647  0.1264  0.3583  0.0524
  789TIP3    H123782   3.758   2.657   4.742  0.8670 -0.9205 -0.0706
  789TIP3    H223783   3.817   2.599   4.615  0.3786  1.1694 -1.2878
  790TIP3   OH223784   0.689   4.420  15.035 -0.6968 -0.2558  0.0553
  790TIP3    H123785   0.757   4.427  14.968 -0.6350  1.7321  0.2686
  790TIP3    H223786   0.619   4.477  15.005  0.3134  2.6969  2.7489
  791TIP3   OH223787   5.603   0.072   0.336  0.5851 -0.2120 -0.1299
  791TIP3    H123788   5.528   0.068   0.277 -0.0055  0.7682  0.5224
  791TIP3    H223789   5.679   0.080   0.278  0.0809  0.0230 -0.7681
  792TIP3   OH223790   5.588   5.103   2.222  0.3624  0.3586  0.0872
  792TIP3    H123791   5.618   5.191   2.244  1.5935 -0.0785  0.2330
  792TIP3    H223792   5.653   5.070   2.160  0.2990 -0.6813  0.5480
  793TIP3   OH223793   5.469   3.922   4.614 -0.2334 -0.1644 -0.2907
  793TIP3    H123794   5.508   3.868   4.545 -0.3225  0.2425 -0.6579
  793TIP3    H223795   5.505   3.885   4.695 -0.8293 -1.2217 -0.4902
  794TIP3   OH223796   2.641   4.767  14.069 -0.0723  0.4606  0.0191
  794TIP3    H123797   2.599   4.785  14.154  0.4208  1.1120  0.1310
  794TIP3    H223798   2.587   4.815  14.006 -0.0888  0.4665  0.0371
  795TIP3   OH223799   0.065   5.363  11.526  0.0062 -0.5781  0.3220
  795TIP3    H123800  -0.007   5.316  11.485  0.8943 -0.3809 -1.5491
  795TIP3    H223801   0.093   5.307  11.599 -0.1700 -2.0449 -0.7048
  796TIP3   OH223802   1.741   2.295  12.714 -0.7176  0.3180  0.6132
  796TIP3    H123803   1.831   2.284  12.683 -0.6393  1.6293  0.3035
  796TIP3    H223804   1.748   2.354  12.789 -1.3141  0.3704  0.6322
  797TIP3   OH223805   4.216   1.730   2.135 -0.4654  0.1513  0.5761
  797TIP3    H123806   4.152   1.736   2.064  0.3119  0.2552 -0.1266
  797TIP3    H223807   4.301   1.728   2.091  0.0209  0.0357  1.4977
  798TIP3   OH223808   5.850   6.056  14.733 -0.1941  0.8311 -0.1796
  798TIP3    H123809   5.911   6.125  14.758  0.3442  0.0152  0.8589
  798TIP3    H223810   5.782   6.101  14.682  0.3120  2.0562  0.1846
  799TIP3   OH223811   5.937   3.534  17.057 -0.2138 -0.3628 -0.2586
  799TIP3    H123812   5.994   3.525  16.981 -2.6914 -0.6532 -2.2413
  799TIP3    H223813   5.877   3.606  17.034 -1.0974 -0.5219  1.3743
  800TIP3   OH223814   6.500   0.136  15.536 -0.0318 -0.1631 -0.0921
  800TIP3    H123815   6.430   0.176  15.587 -1.2895 -0.5672 -1.4248
  800TIP3    H223816   6.580   0.175  15.569 -0.9643  1.0040  0.8538
  801TIP3   OH223817   4.344   0.533  16.563 -0.1349  0.3031  0.1618
  801TIP3    H123818   4.355   0.488  16.647 -1.0137  0.0225  0.1382
  801TIP3    H223819   4.403   0.608  16.568  1.1485 -0.6692  0.3259
  802TIP3   OH223820   0.936   0.226   4.232 -0.7816 -0.1009  0.7220
  802TIP3    H123821   0.890   0.284   4.170 -1.7903 -0.5597  1.0275
  802TIP3    H223822   1.018   0.206   4.188 -1.1905  0.1270 -0.1816
  803TIP3   OH223823   3.675   1.536   5.804  0.3643 -0.5413  0.0895
  803TIP3    H123824   3.756   1.582   5.828  1.0574 -2.1458  0.9586
  803TIP3    H223825   3.704   1.458   5.758 -0.8107  0.0212 -1.7149
  804TIP3   OH223826   2.681   0.022  11.315 -0.1663  0.2296 -0.0038
  804TIP3    H123827   2.628  -0.051  11.348  1.7320 -1.4389 -0.4359
  804TIP3    H223828   2.626   0.099  11.327 -1.8312 -1.1096  1.5192
  805TIP3   OH223829   3.798   0.681  13.061 -0.1192  0.0396 -0.4971
  805TIP3    H123830   3.788   0.611  13.125 -0.9393  0.3018 -0.3274
  805TIP3    H223831   3.893   0.685  13.045  0.4355  1.4344  2.4138
  806TIP3   OH223832   4.724   5.117  14.432 -0.0211 -0.5257  0.7919
  806TIP3    H123833   4.690   5.134  14.520  0.4929 -3.3222  1.6304
  806TIP3    H223834   4.655   5.066  14.390  1.1401 -2.1680  0.8322
  807TIP3   OH223835   6.684   1.538   3.319 -0.1006  0.8549 -0.1232
  807TIP3    H123836   6.693   1.566   3.410 -0.2683  2.0291 -0.4465
  807TIP3    H223837   6.604   1.486   3.317 -0.0518  0.7574  0.4101
  808TIP3   OH223838   4.562   1.151  13.698 -0.3959  0.0456  0.0023
  808TIP3    H123839   4.536   1.146  13.606 -1.0710 -1.5298  0.2519
  808TIP3    H223840   4.645   1.198  13.697  0.3893 -1.3038 -1.5912
  809TIP3   OH223841   1.597   3.676  12.071  0.0294  0.2054 -0.4380
  809TIP3    H123842   1.614   3.585  12.098  1.1121  0.7919  1.0003
  809TIP3    H223843   1.547   3.668  11.990 -1.3215 -1.6737  0.5090
  810TIP3   OH223844   5.450   2.705   1.234  0.0124  0.0217 -0.1361
  810TIP3    H123845   5.514   2.652   1.188 -2.2847 -0.5956 -2.9133
  810TIP3    H223846   5.395   2.642   1.281  0.9026  0.4836  1.5988
  811TIP3   OH223847   3.782   2.397  14.034 -0.5704 -0.1670 -0.4362
  811TIP3    H123848   3.727   2.475  14.021  1.5921  1.5901  0.2000
  811TIP3    H223849   3.787   2.387  14.129  1.2070  0.5691 -0.4045
  812TIP3   OH223850   5.092   5.880  11.349  0.0311  0.1181 -0.4367
  812TIP3    H123851   5.154   5.939  11.307  0.1369  0.2770 -0.0688
  812TIP3    H223852   5.112   5.888  11.443 -0.2205 -0.1997 -0.3540
  813TIP3   OH223853   0.276   2.314   3.204  0.1516  0.1722  0.1457
  813TIP3    H123854   0.237   2.398   3.178  0.5436  0.1158 -0.6449
  813TIP3    H223855   0.263   2.311   3.299 -0.8368  0.6285  0.0451
  814TIP3   OH223856   1.606   5.795  14.546 -0.4289 -0.5136 -0.1114
  814TIP3    H123857   1.681   5.760  14.498 -1.4879 -1.9367 -0.7947
  814TIP3    H223858   1.617   5.890  14.542  0.1851 -0.6290 -2.0959
  815TIP3   OH223859   5.420   4.873  10.672  0.1119  0.1157 -0.1216
  815TIP3    H123860   5.380   4.792  10.706 -0.7433 -0.2026 -1.7914
  815TIP3    H223861   5.370   4.943  10.713  1.3300 -0.1393  1.9191
  816TIP3   OH223862   1.551   0.224  13.549 -0.4787 -0.2594 -0.1773
  816TIP3    H123863   1.586   0.200  13.635 -0.3001  0.0596 -0.1579
  816TIP3    H223864   1.620   0.277  13.509 -0.7359 -0.0451 -0.3440
  817TIP3   OH223865   0.669   1.613  12.523  0.4417  0.1838 -0.0597
  817TIP3    H123866   0.681   1.708  12.524 -2.7510  0.6932  1.6294
  817TIP3    H223867   0.683   1.586  12.614 -2.3715 -0.2762  0.3357
  818TIP3   OH223868   5.535   3.926  11.783 -0.5821  0.0957 -0.1828
  818TIP3    H123869   5.535   3.975  11.701 -0.4182 -0.0461 -0.2690
  818TIP3    H223870   5.614   3.955  11.828 -0.5962  0.0668 -0.1399
  819TIP3   OH223871   5.758   3.897   5.937  0.1885 -0.5178  0.9123
  819TIP3    H123872   5.844   3.877   5.902 -0.5837 -0.4260 -1.1906
  819TIP3    H223873   5.763   3.989   5.963  1.0899 -0.8813  2.1220
  820TIP3   OH223874   5.034   0.938  16.775 -0.3376 -0.0878 -0.3726
  820TIP3    H123875   4.944   0.910  16.794 -1.8647  3.6744 -1.1001
  820TIP3    H223876   5.077   0.939  16.860 -1.6970  0.0839  0.3509
  821TIP3   OH223877   1.534   5.879   3.127 -0.0853 -0.0636  0.0891
  821TIP3    H123878   1.595   5.952   3.135  0.1560 -0.1996 -0.4266
  821TIP3    H223879   1.471   5.907   3.061 -0.1446 -0.2100  0.0820
  822TIP3   OH223880   6.409   6.598   1.442 -0.1303  0.1651  0.2898
  822TIP3    H123881   6.326   6.639   1.417  0.7174  1.0719 -1.1808
  822TIP3    H223882   6.476   6.656   1.407  1.1345 -1.0900  0.5342
  823TIP3   OH223883   5.019   3.912   5.811  0.6705  0.2674  0.1702
  823TIP3    H123884   5.015   4.000   5.849 -0.8707  0.3323 -0.1151
  823TIP3    H223885   5.110   3.904   5.781  0.9676  1.5626  0.6557
  824TIP3   OH223886   5.617   0.664   2.581 -0.4771 -0.2330 -0.2367
  824TIP3    H123887   5.537   0.660   2.633  0.0800  0.1969  0.6928
  824TIP3    H223888   5.687   0.676   2.646  0.2499  0.2858 -1.0825
  825TIP3   OH223889   0.524   3.241  16.393 -0.2979  0.7353 -0.1790
  825TIP3    H123890   0.453   3.188  16.429  1.5023 -2.1265 -0.5783
  825TIP3    H223891   0.576   3.181  16.341  2.5804  2.6257  0.2730
  826TIP3   OH223892   4.569   5.469   2.721 -0.1116 -0.0247 -0.5437
  826TIP3    H123893   4.586   5.382   2.758 -0.9021 -0.7868 -1.8780
  826TIP3    H223894   4.502   5.507   2.778  1.1440  0.2526  0.7931
  827TIP3   OH223895   0.939   5.885   0.351  0.3088 -0.2926 -0.5148
  827TIP3    H123896   0.937   5.793   0.378 -0.2030  0.2176  1.2938
  827TIP3    H223897   0.894   5.886   0.267 -2.4935 -1.2757  0.8648
  828TIP3   OH223898   5.531   6.442  16.127 -0.0099 -0.5981 -0.5001
  828TIP3    H123899   5.621   6.412  16.114 -0.0078 -0.1672 -1.5154
  828TIP3    H223900   5.537   6.538  16.124 -0.3999 -0.5469  0.1392
  829TIP3   OH223901   1.463   4.569   0.055  0.3886 -0.5113 -0.3126
  829TIP3    H123902   1.447   4.661   0.035 -0.8250 -0.6752 -0.1787
  829TIP3    H223903   1.549   4.550   0.016  0.1965  0.4050 -1.2188
  830TIP3   OH223904   2.742   1.673   0.165 -0.0228 -0.6189  0.0655
  830TIP3    H123905   2.797   1.595   0.158  0.0687 -0.7751  2.1139
  830TIP3    H223906   2.767   1.714   0.247 -1.6493  0.3502  0.1356
  831TIP3   OH223907   0.800   4.048   5.893 -0.3002  0.0792  0.1055
  831TIP3    H123908   0.862   4.107   5.849 -1.4115  1.1800 -0.0550
  831TIP3    H223909   0.828   4.048   5.985  2.5082 -2.8398 -0.5877
  832TIP3   OH223910   3.270   1.409  14.003 -0.0591  0.2319  0.3515
  832TIP3    H123911   3.207   1.346  14.038  0.5297 -0.9188 -0.5813
  832TIP3    H223912   3.333   1.356  13.955  0.3596  1.5534 -0.6240
  833TIP3   OH223913   6.286   5.063  16.542  0.5234 -0.0270 -0.0351
  833TIP3    H123914   6.303   5.079  16.635  2.3267 -2.7782  0.2397
  833TIP3    H223915   6.372   5.072  16.500  0.3107 -1.5814 -0.8907
  834TIP3   OH223916   2.235   6.430   5.272 -0.1167 -0.1310 -0.3104
  834TIP3    H123917   2.314   6.470   5.309 -0.7602  0.6641  0.2460
  834TIP3    H223918   2.228   6.346   5.317 -0.0673  0.1784  0.2863
  835TIP3   OH223919   0.354   4.344  14.256 -0.1701  0.4474 -0.9653
  835TIP3    H123920   0.430   4.289  14.237 -0.2195 -0.0333  0.1751
  835TIP3    H223921   0.283   4.282  14.273  0.4851  0.6150  3.5637
  836TIP3   OH223922   0.984   5.766   5.499 -0.3792 -0.0249  0.3358
  836TIP3    H123923   1.075   5.797   5.491  0.4400 -2.0235  1.0601
  836TIP3    H223924   0.966   5.722   5.416 -0.8521  0.7298  0.0320
  837TIP3   OH223925   1.075   6.361   1.825 -0.7571 -0.8547 -0.7202
  837TIP3    H123926   1.106   6.380   1.737 -2.3105  1.4695 -0.8643
  837TIP3    H223927   1.064   6.266   1.828 -0.4128 -0.9988 -2.9175
  838TIP3   OH223928   3.895   5.202  13.254 -0.0812  0.1941 -0.5388
  838TIP3    H123929   3.888   5.278  13.197  1.4803  0.6357 -0.1787
  838TIP3    H223930   3.897   5.127  13.195  0.7053  0.5958 -1.0357
  839TIP3   OH223931   3.521   1.744   0.783  0.3100  0.3487  0.0830
  839TIP3    H123932   3.435   1.760   0.745 -1.0754 -0.5967  2.6284
  839TIP3    H223933   3.545   1.657   0.751  0.0997  0.3969 -0.2079
  840TIP3   OH223934   5.934   4.337   4.731 -0.3071  0.2428 -0.1344
  840TIP3    H123935   5.889   4.418   4.709 -0.7816 -0.1350 -0.6009
  840TIP3    H223936   5.873   4.268   4.705  1.0346 -0.3336 -2.0377
  841TIP3   OH223937   6.595   2.472  10.333 -0.0410 -0.4289 -0.0351
  841TIP3    H123938   6.541   2.414  10.279 -1.2086 -0.2822  0.9300
  841TIP3    H223939   6.535   2.539  10.364  0.4942 -0.7107  1.7334
  842TIP3   OH223940   3.555   4.408   5.513 -0.4031  1.2503  0.0484
  842TIP3    H123941   3.601   4.409   5.428  1.9362  1.7112  1.2374
  842TIP3    H223942   3.492   4.336   5.505  1.6511 -0.5465 -1.1830
  843TIP3   OH223943   0.782   0.826   5.373  0.2740  0.2434 -0.7525
  843TIP3    H123944   0.689   0.804   5.374  0.4918 -0.6967 -0.5753
  843TIP3    H223945   0.805   0.840   5.465  0.1720  1.1174 -0.8481
  844TIP3   OH223946   4.775   4.150  14.679 -0.3119  0.0739  0.5851
  844TIP3    H123947   4.863   4.183  14.697  0.0949 -0.8480  0.3527
  844TIP3    H223948   4.774   4.137  14.584 -0.1328 -1.4088  0.7532
  845TIP3   OH223949   6.181   4.770  15.369 -0.0873 -0.1267 -0.6126
  845TIP3    H123950   6.227   4.708  15.424  0.1589  0.4532 -0.1523
  845TIP3    H223951   6.199   4.856  15.409 -1.8853  0.0815 -0.1592
  846TIP3   OH223952   0.548   4.304   4.541 -0.5762 -0.0230 -0.2869
  846TIP3    H123953   0.636   4.298   4.505 -1.0846  2.3138 -2.1666
  846TIP3    H223954   0.548   4.384   4.593 -1.0471 -1.1646  1.5687
  847TIP3   OH223955   0.054   6.392   4.142  0.2894 -0.3064  0.5794
  847TIP3    H123956  -0.016   6.373   4.205 -2.2263  0.2154 -1.8522
  847TIP3    H223957   0.075   6.484   4.157 -3.6564  1.2802 -2.1228
  848TIP3   OH223958   5.763   1.140  13.260 -0.0445 -0.6728  0.1188
  848TIP3    H123959   5.836   1.159  13.319  0.8097  1.6665 -1.5421
  848TIP3    H223960   5.686   1.137  13.317  0.8042  0.9861  1.4549
  849TIP3   OH223961   5.127   0.087  15.880  0.3112  0.0976  0.0009
  849TIP3    H123962   5.144   0.077  15.787  0.9611 -1.0657  0.2269
  849TIP3    H223963   5.079   0.008  15.905 -0.2294  0.5970  0.5763
  850TIP3   OH223964   2.575   2.391   3.526 -0.0172 -0.2553  0.3665
  850TIP3    H123965   2.668   2.411   3.519  0.2483 -1.3661  0.4517
  850TIP3    H223966   2.561   2.374   3.619 -0.0778 -1.0918  0.2094
  851TIP3   OH223967   3.810   1.013   2.071  0.6067  0.5765 -0.0364
  851TIP3    H123968   3.850   1.049   2.149  1.3068  0.4938 -0.3505
  851TIP3    H223969   3.873   1.029   2.001  0.8553 -1.0528 -0.2218
  852TIP3   OH223970   5.042   0.286   1.460 -0.6348  0.1768  0.0155
  852TIP3    H123971   4.971   0.240   1.417 -0.6401 -0.7261  0.9604
  852TIP3    H223972   5.009   0.375   1.471 -1.9085 -0.3988  1.0737
  853TIP3   OH223973   2.791   3.157   6.655 -0.3481  0.5169  0.2560
  853TIP3    H123974   2.752   3.230   6.704 -0.0112 -0.1935  1.6342
  853TIP3    H223975   2.827   3.100   6.723 -0.9420 -1.1318 -0.7585
  854TIP3   OH223976   6.676   3.761  14.091  0.2196 -0.2066 -0.1888
  854TIP3    H123977   6.723   3.755  14.008 -0.7831 -0.2930 -0.7554
  854TIP3    H223978   6.744   3.746  14.158  1.0538 -0.0030 -0.9764
  855TIP3   OH223979   4.161   3.966  12.410 -0.6266 -0.3303 -0.1037
  855TIP3    H123980   4.191   3.960  12.500  1.8905  0.1607 -0.8485
  855TIP3    H223981   4.086   4.026  12.414 -0.9341 -0.7778  1.7060
  856TIP3   OH223982   5.899   1.308  16.539  0.1020  0.2073 -0.2104
  856TIP3    H123983   5.995   1.314  16.544  0.1881 -1.6230  2.6625
  856TIP3    H223984   5.883   1.248  16.466  1.4035 -1.7603  0.9864
  857TIP3   OH223985   2.910   0.988   3.820  0.7223 -0.2151 -0.1725
  857TIP3    H123986   2.941   0.954   3.736 -0.0977 -1.4876  0.0117
  857TIP3    H223987   2.978   1.048   3.848  0.2541  1.5866 -2.5447
  858TIP3   OH223988   4.690   0.178  14.759 -0.2154  0.1013  0.2063
  858TIP3    H123989   4.650   0.179  14.846  1.0486 -0.8915  0.8228
  858TIP3    H223990   4.635   0.236  14.707  0.1435  2.3662  2.1742
  859TIP3   OH223991   4.281   5.861   5.125  0.6388 -0.0054  0.0571
  859TIP3    H123992   4.349   5.917   5.162 -0.4133  0.9533  0.6291
  859TIP3    H223993   4.258   5.801   5.196  0.5042  0.0440  0.0566
  860TIP3   OH223994   0.775   5.620   0.587  0.1815  0.4804  0.7661
  860TIP3    H123995   0.703   5.585   0.534  0.6769  1.7430 -0.8060
  860TIP3    H223996   0.732   5.651   0.667 -0.4136 -2.5644  1.7466
  861TIP3   OH223997   5.951   5.481  13.221 -0.2555 -0.1329 -0.0462
  861TIP3    H123998   6.038   5.496  13.184 -0.8380  0.1840 -1.3511
  861TIP3    H223999   5.906   5.565  13.211 -1.0463 -0.5799 -0.3429
  862TIP3   OH224000   4.259   3.631   4.750 -0.3597 -0.2085 -0.2612
  862TIP3    H124001   4.192   3.589   4.805 -0.0131 -1.4229 -0.7192
  862TIP3    H224002   4.234   3.723   4.748 -1.1577 -0.3769  0.8072
  863TIP3   OH224003   4.637   5.650   1.815  0.2539  0.6037 -0.6965
  863TIP3    H124004   4.661   5.727   1.866 -1.3953  1.1998 -0.7718
  863TIP3    H224005   4.679   5.663   1.731  0.0840  1.3719 -0.6686
  864TIP3   OH224006   0.774   3.568   4.208 -0.5510  0.0067  0.3371
  864TIP3    H124007   0.822   3.584   4.290  0.3874  1.3632 -0.4483
  864TIP3    H224008   0.702   3.631   4.209  0.4326  1.1959 -0.6133
  865TIP3   OH224009   3.469   3.537  11.460 -0.3382  0.6235 -0.2747
  865TIP3    H124010   3.450   3.537  11.554  0.1710  0.1028 -0.1684
  865TIP3    H224011   3.564   3.545  11.454 -0.2304 -0.7147 -0.7039
  866TIP3   OH224012   0.011   4.270   2.768 -0.0518 -0.0058 -0.6430
  866TIP3    H124013  -0.078   4.266   2.734 -1.2648 -4.3185  2.2283
  866TIP3    H224014   0.003   4.312   2.853 -0.0748 -2.9317  0.9228
  867TIP3   OH224015   0.407   5.267  11.003  0.2455 -0.0791 -0.1282
  867TIP3    H124016   0.313   5.254  10.989  0.8129 -1.7517 -3.1146
  867TIP3    H224017   0.445   5.180  10.992  2.2452  0.6967  0.2973
  868TIP3   OH224018   5.228   0.055  15.110 -0.0912 -0.3115  0.4031
  868TIP3    H124019   5.258   0.026  15.196 -0.8376 -1.6418  0.2428
  868TIP3    H224020   5.285   0.008  15.049  0.1567  0.2986  0.1640
  869TIP3   OH224021   5.057   6.132  13.951  0.3347 -0.8263 -0.3423
  869TIP3    H124022   5.069   6.040  13.976  0.8546 -1.0381 -1.2949
  869TIP3    H224023   4.982   6.131  13.891 -0.0443 -0.5330  0.1206
  870TIP3   OH224024   2.199   4.561  15.600  0.7226  0.4096 -0.3545
  870TIP3    H124025   2.187   4.643  15.551 -0.3924  0.4213 -0.0778
  870TIP3    H224026   2.111   4.531  15.620  1.1371 -0.3105  0.4878
  871TIP3   OH224027   5.196   1.172  14.879 -0.1817  0.0535  0.0023
  871TIP3    H124028   5.213   1.221  14.959 -1.3343 -1.6415  1.3488
  871TIP3    H224029   5.211   1.235  14.809 -0.0501  1.8535  1.5733
  872TIP3   OH224030   3.538   2.678  16.277 -0.4809  0.4089  0.3257
  872TIP3    H124031   3.527   2.633  16.361 -0.8048  2.6193  1.5402
  872TIP3    H224032   3.568   2.766  16.300 -1.2552  1.3244 -1.8237
  873TIP3   OH224033   5.920   5.759   1.581 -0.0354 -0.5097 -0.2181
  873TIP3    H124034   5.906   5.670   1.547 -0.6714 -0.5404  0.1173
  873TIP3    H224035   5.844   5.808   1.551 -0.5211 -0.4888  1.0036
  874TIP3   OH224036   4.803   3.774   4.955 -0.2877  0.3742  0.5032
  874TIP3    H124037   4.869   3.817   5.009 -0.5802  0.1717  1.0284
  874TIP3    H224038   4.844   3.765   4.869  0.1741  0.7189  0.6869
  875TIP3   OH224039   0.028   3.849   1.058 -0.4366 -0.0630  0.2120
  875TIP3    H124040  -0.051   3.802   1.030 -0.8176  0.7003 -0.0255
  875TIP3    H224041   0.043   3.820   1.148 -2.2122  1.3414  1.0211
  876TIP3   OH224042   1.750   1.072   3.670  0.3129  0.2999  0.1199
  876TIP3    H124043   1.737   1.000   3.731 -0.0432 -0.7270 -1.1380
  876TIP3    H224044   1.810   1.132   3.716  3.2196 -2.2958 -0.0099
  877TIP3   OH224045   3.861   6.397  11.265  0.4964  0.2321  0.2015
  877TIP3    H124046   3.908   6.479  11.282  3.0179 -0.9819 -0.4887
  877TIP3    H224047   3.878   6.378  11.173 -1.0089 -0.5228  0.0467
  878TIP3   OH224048   2.547   4.099  15.929 -0.2442  0.6559  0.0640
  878TIP3    H124049   2.515   4.015  15.898 -3.0932  0.6378  2.6046
  878TIP3    H224050   2.498   4.164  15.878 -0.4656  0.6949  0.3199
  879TIP3   OH224051   0.204   1.855  15.235 -1.0136 -0.4396  0.2222
  879TIP3    H124052   0.189   1.768  15.273 -0.9625 -0.1957  0.8142
  879TIP3    H224053   0.116   1.890  15.221 -1.0556  0.3865  2.2825
  880TIP3   OH224054   5.048   4.207  14.682  0.1851  0.1220 -0.0897
  880TIP3    H124055   5.057   4.147  14.607 -0.7110 -1.8507  1.2823
  880TIP3    H224056   5.067   4.152  14.758 -0.3030  1.7196  1.2201
  881TIP3   OH224057   4.773   4.765   4.080 -0.1924 -0.9322 -0.2346
  881TIP3    H124058   4.692   4.719   4.103 -0.2579  0.3688  2.5157
  881TIP3    H224059   4.754   4.808   3.996 -1.9702 -1.5003 -0.1497
  882TIP3   OH224060   3.238   4.134   0.584  0.1196  0.6039 -0.3444
  882TIP3    H124061   3.265   4.082   0.660  1.8477  1.0580 -0.5972
  882TIP3    H224062   3.168   4.083   0.544 -0.6054  0.2026  1.3637
  883TIP3   OH224063   5.877   2.038  14.336  0.3720 -0.1105  0.4156
  883TIP3    H124064   5.907   2.107  14.277  0.1372  0.0333  0.4644
  883TIP3    H224065   5.940   2.038  14.408 -1.0590  1.8392  1.7696
  884TIP3   OH224066   6.395   1.438  17.284 -0.0327 -0.4222  0.3555
  884TIP3    H124067   6.434   1.489  17.355 -0.5737 -1.9790  1.8387
  884TIP3    H224068   6.465   1.429  17.219  0.8176  0.1034  1.1839
  885TIP3   OH224069   1.207   6.721  16.878  0.2253  0.0051 -0.1794
  885TIP3    H124070   1.265   6.753  16.809 -0.5286 -0.6229 -1.1321
  885TIP3    H224071   1.141   6.669  16.832 -0.4643 -0.1966  0.9880
  886TIP3   OH224072   6.069   5.695  13.680  0.3008 -0.4877  0.1078
  886TIP3    H124073   6.133   5.631  13.712 -1.2173 -1.7294  0.8445
  886TIP3    H224074   5.997   5.690  13.743 -2.0827 -1.7489 -2.4391
  887TIP3   OH224075   6.633   1.005   0.891 -0.0346 -0.3386 -0.4661
  887TIP3    H124076   6.684   0.959   0.958 -0.8771 -1.2791 -0.4448
  887TIP3    H224077   6.560   1.044   0.938 -1.3055 -2.0147 -0.9508
  888TIP3   OH224078   6.015   5.209  15.014 -0.3005 -0.0008  0.3471
  888TIP3    H124079   5.948   5.173  14.956 -2.1201  2.1791  0.9480
  888TIP3    H224080   6.097   5.193  14.969 -1.3528 -1.4045 -1.1731
  889TIP3   OH224081   5.357   6.357  16.904  0.1423 -0.1725  0.2454
  889TIP3    H124082   5.294   6.430  16.914 -1.1832 -1.3631  0.9817
  889TIP3    H224083   5.410   6.361  16.983 -0.9651 -0.9100  1.0657
  890TIP3   OH224084   3.871   3.523  11.079  0.0361 -0.8002  0.3006
  890TIP3    H124085   3.960   3.553  11.059 -0.5867  0.2323 -1.1076
  890TIP3    H224086   3.856   3.451  11.018 -0.5903 -0.0104 -0.5097
  891TIP3   OH224087   3.076   1.769  14.182  0.0046 -0.4202  0.1372
  891TIP3    H124088   3.163   1.754  14.143  0.0628  0.3319 -0.0245
  891TIP3    H224089   3.020   1.792  14.108 -0.6951 -2.2747  0.0224
  892TIP3   OH224090   4.202   4.628   0.734 -0.0056  0.1557  0.1911
  892TIP3    H124091   4.234   4.671   0.813 -1.2072  2.3538 -0.4143
  892TIP3    H224092   4.118   4.590   0.759  0.5605 -0.9527  0.4558
  893TIP3   OH224093   0.370   5.279  15.751 -0.0262  0.1599  0.3036
  893TIP3    H124094   0.369   5.228  15.832  0.6100 -0.6630 -0.1867
  893TIP3    H224095   0.300   5.343  15.762 -0.8224 -0.7921  0.9531
  894TIP3   OH224096   5.641   4.817  14.037 -0.5231 -0.5351  0.6554
  894TIP3    H124097   5.635   4.745  13.974  0.3322  0.2622 -0.3818
  894TIP3    H224098   5.558   4.814  14.084 -0.6192 -2.0332  0.4678
  895TIP3   OH224099   2.521   2.832   2.479 -0.0310 -0.0765  0.0439
  895TIP3    H124100   2.527   2.736   2.484  0.0866 -0.2257 -2.0554
  895TIP3    H224101   2.430   2.852   2.500 -0.1701 -0.6983  0.0433
  896TIP3   OH224102   5.795   5.740  12.132  0.5628  0.1934 -0.2323
  896TIP3    H124103   5.788   5.809  12.197  0.8802  0.3763 -0.3898
  896TIP3    H224104   5.718   5.750  12.077 -0.7280 -1.1410  1.2312
  897TIP3   OH224105   4.421   2.558   4.049  0.5074  0.0608  0.4566
  897TIP3    H124106   4.348   2.499   4.029  0.0932  1.5225 -3.0946
  897TIP3    H224107   4.379   2.637   4.083  0.4969  0.4550 -0.4426
  898TIP3   OH224108   4.887   2.160   6.698  0.5337  0.2212 -0.5471
  898TIP3    H124109   4.878   2.250   6.667  0.5218  0.5195  0.2817
  898TIP3    H224110   4.971   2.158   6.743  0.0047  0.1569  0.4800
  899TIP3   OH224111   5.091   1.891  14.721  0.4440 -0.2607 -0.4601
  899TIP3    H124112   5.034   1.814  14.728  1.7511 -1.1559  1.1025
  899TIP3    H224113   5.080   1.937  14.804 -0.0330  1.0839 -1.2289
  900TIP3   OH224114   0.168   5.746   0.197  0.0771 -0.2160 -0.0498
  900TIP3    H124115   0.253   5.787   0.177  0.3677 -1.0804 -0.6239
  900TIP3    H224116   0.131   5.724   0.111 -0.7921  0.2475  0.1901
  901TIP3   OH224117   0.593   0.876  15.176  0.0161  0.5658 -0.1625
  901TIP3    H124118   0.613   0.826  15.097 -1.8854  3.0984 -2.4028
  901TIP3    H224119   0.678   0.908  15.206  0.9026 -1.4020 -0.4036
  902TIP3   OH224120   6.642   0.327   5.392  0.0633  0.0256  0.4061
  902TIP3    H124121   6.587   0.328   5.471 -0.3461 -0.7709  0.1373
  902TIP3    H224122   6.580   0.316   5.320  0.4558  0.5418 -0.0123
  903TIP3   OH224123   4.693   6.130  14.216 -0.0798  0.2862 -0.3083
  903TIP3    H124124   4.672   6.058  14.156 -1.9447  0.7841 -0.3126
  903TIP3    H224125   4.715   6.203  14.158 -3.3016  1.1976 -0.5370
  904TIP3   OH224126   0.536   0.951  15.590  0.5346 -0.0780  0.4317
  904TIP3    H124127   0.582   1.021  15.543  0.8144 -0.6467 -0.1658
  904TIP3    H224128   0.598   0.921  15.656  0.1645  0.6803  1.1425
  905TIP3   OH224129   3.427   6.368   2.965 -0.0569 -0.2378  0.1244
  905TIP3    H124130   3.338   6.342   2.942 -0.8378  3.2841 -1.4979
  905TIP3    H224131   3.455   6.426   2.895  3.1249 -0.2986  1.1659
  906TIP3   OH224132   0.614   2.175  15.190  0.6045 -0.3147  0.1053
  906TIP3    H124133   0.648   2.101  15.240 -0.0763 -1.1906 -0.6902
  906TIP3    H224134   0.566   2.135  15.117  1.2818  0.9040 -1.0657
  907TIP3   OH224135   5.728   1.483   4.851  0.2488  0.5307 -0.0917
  907TIP3    H124136   5.664   1.546   4.884 -2.0274 -1.5431 -0.2059
  907TIP3    H224137   5.752   1.430   4.927 -2.2444 -1.9428 -0.8379
  908TIP3   OH224138   4.712   3.538   4.094 -0.1458  0.1069 -0.2209
  908TIP3    H124139   4.696   3.567   4.004 -0.2469  0.1246 -0.1973
  908TIP3    H224140   4.802   3.507   4.094 -0.3755 -0.5766 -0.5086
  909TIP3   OH224141   2.455   1.665  16.763  0.0859 -0.0792 -0.0449
  909TIP3    H124142   2.491   1.588  16.718  0.3819 -0.8190  1.3881
  909TIP3    H224143   2.432   1.726  16.693  0.2322 -1.3094 -1.1976
  910TIP3   OH224144   0.571   4.842  11.740  0.8859  0.2312 -0.1165
  910TIP3    H124145   0.564   4.875  11.650  1.4864  0.4943 -0.0715
  910TIP3    H224146   0.598   4.918  11.791  1.1311 -0.0585  0.1883
  911TIP3   OH224147   5.346   6.732  17.047 -0.9883 -0.2422 -0.0627
  911TIP3    H124148   5.400   6.688  17.113 -1.1709 -0.5343 -0.1051
  911TIP3    H224149   5.284   6.784  17.097  0.9109  2.1286  0.0216
  912TIP3   OH224150   0.224   5.246   5.857  0.7824  0.0769 -0.5884
  912TIP3    H124151   0.189   5.159   5.841 -0.5224  0.4818 -0.0650
  912TIP3    H224152   0.319   5.234   5.857  0.6528 -1.8210  1.9422
  913TIP3   OH224153   6.231   2.367   2.165  0.0380 -0.2460  0.1055
  913TIP3    H124154   6.290   2.350   2.092  1.1264  0.2036  0.8661
  913TIP3    H224155   6.145   2.377   2.124  0.6181 -0.0399 -1.0995
  914TIP3   OH224156   1.961   5.588   1.074 -0.0117 -0.9941 -0.3194
  914TIP3    H124157   2.006   5.638   1.006 -0.9899  0.1091 -0.1719
  914TIP3    H224158   2.016   5.600   1.152  0.0964 -0.6818 -0.4409
  915TIP3   OH224159   4.987   3.763   1.612 -0.7667  0.0017 -0.4814
  915TIP3    H124160   5.036   3.846   1.618 -1.2664  0.3644 -1.2762
  915TIP3    H224161   4.997   3.724   1.699  0.2436  0.4593 -0.3781
  916TIP3   OH224162   0.417   6.371  13.669 -0.0460 -0.1452  0.2304
  916TIP3    H124163   0.373   6.454  13.653  0.3443 -0.0408 -0.3109
  916TIP3    H224164   0.354   6.305  13.641  0.3755  0.0188 -1.1738
  917TIP3   OH224165   4.304   3.052  15.277 -0.2731  0.2818  0.7368
  917TIP3    H124166   4.318   3.003  15.358 -1.7224  1.0239  1.4888
  917TIP3    H224167   4.222   3.100  15.292  0.1455  1.5130 -0.6439
  918TIP3   OH224168   3.567   5.726   0.114 -0.1607  0.2012  0.1042
  918TIP3    H124169   3.503   5.731   0.185 -0.1864 -0.4558  0.1324
  918TIP3    H224170   3.530   5.780   0.044 -0.3967  0.4106  0.3884
  919TIP3   OH224171   0.246   0.811  16.164  0.4997  0.5591  0.2226
  919TIP3    H124172   0.193   0.823  16.085  0.1081  0.5823  0.4867
  919TIP3    H224173   0.325   0.767  16.133  0.5054  0.8851 -0.2392
  920TIP3   OH224174   2.117   4.756   3.693  0.4859 -0.7151  0.0712
  920TIP3    H124175   2.112   4.704   3.773 -1.0052 -1.3641 -0.4010
  920TIP3    H224176   2.076   4.701   3.626  0.6339  0.2949 -0.8764
  921TIP3   OH224177   6.086   1.664  10.983  0.1626 -0.0527  0.0880
  921TIP3    H124178   6.174   1.668  10.946  0.5221 -0.3746  0.8785
  921TIP3    H224179   6.094   1.707  11.068 -1.3710  3.7625 -1.4365
  922TIP3   OH224180   2.805   2.024  15.823  0.6008 -0.3126  0.3662
  922TIP3    H124181   2.802   1.992  15.913 -3.6558 -1.1616  0.1381
  922TIP3    H224182   2.795   2.119  15.830  2.7550 -0.0723  0.7642
  923TIP3   OH224183   1.521   3.903  15.886 -0.0313 -0.0009  0.6766
  923TIP3    H124184   1.464   3.833  15.853  1.5971 -1.2096  0.2868
  923TIP3    H224185   1.580   3.859  15.946  1.1197  1.0255  0.3313
  924TIP3   OH224186   3.880   0.559   0.885 -0.0470  0.0796  0.1330
  924TIP3    H124187   3.861   0.652   0.893  0.1605  0.1681 -0.3700
  924TIP3    H224188   3.823   0.517   0.949  0.2554  0.5976  0.7435
  925TIP3   OH224189   1.209   1.603  14.474 -0.2516 -0.1633 -0.1799
  925TIP3    H124190   1.174   1.685  14.509 -0.6914 -0.4442  0.0483
  925TIP3    H224191   1.303   1.618  14.465 -0.2846  0.2523  0.1777
  926TIP3   OH224192   4.509   4.678  11.391 -0.0457 -0.0368  0.2954
  926TIP3    H124193   4.464   4.693  11.474  1.0593  0.7775  0.7696
  926TIP3    H224194   4.578   4.745  11.388 -0.6444  0.5948 -1.7148
  927TIP3   OH224195   2.779   4.987  16.254  0.4679  0.4072  0.1339
  927TIP3    H124196   2.799   5.038  16.332  0.7577 -0.1560  0.4288
  927TIP3    H224197   2.800   4.897  16.277 -2.2154 -0.2124  0.3947
  928TIP3   OH224198   2.822   5.805   3.426  0.1512 -0.0973 -0.4377
  928TIP3    H124199   2.807   5.765   3.340 -0.7058  0.1830 -0.4248
  928TIP3    H224200   2.917   5.812   3.433  0.2411 -0.4678 -1.2051
  929TIP3   OH224201   3.789   5.697   5.889  0.3693  0.3286  0.2473
  929TIP3    H124202   3.770   5.692   5.796  2.4949  1.9009 -0.3484
  929TIP3    H224203   3.762   5.612   5.924 -3.1909  0.6995 -1.1842
  930TIP3   OH224204   5.447   5.577  11.114  0.0842 -0.1731 -0.1473
  930TIP3    H124205   5.507   5.623  11.173  1.7741 -2.3176 -0.0997
  930TIP3    H224206   5.366   5.628  11.120  0.5923  0.5139  2.9646
  931TIP3   OH224207   1.787   5.981   5.115 -0.1068 -0.4364  0.4484
  931TIP3    H124208   1.702   6.018   5.139  0.2052  0.1641  0.6345
  931TIP3    H224209   1.765   5.905   5.061 -0.7698 -0.5291  0.8306
  932TIP3   OH224210   6.385   2.104  10.867  0.7510  0.0373 -0.0684
  932TIP3    H124211   6.452   2.036  10.879 -1.7374 -2.5885  0.0310
  932TIP3    H224212   6.311   2.074  10.919 -0.8826  2.3027 -0.9300
  933TIP3   OH224213   2.951   6.611  15.814 -0.2980  0.6240 -0.1065
  933TIP3    H124214   3.032   6.608  15.864  0.4017  0.6535 -1.2183
  933TIP3    H224215   2.883   6.629  15.879  0.4399 -0.4202  0.9839
  934TIP3   OH224216   1.169   5.885  13.809 -0.3448 -0.1763 -0.2635
  934TIP3    H124217   1.264   5.887  13.803 -0.2810 -0.2299  0.5998
  934TIP3    H224218   1.143   5.804  13.765 -0.2619  1.2959 -3.3330
  935TIP3   OH224219   1.123   1.721  16.894 -0.6577 -0.2289 -0.0663
  935TIP3    H124220   1.139   1.632  16.861  0.4695 -0.2920  0.6257
  935TIP3    H224221   1.154   1.778  16.824  2.4025 -0.3485  1.0513
  936TIP3   OH224222   2.697   3.163   4.324  0.0834 -0.3711 -0.1190
  936TIP3    H124223   2.650   3.101   4.379  0.8337 -1.9514 -1.1703
  936TIP3    H224224   2.789   3.139   4.334  0.4249  0.7858 -0.3263
  937TIP3   OH224225   6.626   0.361   5.900  0.3026 -0.3948  0.3155
  937TIP3    H124226   6.651   0.439   5.850 -0.4660 -0.5117 -0.2632
  937TIP3    H224227   6.650   0.287   5.845  2.0634 -0.6404  1.3310
  938TIP3   OH224228   5.644   3.110   2.411  0.3771 -0.1425 -0.3859
  938TIP3    H124229   5.631   3.187   2.355  0.1386  0.4014  0.4104
  938TIP3    H224230   5.739   3.102   2.420  0.4313 -0.4265 -1.1192
  939TIP3   OH224231   5.474   5.705  12.409 -0.5926 -0.6023 -0.0035
  939TIP3    H124232   5.422   5.715  12.329 -0.0266  1.6976 -0.1397
  939TIP3    H224233   5.544   5.769  12.401  0.1511 -1.1169  1.8356
  940TIP3   OH224234   4.425   0.310  17.059 -0.2308  0.1877  0.3177
  940TIP3    H124235   4.479   0.233  17.076 -2.0225 -1.3206 -0.5001
  940TIP3    H224236   4.346   0.296  17.111 -0.5731  1.5115  0.1968
  941TIP3   OH224237   0.555   4.827  16.351 -0.2084 -0.4163 -0.1563
  941TIP3    H124238   0.505   4.754  16.385 -0.9166 -0.1707 -0.6585
  941TIP3    H224239   0.639   4.823  16.398  0.2526 -2.2837 -1.0566
  942TIP3   OH224240   3.227   4.811  13.304  0.3661 -0.3657  0.0918
  942TIP3    H124241   3.203   4.863  13.381  0.5649 -1.8194  1.1915
  942TIP3    H224242   3.205   4.721  13.329  3.6751 -1.3699 -0.1389
  943TIP3   OH224243   3.156   4.445  16.473  0.2867  0.1647 -0.0951
  943TIP3    H124244   3.190   4.528  16.438  1.0378  0.2215  0.7414
  943TIP3    H224245   3.115   4.403  16.398  1.4416  0.5034 -0.9417
  944TIP3   OH224246   0.456   0.630  16.993  1.0685 -0.3148 -0.1947
  944TIP3    H124247   0.364   0.608  16.978  1.1966  0.0837 -1.7236
  944TIP3    H224248   0.455   0.724  17.012  1.1709 -0.2456 -0.5148
  945TIP3   OH224249   1.307   4.198   3.570  0.0306  0.1124 -0.5908
  945TIP3    H124250   1.336   4.283   3.603  1.2286  0.1450 -1.6366
  945TIP3    H224251   1.223   4.214   3.529  0.9169  1.1210 -2.0815
  946TIP3   OH224252   4.016   2.124  15.884  0.0093  0.4334  0.2618
  946TIP3    H124253   3.972   2.194  15.934  2.9043  2.3255  0.3534
  946TIP3    H224254   3.997   2.145  15.793  0.8434  1.3651  0.2892
  947TIP3   OH224255   1.861   2.387  11.977  0.7182  0.4349 -0.6228
  947TIP3    H124256   1.789   2.378  12.040  2.8695  2.5704  2.4370
  947TIP3    H224257   1.818   2.399  11.892 -2.4473 -0.1399  0.7772
  948TIP3   OH224258   3.404   0.693  15.095  0.6508  0.5023  0.3903
  948TIP3    H124259   3.311   0.678  15.077  0.5215  1.8339 -0.1475
  948TIP3    H224260   3.410   0.786  15.117  1.6312  0.0914  2.0536
  949TIP3   OH224261   6.674   0.584   2.766 -0.2635  0.6755 -0.7446
  949TIP3    H124262   6.690   0.494   2.793 -0.2930  0.6176 -0.9183
  949TIP3    H224263   6.736   0.600   2.695 -1.0061  0.4225 -1.4696
  950TIP3   OH224264   5.768   0.055   5.096 -0.0725  0.3051 -0.3459
  950TIP3    H124265   5.739   0.118   5.030 -1.8904  2.0289  1.8863
  950TIP3    H224266   5.835   0.102   5.145 -0.3175 -0.0789  0.3677
  951TIP3   OH224267   2.157   5.129  14.633  0.1036  0.6383 -0.0601
  951TIP3    H124268   2.211   5.181  14.574  0.6142 -1.0950 -1.2225
  951TIP3    H224269   2.086   5.096  14.577 -1.1992  1.4618  1.0502
  952TIP3   OH224270   1.398   0.139   3.776 -0.1326  0.1921  0.1540
  952TIP3    H124271   1.369   0.230   3.784  0.0485  0.2403  0.2585
  952TIP3    H224272   1.448   0.122   3.856  1.5250  0.6159 -0.7526
  953TIP3   OH224273   3.611   2.053  17.198 -0.0935  0.2144 -0.2116
  953TIP3    H124274   3.551   2.124  17.223  0.7886  0.6084  0.8509
  953TIP3    H224275   3.695   2.096  17.185  0.5993 -0.7136  1.0661
  954TIP3   OH224276   6.114   4.552   1.063  0.0926 -0.0051 -0.9258
  954TIP3    H124277   6.052   4.480   1.075 -0.4361  0.5093 -0.5057
  954TIP3    H224278   6.182   4.536   1.128 -0.7081  0.5824  0.0936
  955TIP3   OH224279   4.360   6.342  12.297 -0.2992  0.2688  0.3174
  955TIP3    H124280   4.315   6.369  12.217  0.7092  1.0274 -0.0202
  955TIP3    H224281   4.304   6.274  12.335 -1.6793  1.1152 -0.1172
  956TIP3   OH224282   3.835   4.313   5.080 -0.3714  0.2680  1.0323
  956TIP3    H124283   3.888   4.248   5.126  2.3319  1.7422  0.2282
  956TIP3    H224284   3.825   4.386   5.141  0.8196  1.0648  0.3210
  957TIP3   OH224285   0.003   1.917   2.990 -0.1146  0.1105 -0.7479
  957TIP3    H124286   0.060   1.994   2.984 -0.6311  0.4029 -2.5731
  957TIP3    H224287   0.019   1.882   3.078  1.0535  1.5777 -0.3291
  958TIP3   OH224288   3.585   0.141  11.261 -0.4035 -0.0775 -0.5491
  958TIP3    H124289   3.677   0.167  11.258 -0.6911  1.2362  1.0834
  958TIP3    H224290   3.565   0.113  11.171  0.9858  1.7510 -1.4799
  959TIP3   OH224291   3.758   6.096  12.570 -0.1396 -0.4897 -0.2140
  959TIP3    H124292   3.755   6.076  12.664 -3.1465  0.0834 -0.0722
  959TIP3    H224293   3.761   6.011  12.527 -2.5212 -0.9886  0.4572
  960TIP3   OH224294   4.053   5.962  15.991 -0.2501 -0.2891  0.3823
  960TIP3    H124295   4.124   5.908  15.955 -0.1166 -1.0157  1.6703
  960TIP3    H224296   4.096   6.017  16.057 -0.7152 -0.0194  0.4599
  961TIP3   OH224297   3.729   4.657   0.478  0.1436 -0.1257  0.4399
  961TIP3    H124298   3.793   4.588   0.465  2.0313  1.6073  0.0231
  961TIP3    H224299   3.700   4.681   0.390  1.4011  1.2546  0.3599
  962TIP3   OH224300   1.055   5.831   4.851 -0.3256 -0.4551 -0.1214
  962TIP3    H124301   1.134   5.885   4.847 -0.4103 -0.3229  0.0062
  962TIP3    H224302   1.074   5.757   4.794 -0.1533 -0.3640 -0.1822
  963TIP3   OH224303   2.580   0.530  16.765  0.1168  0.1222 -0.6622
  963TIP3    H124304   2.659   0.584  16.773 -0.6147  1.1666 -0.2365
  963TIP3    H224305   2.608   0.453  16.716  2.2111 -1.1629  2.2825
  964TIP3   OH224306   0.732   5.496  15.575 -0.2201  0.1711 -0.0039
  964TIP3    H124307   0.679   5.435  15.524  0.3251 -0.7371  0.5064
  964TIP3    H224308   0.817   5.495  15.532  0.3389 -0.8375  1.0861
  965TIP3   OH224309   1.503   4.654   5.333  0.7633  0.1506  0.1000
  965TIP3    H124310   1.562   4.720   5.299  0.5141  0.1566 -0.3377
  965TIP3    H224311   1.464   4.693   5.410  0.7146  0.4640 -0.0830
  966TIP3   OH224312   3.663   2.617   4.930  0.4421 -0.1447 -0.1069
  966TIP3    H124313   3.587   2.667   4.960 -0.2825  0.7594 -3.1059
  966TIP3    H224314   3.637   2.526   4.940  0.6498  0.0165  2.7376
  967TIP3   OH224315   2.785   2.359  15.748 -0.0378  0.4929 -0.7253
  967TIP3    H124316   2.781   2.309  15.667 -0.2198 -1.0561  0.1963
  967TIP3    H224317   2.744   2.443  15.727 -3.3692 -1.1168 -1.3814
  968TIP3   OH224318   4.091   1.682  11.985 -0.4384 -0.1244 -0.0294
  968TIP3    H124319   4.010   1.663  11.938 -0.3723  0.0900 -0.2323
  968TIP3    H224320   4.087   1.627  12.063 -0.4846 -0.5936 -0.3558
  969TIP3   OH224321   3.582   0.031  13.146  0.1357  0.4053  0.0453
  969TIP3    H124322   3.505   0.029  13.203  0.4908  3.2627  0.7869
  969TIP3    H224323   3.652   0.064  13.202  0.6906  2.5884 -1.7732
  970TIP3   OH224324   0.687   6.329   4.180  0.3198 -0.1402 -0.2431
  970TIP3    H124325   0.593   6.347   4.180  0.2434 -0.5159 -0.3101
  970TIP3    H224326   0.700   6.271   4.104  0.6564  0.1653 -0.4239
  971TIP3   OH224327   2.514   2.898   4.795 -0.4781 -0.1136 -0.3385
  971TIP3    H124328   2.458   2.868   4.866  1.0326 -0.7700  0.6365
  971TIP3    H224329   2.494   2.991   4.785  0.5881  0.4547  2.2467
  972TIP3   OH224330   1.709   1.830  15.419  0.3226  0.2263 -0.1720
  972TIP3    H124331   1.655   1.804  15.494  0.2377  0.9660  0.0243
  972TIP3    H224332   1.664   1.791  15.343  0.4663 -0.6142  0.1614
  973TIP3   OH224333   5.362   3.735  14.463  0.1923 -0.3117  0.1548
  973TIP3    H124334   5.416   3.707  14.538  0.0042 -1.3275 -0.0781
  973TIP3    H224335   5.275   3.700  14.482 -0.1518  0.4722  0.0424
  974TIP3   OH224336   2.419   3.415  13.032  0.0109 -0.2657 -0.1204
  974TIP3    H124337   2.433   3.486  13.094 -1.9970 -1.2133  1.5493
  974TIP3    H224338   2.453   3.337  13.076 -0.6679 -0.8223 -0.5625
  975TIP3   OH224339   5.670   2.411  15.881 -0.1812  0.0677 -0.1178
  975TIP3    H124340   5.753   2.369  15.900 -0.0214  0.4959  0.1564
  975TIP3    H224341   5.617   2.344  15.838  1.0019  0.3328 -2.1149
  976TIP3   OH224342   5.196   6.493  15.670 -0.1705  0.7116  0.7383
  976TIP3    H124343   5.282   6.500  15.712 -0.5865 -1.1518  2.0085
  976TIP3    H224344   5.216   6.482  15.577  0.9675  0.5620  0.9874
  977TIP3   OH224345   6.626   1.211   4.383  0.2027 -0.4495 -0.3426
  977TIP3    H124346   6.616   1.191   4.476 -3.4074  0.7546 -0.3248
  977TIP3    H224347   6.588   1.136   4.338 -2.4901  0.9346 -0.5878
  978TIP3   OH224348   6.071   1.664  14.721  0.3054  0.1999 -0.0123
  978TIP3    H124349   6.143   1.605  14.701  1.4629  1.2854  0.7829
  978TIP3    H224350   6.083   1.687  14.814  0.5030  2.4363 -0.5176
  979TIP3   OH224351   2.025   5.466  15.298 -0.4293 -0.1935  0.0539
  979TIP3    H124352   1.957   5.528  15.271 -0.2999  0.3854  1.0255
  979TIP3    H224353   1.981   5.381  15.297 -1.0816  0.1319  0.3756
  980TIP3   OH224354   3.440   4.548  13.257 -0.1031 -0.0521  0.4437
  980TIP3    H124355   3.454   4.634  13.217 -0.1270  0.6123  1.8161
  980TIP3    H224356   3.352   4.554  13.296  0.7700  0.1401  2.5173
  981TIP3   OH224357   2.605   0.634   5.447  0.0483 -0.2296 -0.6256
  981TIP3    H124358   2.623   0.622   5.354 -2.5009 -1.2040 -1.0781
  981TIP3    H224359   2.518   0.675   5.450 -0.0182 -0.4103  1.3216
  982TIP3   OH224360   3.543   1.662  15.902  0.1237 -0.0788 -0.6588
  982TIP3    H124361   3.592   1.589  15.939 -0.6316  0.8539  2.4509
  982TIP3    H224362   3.475   1.620  15.850  0.8255 -1.5236 -0.4761
  983TIP3   OH224363   0.270   0.943   1.907 -0.5365 -0.1454 -0.1774
  983TIP3    H124364   0.248   1.036   1.910  0.9088  0.2010  0.3853
  983TIP3    H224365   0.363   0.939   1.929 -0.5354 -1.7145 -0.3373
  984TIP3   OH224366   2.320   2.982   0.988 -0.1930  0.1885  0.3266
  984TIP3    H124367   2.250   2.943   0.936  0.2604  1.0917 -1.0235
  984TIP3    H224368   2.393   2.921   0.981 -0.0886  0.3740 -0.2317
  985TIP3   OH224369   0.339   6.084   6.011 -0.0622  0.1844  0.1272
  985TIP3    H124370   0.316   5.994   6.035  0.7224 -0.0347  0.0926
  985TIP3    H224371   0.412   6.106   6.069  1.2124  0.0022 -1.3335
  986TIP3   OH224372   5.549   3.332   0.853  0.0975 -0.4858  1.0642
  986TIP3    H124373   5.580   3.298   0.937  0.5497 -1.6882  0.4291
  986TIP3    H224374   5.533   3.255   0.800  1.3483  0.2565 -0.4933
  987TIP3   OH224375   5.014   6.032   4.134  0.3413  0.0509 -0.1397
  987TIP3    H124376   5.075   6.051   4.205 -1.4874  0.1380  1.4734
  987TIP3    H224377   5.030   5.940   4.113  1.1122  0.1117  0.1377
  988TIP3   OH224378   3.709   0.617   6.560 -0.9240  0.6903  0.5155
  988TIP3    H124379   3.760   0.545   6.597 -0.3346  0.2222 -1.1691
  988TIP3    H224380   3.618   0.589   6.570 -0.6903 -0.4185 -0.3673
  989TIP3   OH224381   2.588   5.399  13.587  0.0138  0.2699  0.4675
  989TIP3    H124382   2.567   5.334  13.520  0.7945  0.2143  0.2680
  989TIP3    H224383   2.642   5.352  13.650  2.7647  1.3093 -0.9793
  990TIP3   OH224384   6.625   4.247   3.672 -0.0343  0.2456  0.6465
  990TIP3    H124385   6.626   4.337   3.706 -0.2660  0.2325  0.6891
  990TIP3    H224386   6.533   4.227   3.659  0.0945  0.6071 -0.9708
  991TIP3   OH224387   2.008   5.536   2.310 -0.4585 -0.4991  0.0510
  991TIP3    H124388   1.925   5.502   2.276 -1.7900  1.1192  1.4357
  991TIP3    H224389   2.051   5.575   2.234 -2.1724  0.8344 -0.3098
  992TIP3   OH224390   6.043   6.180  11.528  0.1348 -0.3121  0.0685
  992TIP3    H124391   6.051   6.088  11.553  0.2126 -0.2041  0.4400
  992TIP3    H224392   6.130   6.218  11.545 -0.0767 -0.0238  0.5045
  993TIP3   OH224393   0.506   3.980   5.151 -0.4241  0.3650 -0.0607
  993TIP3    H124394   0.489   3.950   5.061  2.1734 -1.8906  0.0742
  993TIP3    H224395   0.561   4.057   5.140  1.4491 -0.9531 -0.5203
  994TIP3   OH224396   4.310   3.337   4.416  0.1152 -0.2218 -1.3994
  994TIP3    H124397   4.304   3.285   4.497 -1.0028  0.0154 -1.3074
  994TIP3    H224398   4.338   3.424   4.446 -0.1879 -0.1656 -1.2671
  995TIP3   OH224399   1.619   1.676  12.157 -0.4899 -0.1699 -0.0928
  995TIP3    H124400   1.594   1.758  12.115 -0.2607  0.3973  0.8427
  995TIP3    H224401   1.712   1.687  12.177 -0.2331 -1.0201 -0.7504
  996TIP3   OH224402   5.047   0.181   5.326  0.0585 -0.1587 -0.0307
  996TIP3    H124403   5.074   0.098   5.286 -2.5027  0.6733 -4.0975
  996TIP3    H224404   4.961   0.162   5.363  1.1105 -0.1172  2.6647
  997TIP3   OH224405   2.823   3.216   3.505 -0.2073  0.2016 -0.0145
  997TIP3    H124406   2.771   3.150   3.551  0.4149  1.5663  2.8896
  997TIP3    H224407   2.890   3.167   3.458 -1.1604 -1.3079  0.1419
  998TIP3   OH224408   1.267   2.747   5.551  0.7865  0.3337  0.4336
  998TIP3    H124409   1.243   2.689   5.479 -0.1087  1.4271 -0.1793
  998TIP3    H224410   1.242   2.834   5.521 -0.5831  0.7046  2.4832
  999TIP3   OH224411   0.637   4.410  14.037 -0.3600  0.3787 -0.3218
  999TIP3    H124412   0.682   4.398  13.954  1.5816  1.3363  0.5119
  999TIP3    H224413   0.707   4.434  14.098 -1.9265  1.1385  1.2553
 1000TIP3   OH224414   1.263   0.154   4.161  0.5568 -0.1351  0.0301
 1000TIP3    H124415   1.334   0.130   4.102  2.1849  0.8407  1.4748
 1000TIP3    H224416   1.281   0.103   4.241 -1.2287 -0.9629 -0.0603
 1001TIP3   OH224417   4.621   5.288  16.754  0.5051 -0.2742  0.1623
 1001TIP3    H124418   4.645   5.374  16.719 -1.5440  0.2569 -0.0738
 1001TIP3    H224419   4.705   5.247  16.776  1.5531  1.6369 -0.0268
 1002TIP3   OH224420   6.568   0.122  11.940 -0.0644  0.2139 -0.2941
 1002TIP3    H124421   6.662   0.137  11.934 -0.1473  0.5627 -0.8881
 1002TIP3    H224422   6.530   0.185  11.878 -0.6473 -0.3394 -0.5159
 1003TIP3   OH224423   3.899   2.393  16.061 -0.1138 -0.5784  0.1525
 1003TIP3    H124424   3.860   2.477  16.034 -1.5610 -1.1980  0.2217
 1003TIP3    H224425   3.990   2.414  16.079 -0.7080  1.2565  1.3350
 1004TIP3   OH224426   3.646   2.003   1.046 -0.1554 -0.4725  0.8694
 1004TIP3    H124427   3.735   2.031   1.065  0.5273 -2.2315  0.4326
 1004TIP3    H224428   3.601   2.083   1.020  1.0342  0.5981  1.9448
 1005TIP3   OH224429   3.654   2.237  16.073  0.6378 -0.2382  0.2608
 1005TIP3    H124430   3.574   2.264  16.026 -0.2817 -0.7495  1.4834
 1005TIP3    H224431   3.721   2.297  16.041 -0.2099  0.1646 -0.8547
 1006TIP3   OH224432   1.120   1.600  13.309  0.1533 -0.5570 -0.0495
 1006TIP3    H124433   1.088   1.511  13.298  2.0918 -1.3175  0.0200
 1006TIP3    H224434   1.110   1.640  13.222  1.3112 -1.5937 -0.6962
 1007TIP3   OH224435   4.123   5.549   6.606 -0.8269  0.4672  0.9209
 1007TIP3    H124436   4.030   5.532   6.615 -0.5565 -0.3140  2.4867
 1007TIP3    H224437   4.164   5.463   6.613 -0.0211  0.7058 -0.5070
 1008TIP3   OH224438   5.174   5.481  13.659  0.2403  0.1436 -0.2630
 1008TIP3    H124439   5.210   5.394  13.644  0.7434 -0.2655  2.7333
 1008TIP3    H224440   5.248   5.533  13.689  0.1434  1.9491 -2.8447
 1009TIP3   OH224441   5.723   2.325  17.073 -0.2430  0.2510 -0.2766
 1009TIP3    H124442   5.632   2.336  17.045 -0.0331  1.0845 -0.6751
 1009TIP3    H224443   5.748   2.412  17.104  0.7165  0.2794 -1.1007
 1010TIP3   OH224444   6.086   4.504   4.407  0.3146  0.0968 -0.0015
 1010TIP3    H124445   6.066   4.572   4.343  0.1510  1.6939  1.6589
 1010TIP3    H224446   6.048   4.424   4.370 -0.4906  1.1148 -1.4874
 1011TIP3   OH224447   4.230   2.713   6.232  0.5717 -0.6454 -0.4203
 1011TIP3    H124448   4.281   2.776   6.282 -1.6067  0.5638  0.4150
 1011TIP3    H224449   4.277   2.631   6.241  3.0231  0.6294 -0.7901
 1012TIP3   OH224450   5.853   2.485   3.542  0.5142 -0.0040  0.3146
 1012TIP3    H124451   5.865   2.422   3.613  3.2362 -1.2915 -1.1290
 1012TIP3    H224452   5.842   2.431   3.464  1.5688  1.2812 -0.7644
 1013TIP3   OH224453   6.044   5.506  14.264  0.4882 -0.0837 -0.3337
 1013TIP3    H124454   6.035   5.417  14.300  1.2559 -0.4974 -1.1194
 1013TIP3    H224455   6.001   5.562  14.328  0.2617 -0.9893  0.3333
 1014TIP3   OH224456   6.568   2.840   5.721  0.0087  0.1474 -0.0088
 1014TIP3    H124457   6.582   2.764   5.777  0.2981  0.8298  0.8629
 1014TIP3    H224458   6.629   2.827   5.648 -0.3440 -0.7301 -0.1581
 1015TIP3   OH224459   6.654   3.674  12.981  0.1278 -0.0934  0.8742
 1015TIP3    H124460   6.597   3.654  12.906 -1.0441 -0.4599  1.8267
 1015TIP3    H224461   6.740   3.687  12.942 -0.5865  0.4938 -0.6375
 1016TIP3   OH224462   0.168   4.315  13.911 -0.3351  0.5767  0.7290
 1016TIP3    H124463   0.239   4.377  13.894 -0.2048  0.5977  1.3319
 1016TIP3    H224464   0.105   4.365  13.964 -2.0205  1.3733 -1.7879
 1017TIP3   OH224465   3.691   1.343   0.958  0.0131 -0.3594  0.3598
 1017TIP3    H124466   3.705   1.438   0.954  1.1450 -0.5180  0.3327
 1017TIP3    H224467   3.596   1.332   0.947 -0.0933  0.7489  0.0950
 1018TIP3   OH224468   1.386   4.264  14.701 -0.7636  0.0921  0.1147
 1018TIP3    H124469   1.425   4.308  14.776  1.3161  0.5557 -1.1492
 1018TIP3    H224470   1.374   4.333  14.636 -4.5351  0.1413  0.6171
 1019TIP3   OH224471   0.347   6.709   4.401 -0.1464  0.3805 -0.3355
 1019TIP3    H124472   0.417   6.676   4.458 -0.8598  0.2776  0.4920
 1019TIP3    H224473   0.393   6.737   4.322  0.5169 -3.0696 -1.3694
 1020TIP3   OH224474   6.363   5.459   4.969 -0.3682 -0.0949  0.5634
 1020TIP3    H124475   6.288   5.517   4.982  0.3318  0.8010  0.6229
 1020TIP3    H224476   6.415   5.499   4.900 -0.1144 -0.9002  0.2668
 1021TIP3   OH224477   5.943   3.701   5.137 -0.3946 -0.0798  0.0918
 1021TIP3    H124478   5.865   3.751   5.114 -0.8779 -0.8224  0.0920
 1021TIP3    H224479   5.995   3.762   5.190 -0.6762  0.6264 -0.4346
 1022TIP3   OH224480   1.671   6.398  11.957 -0.4690 -0.0155 -0.3415
 1022TIP3    H124481   1.754   6.419  12.001 -0.7006 -0.0124  0.1016
 1022TIP3    H224482   1.683   6.429  11.867  1.4559 -3.3639 -1.4081
 1023TIP3   OH224483   2.062   4.085   4.084  0.0155 -0.0507 -0.4421
 1023TIP3    H124484   2.098   4.024   4.149  0.5046 -0.4915 -1.1070
 1023TIP3    H224485   1.979   4.046   4.058 -1.2893  1.2503  1.5028
 1024TIP3   OH224486   1.948   2.833   2.441 -0.0037 -0.4901 -0.6470
 1024TIP3    H124487   1.950   2.928   2.428  2.3356 -0.6930 -2.4256
 1024TIP3    H224488   1.912   2.799   2.360  0.6692 -1.1797 -0.6649
 1025TIP3   OH224489   2.882   3.296   1.093 -0.3511 -0.3638 -0.2866
 1025TIP3    H124490   2.837   3.298   1.008 -1.3621  0.0795  0.2333
 1025TIP3    H224491   2.974   3.312   1.072 -0.3603 -1.5873 -1.4184
 1026TIP3   OH224492   6.140   4.097  12.745 -0.2908 -0.0060  0.3068
 1026TIP3    H124493   6.162   4.115  12.653 -1.1238 -1.1075 -0.1317
 1026TIP3    H224494   6.210   4.040  12.775 -0.3606 -0.1745  0.1542
 1027TIP3   OH224495   2.998   1.030   2.813  0.4571  0.2214 -0.2727
 1027TIP3    H124496   2.908   0.998   2.813  0.0000  1.4142 -1.5888
 1027TIP3    H224497   3.010   1.065   2.902  0.0587 -1.0337  0.3030
 1028TIP3   OH224498   2.824   0.100   1.571 -0.3553  0.3455 -0.2580
 1028TIP3    H124499   2.806   0.074   1.661 -1.6318 -3.0734 -1.3316
 1028TIP3    H224500   2.919   0.094   1.563 -0.3330 -0.5396  0.5605
 1029TIP3   OH224501   5.545   2.650  14.850 -0.4624  0.5333  0.0133
 1029TIP3    H124502   5.472   2.594  14.877  1.0015 -0.2864  2.5226
 1029TIP3    H224503   5.613   2.635  14.915  1.4049  2.4511 -1.3578
 1030TIP3   OH224504   0.876   5.431   3.209 -0.4850 -0.1848  0.1607
 1030TIP3    H124505   0.805   5.440   3.272 -1.1550  1.5794 -0.8105
 1030TIP3    H224506   0.871   5.509   3.154  0.5403 -1.2989 -1.6314
 1031TIP3   OH224507   0.575   0.801  16.436  0.0190 -0.0001  0.2276
 1031TIP3    H124508   0.536   0.713  16.433  0.1284 -0.0314 -0.3035
 1031TIP3    H224509   0.591   0.823  16.345 -0.5416  0.8156  0.3168
 1032TIP3   OH224510   2.880   3.575   1.843  0.1568  0.1048  0.0050
 1032TIP3    H124511   2.852   3.645   1.784  0.5264  0.1253 -0.1519
 1032TIP3    H224512   2.974   3.590   1.855  0.6266 -1.4197 -1.4676
 1033TIP3   OH224513   2.005   6.155  10.731 -0.0224 -0.2639 -0.5925
 1033TIP3    H124514   1.996   6.222  10.663  0.4791  0.1434 -0.2632
 1033TIP3    H224515   2.090   6.172  10.771  0.2962 -1.3445 -0.7668
 1034TIP3   OH224516   0.267   1.713  16.487 -0.2879 -0.4375  0.5802
 1034TIP3    H124517   0.289   1.649  16.555 -1.4650 -0.1123  1.2938
 1034TIP3    H224518   0.350   1.759  16.470  0.2498 -1.2084  1.0486
 1035TIP3   OH224519   6.478   4.267  13.664  0.0219 -0.5026 -0.1999
 1035TIP3    H124520   6.388   4.294  13.643  0.2619 -1.0530 -2.1036
 1035TIP3    H224521   6.521   4.349  13.690 -0.7763 -0.0673 -0.2045
 1036TIP3   OH224522   5.210   1.189  12.210 -0.3112  0.0123  0.1017
 1036TIP3    H124523   5.174   1.239  12.283  1.2632 -0.1511  1.0256
 1036TIP3    H224524   5.143   1.194  12.142 -1.2948  1.1717  1.1203
 1037TIP3   OH224525   0.525   5.133   3.148  0.2165  0.1775 -0.1299
 1037TIP3    H124526   0.549   5.127   3.241 -1.4349 -0.4934  0.2964
 1037TIP3    H224527   0.493   5.223   3.138  0.9501  0.4325 -0.1930
 1038TIP3   OH224528   0.294   2.392  13.706 -0.2702 -0.0379 -0.8840
 1038TIP3    H124529   0.279   2.348  13.623  4.2218  0.1376 -1.9949
 1038TIP3    H224530   0.343   2.329  13.759 -0.3417  0.9606  0.4444
 1039TIP3   OH224531   1.660   0.320   4.087 -0.4467  0.3509 -0.0792
 1039TIP3    H124532   1.608   0.351   4.160  0.7224 -0.0093  0.9394
 1039TIP3    H224533   1.736   0.378   4.085 -0.1774 -0.0092 -0.6273
 1040TIP3   OH224534   5.328   5.313  16.670  0.3932 -0.0272  0.1214
 1040TIP3    H124535   5.320   5.218  16.680 -0.4142  0.1279  1.1635
 1040TIP3    H224536   5.330   5.346  16.760 -0.3386  1.0104 -0.2211
 1041TIP3   OH224537   1.812   0.787  17.239 -0.0318  0.1708 -0.9851
 1041TIP3    H124538   1.872   0.862  17.232  0.3810 -0.1777 -1.2173
 1041TIP3    H224539   1.782   0.790  17.329  0.4958  0.2297 -0.8063
 1042TIP3   OH224540   5.237   5.958   2.947  0.3055 -0.3369 -0.1225
 1042TIP3    H124541   5.146   5.983   2.930  0.9912  2.0627 -0.7039
 1042TIP3    H224542   5.272   5.937   2.860  0.6973  0.2559 -0.1093
 1043TIP3   OH224543   6.190   0.347   0.526  0.0846 -0.1530 -0.0659
 1043TIP3    H124544   6.216   0.328   0.616 -0.5051 -1.0473 -0.0714
 1043TIP3    H224545   6.272   0.360   0.479  0.5366 -2.5118 -0.0002
 1044TIP3   OH224546   6.151   6.730   2.226  0.6716  0.1060 -0.3952
 1044TIP3    H124547   6.209   6.766   2.294 -1.7457  1.7581  0.9756
 1044TIP3    H224548   6.160   6.792   2.153  0.8967  0.1477 -0.3353
 1045TIP3   OH224549   5.256   0.679  12.968 -0.4810  0.0229  0.0759
 1045TIP3    H124550   5.164   0.688  12.945  0.3390  1.3891 -3.4163
 1045TIP3    H224551   5.290   0.611  12.909  0.8384 -0.1556  0.9814
 1046TIP3   OH224552   0.708   5.384  12.893  0.3618 -0.3367 -0.4951
 1046TIP3    H124553   0.754   5.301  12.877 -0.0462 -0.8944  1.0084
 1046TIP3    H224554   0.774   5.451  12.878  0.7410 -0.9310 -1.6083
 1047TIP3   OH224555   3.396   2.622   2.535 -0.4955 -0.4940 -1.4024
 1047TIP3    H124556   3.479   2.579   2.512 -0.2119 -0.9391  0.3454
 1047TIP3    H224557   3.359   2.567   2.604 -1.4587  0.5924 -1.0239
 1048TIP3   OH224558   2.423   2.567  13.027 -0.2954 -0.2996 -0.4164
 1048TIP3    H124559   2.400   2.485  12.984 -0.4392 -0.2504 -0.4325
 1048TIP3    H224560   2.429   2.631  12.956 -1.8494  0.0794 -0.2328
 1049TIP3   OH224561   2.493   1.205  13.707 -0.1808 -0.5920 -0.0453
 1049TIP3    H124562   2.452   1.147  13.771 -1.7990  0.7613  0.2029
 1049TIP3    H224563   2.420   1.247  13.662  0.9100  1.7213  0.2016
 1050TIP3   OH224564   4.322   2.406   0.008 -0.2682 -0.2998 -0.2919
 1050TIP3    H124565   4.410   2.443   0.001 -0.6973  0.5832 -1.5119
 1050TIP3    H224566   4.335   2.316   0.036  0.9221  0.2455  1.0168
 1051TIP3   OH224567   4.906   4.318   5.506 -0.4159 -0.7678  0.0182
 1051TIP3    H124568   4.989   4.361   5.483 -0.2650 -0.5870  0.8744
 1051TIP3    H224569   4.898   4.330   5.600 -1.4406 -0.7646 -0.0587
 1052TIP3   OH224570   4.777   2.530   5.556 -0.0039  0.3159 -0.1378
 1052TIP3    H124571   4.837   2.564   5.489  1.6237  1.0235  1.6140
 1052TIP3    H224572   4.730   2.608   5.587  0.2644  0.2148  0.5207
 1053TIP3   OH224573   1.609   0.311   1.136  0.9214  0.0524 -0.1356
 1053TIP3    H124574   1.699   0.305   1.168 -0.1892 -1.8534  3.1113
 1053TIP3    H224575   1.568   0.376   1.192 -0.0867 -0.1963 -0.5713
 1054TIP3   OH224576   6.297   0.833   6.296  0.5744  0.1400  0.1341
 1054TIP3    H124577   6.226   0.780   6.260 -0.3513  1.7010 -0.4099
 1054TIP3    H224578   6.281   0.921   6.263  2.7860  0.5407 -0.0049
 1055TIP3   OH224579   4.908   5.455   1.217 -0.0063  0.2247 -0.4541
 1055TIP3    H124580   4.833   5.431   1.162 -2.3896 -0.2898  2.7699
 1055TIP3    H224581   4.966   5.379   1.214 -0.6856 -0.2810 -1.2527
 1056TIP3   OH224582   6.072   4.052   2.992  0.0244  0.0227 -0.2842
 1056TIP3    H124583   6.114   4.070   2.908 -0.2854  1.6002 -0.1384
 1056TIP3    H224584   5.979   4.045   2.972  0.0149 -0.2651 -0.1526
 1057TIP3   OH224585   0.132   3.443   1.722 -0.3746 -0.5369  0.7607
 1057TIP3    H124586   0.092   3.444   1.809  0.3537 -1.4542  1.1330
 1057TIP3    H224587   0.222   3.471   1.737  0.2596 -2.3320  0.6207
 1058TIP3   OH224588   4.161   0.285  17.154 -0.1373  0.0437  0.8087
 1058TIP3    H124589   4.160   0.191  17.134 -1.7086 -0.1553  1.6713
 1058TIP3    H224590   4.069   0.308  17.168 -0.0743  2.2330 -1.6040
 1059TIP3   OH224591   5.288   3.899   2.561  0.1731  0.3762 -0.2477
 1059TIP3    H124592   5.213   3.843   2.582  0.0308 -0.2928 -2.3361
 1059TIP3    H224593   5.346   3.891   2.637 -0.7795 -0.9794  0.3725
 1060TIP3   OH224594   2.291   4.436  15.034 -0.0295  0.0155  0.1403
 1060TIP3    H124595   2.330   4.355  15.003 -0.8952 -0.1830 -0.4499
 1060TIP3    H224596   2.201   4.413  15.057 -0.3587  0.8436 -0.2656
 1061TIP3   OH224597   3.474   1.429   5.129 -0.4324 -0.8400  0.1660
 1061TIP3    H124598   3.423   1.349   5.120 -0.1350 -0.8701 -1.6094
 1061TIP3    H224599   3.563   1.403   5.107  0.1132 -0.4787  1.8188
 1062TIP3   OH224600   0.457   4.604   1.954 -0.5358  0.6333 -0.5330
 1062TIP3    H124601   0.457   4.697   1.975 -0.3374  0.2350  1.4599
 1062TIP3    H224602   0.543   4.588   1.915 -0.2869  1.1552 -0.1995
 1063TIP3   OH224603   5.257   5.852   0.249 -0.4350  0.5402 -0.2353
 1063TIP3    H124604   5.245   5.945   0.229 -0.9613  0.5213 -0.0131
 1063TIP3    H224605   5.264   5.849   0.344  2.3421  0.6609 -0.3561
 1064TIP3   OH224606   2.544   0.005  16.381  0.3012  0.1736 -0.3776
 1064TIP3    H124607   2.467   0.052  16.348  0.0114 -1.8152 -2.8698
 1064TIP3    H224608   2.537   0.011  16.476 -1.2452  2.6282 -0.5547
 1065TIP3   OH224609   1.661   0.570  16.942  0.2000  0.3855 -0.1679
 1065TIP3    H124610   1.737   0.586  16.886  0.2100  0.7280 -0.0571
 1065TIP3    H224611   1.587   0.562  16.880  0.0418  1.7563 -0.1878
 1066TIP3   OH224612   2.555   0.900   3.174 -0.2221 -0.0122  0.0450
 1066TIP3    H124613   2.521   0.986   3.198  1.0990  0.1340  1.5952
 1066TIP3    H224614   2.506   0.839   3.228 -0.7878 -0.1997 -0.6662
 1067TIP3   OH224615   6.089   2.521   2.641  0.3767  0.0493 -0.4042
 1067TIP3    H124616   6.126   2.530   2.553 -1.1636 -0.1728 -1.0972
 1067TIP3    H224617   6.070   2.428   2.650 -0.5746  0.2454 -0.3011
 1068TIP3   OH224618   5.912   0.638   0.647  0.3303  0.0995  0.3000
 1068TIP3    H124619   5.917   0.548   0.678  0.5981 -1.0759 -2.7690
 1068TIP3    H224620   5.827   0.644   0.604  1.4540  0.2970 -2.0804
 1069TIP3   OH224621   1.463   6.547   2.062 -0.1936 -0.0019 -0.1246
 1069TIP3    H124622   1.469   6.460   2.101 -0.6732 -1.6735 -3.4652
 1069TIP3    H224623   1.378   6.581   2.093 -0.6508 -1.3041  0.1036
 1070TIP3   OH224624   0.562   2.862  14.004 -0.0979  0.6285 -0.0405
 1070TIP3    H124625   0.470   2.879  13.987  0.2625  2.6960 -0.1126
 1070TIP3    H224626   0.573   2.876  14.098 -0.3801 -2.5288  0.5881
 1071TIP3   OH224627   0.484   0.681   0.605 -0.2490 -0.0253  0.6488
 1071TIP3    H124628   0.557   0.693   0.666  1.1735  2.8757 -1.3496
 1071TIP3    H224629   0.517   0.714   0.521 -2.4426 -2.7934 -1.5272
 1072TIP3   OH224630   3.799   0.088   5.298  0.0475 -0.2678  0.3925
 1072TIP3    H124631   3.843   0.162   5.254 -1.1514 -0.7132 -1.6959
 1072TIP3    H224632   3.727   0.129   5.346 -0.3619  0.0094 -0.4234
 1073TIP3   OH224633   2.540   1.811  12.220 -0.0793 -0.3513  0.5909
 1073TIP3    H124634   2.493   1.811  12.303  0.3877  0.7071  0.8663
 1073TIP3    H224635   2.630   1.791  12.243  0.6374  2.6420  0.7309
 1074TIP3   OH224636   6.394   1.451   5.872  0.1449  0.4064 -0.0913
 1074TIP3    H124637   6.459   1.408   5.927 -0.3902  0.9991  1.0440
 1074TIP3    H224638   6.353   1.516   5.930 -3.1078 -1.5115 -0.0177
 1075TIP3   OH224639   0.909   4.474  15.372 -0.0520 -0.3922 -0.1077
 1075TIP3    H124640   0.920   4.529  15.449  0.9335 -0.1339 -0.4211
 1075TIP3    H224641   0.917   4.535  15.298 -2.0785 -0.4358 -0.4323
 1076TIP3   OH224642   5.146   2.132  16.773  0.7594  0.0087  0.9912
 1076TIP3    H124643   5.203   2.056  16.788  0.8755 -0.4556 -1.3711
 1076TIP3    H224644   5.070   2.096  16.729  0.0169  1.0539  1.3875
 1077TIP3   OH224645   5.548   4.227   5.616 -0.3703 -0.1364  0.5042
 1077TIP3    H124646   5.597   4.148   5.641  0.2774  0.1770  0.2606
 1077TIP3    H224647   5.587   4.297   5.670 -1.8813 -0.2125  1.7538
 1078TIP3   OH224648   0.411   3.287   4.428 -0.3307  0.3428 -0.2912
 1078TIP3    H124649   0.358   3.305   4.351 -1.5958 -0.8739  0.2409
 1078TIP3    H224650   0.347   3.262   4.495  0.7372  1.2861  1.1298
 1079TIP3   OH224651   2.923   4.546   3.170  0.3156  0.2751 -0.3733
 1079TIP3    H124652   2.858   4.491   3.127 -1.7718  1.8969  0.5264
 1079TIP3    H224653   2.957   4.602   3.100 -1.1877  1.1610 -0.4322
 1080TIP3   OH224654   3.904   0.322   0.106  0.0608 -0.1392  0.9903
 1080TIP3    H124655   3.905   0.328   0.010 -2.0731  1.5153  1.0081
 1080TIP3    H224656   3.996   0.315   0.130  0.7803  1.2168 -1.1006
 1081TIP3   OH224657   0.273   4.574  16.666  0.1039 -0.1700 -0.2757
 1081TIP3    H124658   0.187   4.561  16.624 -0.0025 -0.1052 -0.0776
 1081TIP3    H224659   0.263   4.537  16.753 -0.0085  0.6563  0.0731
 1082TIP3   OH224660   1.680   4.650  13.872  0.0960  0.1922  0.9264
 1082TIP3    H124661   1.711   4.740  13.856  0.6977  0.1432  1.7873
 1082TIP3    H224662   1.741   4.614  13.936  0.1004 -0.9839  0.2856
 1083TIP3   OH224663   5.636   2.534  16.415 -0.1780 -0.7494 -0.3482
 1083TIP3    H124664   5.727   2.562  16.423 -0.0880 -0.5444 -1.7394
 1083TIP3    H224665   5.629   2.501  16.325 -1.1465 -2.0049  0.1530
 1084TIP3   OH224666   6.006   3.736   3.950 -0.0609  0.7834  0.8432
 1084TIP3    H124667   5.979   3.670   4.013 -0.2563 -0.6306 -0.6570
 1084TIP3    H224668   5.932   3.745   3.890  1.6652 -1.2800 -1.8262
 1085TIP3   OH224669   2.687   1.357   5.018  0.3254 -0.0057  1.0334
 1085TIP3    H124670   2.679   1.419   4.945 -0.8195 -0.4745  0.7353
 1085TIP3    H224671   2.779   1.363   5.044  1.5062 -1.7777 -2.1729
 1086TIP3   OH224672   3.392   0.296  14.842  0.0353  0.4231  0.2337
 1086TIP3    H124673   3.425   0.206  14.838 -0.1756  0.2905  1.1327
 1086TIP3    H224674   3.359   0.305  14.932 -0.4891  1.2096 -0.0300
 1087TIP3   OH224675   3.977   4.055   3.866 -0.3088  0.3943  0.3551
 1087TIP3    H124676   4.057   4.005   3.882  0.2373  1.1460  0.0362
 1087TIP3    H224677   3.918   4.030   3.937 -0.3411 -1.2801 -0.2286
 1088TIP3   OH224678   3.240   4.093   4.703  0.0349  0.2356 -0.4653
 1088TIP3    H124679   3.215   4.018   4.756 -1.1147  1.9103  1.5265
 1088TIP3    H224680   3.209   4.072   4.615 -0.9329 -1.2767  0.2008
 1089TIP3   OH224681   6.697   2.747   2.561 -0.0056  0.3905  0.0782
 1089TIP3    H124682   6.682   2.741   2.467  1.5621 -0.5173 -0.1486
 1089TIP3    H224683   6.701   2.656   2.591 -1.4534  0.6620  1.2225
 1090TIP3   OH224684   2.377   3.982  12.565  0.6371  0.3345  0.2683
 1090TIP3    H124685   2.382   4.049  12.633 -0.1714 -0.0506  0.7201
 1090TIP3    H224686   2.315   3.918  12.598  0.5353 -0.0696 -0.6556
 1091TIP3   OH224687   2.916   2.981   2.620 -0.1120  0.0438  0.3956
 1091TIP3    H124688   2.983   3.044   2.646 -1.1152  1.6299 -0.7209
 1091TIP3    H224689   2.893   2.936   2.702  0.8866  0.8499  1.1533
 1092TIP3   OH224690   6.404   3.356   1.920 -0.6713 -0.0375 -0.5089
 1092TIP3    H124691   6.416   3.377   2.013  0.1743  2.8886 -1.1641
 1092TIP3    H224692   6.481   3.304   1.897 -0.4517 -0.0526  0.2545
 1093TIP3   OH224693   3.275   4.605  14.219  0.9681 -0.1385 -0.9135
 1093TIP3    H124694   3.353   4.595  14.274 -0.6201 -1.7411  1.1658
 1093TIP3    H224695   3.283   4.535  14.154  0.7551 -1.0427  0.0040
 1094TIP3   OH224696   4.084   2.472  17.228  0.0578 -0.2275 -0.3073
 1094TIP3    H124697   4.021   2.406  17.256  0.3106  0.4865  2.1234
 1094TIP3    H224698   4.167   2.444  17.268 -0.1586  2.3606  2.2683
 1095TIP3   OH224699   0.185   4.107  13.747  0.2304 -0.3015  0.2794
 1095TIP3    H124700   0.152   4.195  13.764  0.7635 -0.1053  0.3142
 1095TIP3    H224701   0.220   4.077  13.830  0.7619 -0.2376  0.0810
 1096TIP3   OH224702   5.143   2.925   6.012 -0.0804 -0.3019  0.5394
 1096TIP3    H124703   5.097   2.913   6.095  0.9094  0.9496  1.2884
 1096TIP3    H224704   5.083   2.979   5.959  0.3022  0.9663  1.3572
 1097TIP3   OH224705   3.935   3.689   3.928  0.9239 -0.5178  0.1748
 1097TIP3    H124706   4.014   3.638   3.909  0.3178 -0.8846 -1.5716
 1097TIP3    H224707   3.902   3.715   3.842 -1.4273 -1.2363  0.7932
 1098TIP3   OH224708   3.870   2.161   4.147 -0.3350  0.2410  0.1403
 1098TIP3    H124709   3.787   2.127   4.114  0.0456  0.5624 -1.2387
 1098TIP3    H224710   3.874   2.133   4.238 -0.5431 -2.5271 -0.6032
 1099TIP3   OH224711   3.920   2.566   3.727  0.5925 -0.4707 -0.4609
 1099TIP3    H124712   3.917   2.650   3.680  1.2594 -0.2199 -0.0704
 1099TIP3    H224713   4.009   2.561   3.762 -0.4562  0.4150  2.6639
 1100TIP3   OH224714   5.372   0.801  16.069  0.1369  0.1611 -0.7995
 1100TIP3    H124715   5.393   0.715  16.106  0.8944  1.1311  1.1554
 1100TIP3    H224716   5.312   0.840  16.132 -1.8746  0.3292 -2.6886
 1101TIP3   OH224717   6.130   4.205  14.276  0.6458  0.5658  0.1766
 1101TIP3    H124718   6.088   4.119  14.280 -0.0122  0.9167  0.9727
 1101TIP3    H224719   6.220   4.186  14.248  0.3822 -0.3315 -0.1160
 1102TIP3   OH224720   5.875   0.383   3.193 -0.2850 -0.0233  0.0899
 1102TIP3    H124721   5.845   0.314   3.133  3.6474 -0.6010 -1.4899
 1102TIP3    H224722   5.896   0.336   3.274 -1.3021  0.0115  0.3876
 1103TIP3   OH224723   2.115   5.840  14.643  0.3823  0.1285 -0.0245
 1103TIP3    H124724   2.056   5.826  14.569 -1.4905  2.2278  0.9423
 1103TIP3    H224725   2.197   5.870  14.604 -0.3915  0.6500 -1.3022
 1104TIP3   OH224726   4.663   3.196   5.830  0.0517 -0.4397 -0.0996
 1104TIP3    H124727   4.690   3.266   5.889 -2.7383 -0.1389  0.9544
 1104TIP3    H224728   4.655   3.240   5.745  0.5222 -0.0155  0.0666
 1105TIP3   OH224729   4.202   2.089  11.435  0.3069  0.3012 -0.0083
 1105TIP3    H124730   4.282   2.082  11.488 -0.4829 -1.5620  1.0322
 1105TIP3    H224731   4.198   2.182  11.411  1.6000  0.8895  1.7988
 1106TIP3   OH224732   4.289   3.772  16.153  0.1135 -0.3611  0.0319
 1106TIP3    H124733   4.279   3.710  16.081 -0.4422 -0.7306  0.4138
 1106TIP3    H224734   4.376   3.755  16.187  0.3841 -0.1782 -0.5549
 1107TIP3   OH224735   1.770   1.407  14.413 -0.1084 -0.2254 -0.1710
 1107TIP3    H124736   1.752   1.498  14.390 -0.9019 -0.2583  0.2507
 1107TIP3    H224737   1.856   1.389  14.377 -1.1381 -0.1877 -2.8409
 1108TIP3   OH224738   0.563   4.887  15.921  0.0641 -0.2798  0.1967
 1108TIP3    H124739   0.537   4.934  15.842  2.0205  0.6374  0.0205
 1108TIP3    H224740   0.483   4.847  15.954 -1.0380  0.4353 -1.5055
 1109TIP3   OH224741   3.338   3.001  12.583  0.1636  0.1503 -0.2088
 1109TIP3    H124742   3.254   3.036  12.610  0.4168  1.1246 -0.6601
 1109TIP3    H224743   3.321   2.908  12.567 -0.9624  0.4570 -0.8812
 1110TIP3   OH224744   3.323   3.571   3.577  0.3803  0.2796  0.1955
 1110TIP3    H124745   3.371   3.506   3.628 -0.4527 -0.5959 -0.1139
 1110TIP3    H224746   3.233   3.538   3.574 -0.1186  1.5567  0.2148
 1111TIP3   OH224747   4.311   5.776  11.535  0.2102  0.4342 -0.3768
 1111TIP3    H124748   4.367   5.732  11.471 -0.7038  1.1887 -1.7714
 1111TIP3    H224749   4.371   5.818  11.596  1.1151 -0.4332 -0.6471
 1112TIP3   OH224750   2.352   3.351   3.891  0.4706  0.1691  0.1311
 1112TIP3    H124751   2.407   3.405   3.948  0.6546 -0.0941  0.2044
 1112TIP3    H224752   2.393   3.356   3.805 -1.3686  2.9014 -0.7175
 1113TIP3   OH224753   5.581   1.295  13.132  0.2300 -0.0411  0.3744
 1113TIP3    H124754   5.572   1.374  13.185 -0.7900 -0.3227  0.6380
 1113TIP3    H224755   5.654   1.247  13.171  0.5197  0.5233  0.5288
 1114TIP3   OH224756   1.192   5.226  13.547  0.7861 -0.1695 -0.7000
 1114TIP3    H124757   1.276   5.190  13.520  0.5225 -0.8257 -0.6512
 1114TIP3    H224758   1.141   5.151  13.576  0.2781  0.2563 -0.4589
 1115TIP3   OH224759   4.459   4.434   0.017  0.1585 -0.5963 -0.4632
 1115TIP3    H124760   4.405   4.511   0.000  1.0911  0.0207 -0.7091
 1115TIP3    H224761   4.532   4.467   0.070  0.8087 -1.2191 -0.9588
 1116TIP3   OH224762   1.161   4.782   6.741 -0.3629 -0.4334 -0.8217
 1116TIP3    H124763   1.156   4.687   6.742 -1.4849 -0.3892 -0.2749
 1116TIP3    H224764   1.229   4.803   6.677 -1.8648 -1.5433 -2.8720
 1117TIP3   OH224765   2.904   0.701   5.371 -0.5424  0.0990 -0.0599
 1117TIP3    H124766   2.849   0.743   5.305 -0.5356  0.2793  0.0475
 1117TIP3    H224767   2.940   0.624   5.327 -0.6115  0.1671 -0.2367
 1118TIP3   OH224768   5.418   3.801  15.948 -0.0498 -0.3955  0.6164
 1118TIP3    H124769   5.346   3.738  15.941  0.4134 -1.0600  1.6325
 1118TIP3    H224770   5.377   3.886  15.928 -1.0356 -0.8025  0.8214
 1119TIP3   OH224771   5.010   1.610  14.215 -0.0703 -0.7488 -0.0765
 1119TIP3    H124772   4.992   1.517  14.222  2.0338 -1.1032  3.2242
 1119TIP3    H224773   4.951   1.651  14.279  0.0043 -0.0176 -0.4598
 1120TIP3   OH224774   5.028   2.893  16.382 -0.0155 -0.2494  0.1617
 1120TIP3    H124775   5.112   2.940  16.386 -0.3993  0.4676 -0.0131
 1120TIP3    H224776   5.014   2.879  16.289 -1.1445  1.6180 -0.0083
 1121TIP3   OH224777   4.369   3.069   2.607 -0.1089 -0.1606 -0.4393
 1121TIP3    H124778   4.357   3.022   2.525  0.1411 -1.5446  0.2843
 1121TIP3    H224779   4.412   3.006   2.665 -0.4907  0.6969  0.8284
 1122TIP3   OH224780   3.829   6.589  13.427  0.4590  0.1289 -0.6478
 1122TIP3    H124781   3.786   6.505  13.445 -0.8712 -0.3953 -4.9262
 1122TIP3    H224782   3.800   6.647  13.497 -2.4859 -1.8041 -0.0869
 1123TIP3   OH224783   1.063   0.220   5.361  0.0766  0.2488 -0.0331
 1123TIP3    H124784   0.991   0.276   5.330  0.6276  1.0468  0.1085
 1123TIP3    H224785   1.020   0.139   5.388 -0.7713  0.7054  0.0254
 1124TIP3   OH224786   4.126   2.399   0.308 -0.8572  0.4732  0.1063
 1124TIP3    H124787   4.220   2.416   0.312 -0.4381 -1.3800 -0.8217
 1124TIP3    H224788   4.110   2.332   0.374 -1.3480  0.0960 -0.3850
 1125TIP3   OH224789   5.434   6.409   1.502 -0.0633  0.0223 -0.1104
 1125TIP3    H124790   5.377   6.463   1.558  0.3999 -0.8138  1.2204
 1125TIP3    H224791   5.399   6.321   1.511  0.3385 -0.2045 -0.7501
 1126TIP3   OH224792   4.616   3.078  11.407  0.5739  0.7416  0.4937
 1126TIP3    H124793   4.627   2.983  11.400  0.3591  0.5035  2.6615
 1126TIP3    H224794   4.533   3.095  11.362  0.9530  0.0165 -0.5138
 1127TIP3   OH224795   2.823   3.567   2.118 -1.0267 -0.5105 -0.5826
 1127TIP3    H124796   2.729   3.582   2.115 -0.7041  1.7188 -0.8334
 1127TIP3    H224797   2.848   3.552   2.026 -1.1185 -1.1215 -0.5139
 1128TIP3   OH224798   3.659   5.596  11.317  0.2786  0.4928  0.0957
 1128TIP3    H124799   3.692   5.518  11.361  0.9271  0.8205  0.2126
 1128TIP3    H224800   3.566   5.598  11.337  0.3637  0.0489  0.5525
 1129TIP3   OH224801   6.617   4.137   6.183  0.7681 -0.0954 -0.0315
 1129TIP3    H124802   6.669   4.062   6.153  0.1630 -0.8482  0.7596
 1129TIP3    H224803   6.612   4.126   6.278  1.1819  1.2981  0.1732
 1130TIP3   OH224804   2.121   4.698   2.095 -0.1917 -0.2060 -0.1947
 1130TIP3    H124805   2.040   4.723   2.140 -0.0239  0.8273 -0.4588
 1130TIP3    H224806   2.124   4.754   2.018  0.1140 -1.1542 -0.8899
 1131TIP3   OH224807   0.908   2.904  13.501  0.4738 -0.6478 -0.0074
 1131TIP3    H124808   0.968   2.855  13.445  2.2289  2.0471 -0.7085
 1131TIP3    H224809   0.915   2.861  13.586  1.8930 -1.6404 -0.5778
 1132TIP3   OH224810   2.604   5.684  12.891 -0.1812 -0.2148 -0.2141
 1132TIP3    H124811   2.622   5.761  12.945 -0.2846  0.6156 -1.3195
 1132TIP3    H224812   2.573   5.618  12.953  1.6938 -0.0043  1.0148
 1133TIP3   OH224813   5.473   4.393  12.190  0.5275 -0.4117  0.0526
 1133TIP3    H124814   5.415   4.417  12.117  0.8773  0.6560  0.0971
 1133TIP3    H224815   5.561   4.410  12.156  0.6632  0.9420  0.9763
 1134TIP3   OH224816   2.808   0.938   0.295 -0.7017 -0.0633 -0.1589
 1134TIP3    H124817   2.759   0.986   0.228  0.6831  0.7937 -0.5854
 1134TIP3    H224818   2.859   0.873   0.246 -1.0011 -0.6046  0.2347
 1135TIP3   OH224819   6.761   4.824   2.383 -0.3853 -0.4731  0.5917
 1135TIP3    H124820   6.757   4.730   2.402  0.3752 -0.0883  3.0396
 1135TIP3    H224821   6.778   4.864   2.468 -0.8695  1.9128 -0.3740
 1136TIP3   OH224822   1.253   5.786  13.195 -0.1113  0.6116  0.6409
 1136TIP3    H124823   1.294   5.843  13.131  1.2759 -0.1954  0.7707
 1136TIP3    H224824   1.189   5.735  13.145  0.6025  0.3380 -0.0068
 1137TIP3   OH224825   3.792   6.019  10.656 -0.1421  0.6618  0.1185
 1137TIP3    H124826   3.783   6.085  10.724 -0.4182  2.9787 -2.0321
 1137TIP3    H224827   3.838   6.064  10.584 -2.7751 -0.5261 -2.5364
 1138TIP3   OH224828   5.337   0.992  11.462 -0.0940 -0.3089  0.0275
 1138TIP3    H124829   5.268   1.054  11.485  1.8726  1.0582  2.7359
 1138TIP3    H224830   5.388   1.037  11.395  0.8166  0.7146  1.3636
 1139TIP3   OH224831   4.601   5.676  10.738  0.4965 -0.1182 -0.1425
 1139TIP3    H124832   4.683   5.724  10.731  1.0781 -1.1258 -0.4847
 1139TIP3    H224833   4.624   5.597  10.787 -0.6083  0.3140  1.1105
 1140TIP3   OH224834   3.485   6.411  12.143 -0.5109 -0.0496 -0.6937
 1140TIP3    H124835   3.511   6.324  12.174 -1.4177 -0.0281  0.1873
 1140TIP3    H224836   3.556   6.469  12.173 -0.5512 -0.2939 -0.1079
 1141TIP3   OH224837   1.863   6.667  14.023 -0.5739  0.0044  0.9064
 1141TIP3    H124838   1.840   6.578  14.052 -0.9822 -0.2227 -0.0972
 1141TIP3    H224839   1.831   6.723  14.094 -0.0596 -0.6576  1.6910
 1142TIP3   OH224840   2.293   4.651  15.206  0.3858  0.2922 -0.0507
 1142TIP3    H124841   2.301   4.713  15.133 -0.3674 -0.5289 -0.8500
 1142TIP3    H224842   2.307   4.565  15.167  2.7253 -0.0191  1.2716
 1143TIP3   OH224843   1.354   0.626   0.527 -0.4018  0.0869  0.6275
 1143TIP3    H124844   1.276   0.678   0.546  0.3874  0.8274  2.0987
 1143TIP3    H224845   1.331   0.537   0.553 -1.2670 -0.0118 -0.4525
 1144TIP3   OH224846   0.420   5.514  13.156  0.0077  0.2864  0.3291
 1144TIP3    H124847   0.326   5.508  13.172 -0.0670 -1.7627 -0.4523
 1144TIP3    H224848   0.427   5.545  13.066  0.0921  0.7467  0.4930
 1145TIP3   OH224849   1.596   4.202   3.907 -0.0562  0.0925  0.0793
 1145TIP3    H124850   1.579   4.149   3.829 -0.3096 -1.8300  1.3832
 1145TIP3    H224851   1.568   4.290   3.882  0.0468 -0.4200 -2.0553
 1146TIP3   OH224852   5.140   4.361   5.405  0.3738  0.0265  0.1885
 1146TIP3    H124853   5.211   4.304   5.374 -0.2235  0.2579 -1.6917
 1146TIP3    H224854   5.160   4.447   5.368 -0.9032  0.0861 -0.3824
 1147TIP3   OH224855   5.526   0.164   2.871  0.6392  0.3160  0.4959
 1147TIP3    H124856   5.491   0.082   2.838 -0.7953  1.3764 -0.7816
 1147TIP3    H224857   5.472   0.184   2.948  0.4522  0.4485  0.3315
 1148TIP3   OH224858   5.885   4.481  14.414  0.6296 -0.0556  0.2651
 1148TIP3    H124859   5.891   4.539  14.489  0.2006  0.9873 -0.4855
 1148TIP3    H224860   5.805   4.430  14.430 -0.7008  1.6775 -0.4803
 1149TIP3   OH224861   0.903   4.643  17.016  0.1254  0.0231 -0.0508
 1149TIP3    H124862   0.879   4.601  16.933  1.3117  1.3337 -1.0933
 1149TIP3    H224863   0.947   4.574  17.066 -0.8185 -0.8434 -0.3683
 1150TIP3   OH224864   0.503   1.691   5.163  0.1900 -0.2640 -0.4458
 1150TIP3    H124865   0.486   1.771   5.212 -1.6853 -0.7193 -0.2931
 1150TIP3    H224866   0.598   1.692   5.147  0.1549  2.1978 -0.8624
 1151TIP3   OH224867   5.672   0.357  13.467 -0.1847 -0.0086 -0.6294
 1151TIP3    H124868   5.724   0.277  13.468 -1.2424 -0.7523 -1.7134
 1151TIP3    H224869   5.733   0.426  13.441  1.0640 -0.1638  1.6032
 1152TIP3   OH224870   3.895   5.448   3.643 -0.1334 -0.3239 -0.4037
 1152TIP3    H124871   3.923   5.449   3.551  0.2094 -1.5958 -0.3363
 1152TIP3    H224872   3.913   5.537   3.675  4.0901 -0.9983 -0.3193
 1153TIP3   OH224873   2.702   2.190  16.451 -0.1942  0.0270 -0.1498
 1153TIP3    H124874   2.614   2.228  16.459  0.1280  1.4074 -2.4245
 1153TIP3    H224875   2.720   2.189  16.357  2.1156 -0.5076  0.2357
 1154TIP3   OH224876   1.011   5.154   6.579 -0.5708 -0.2282 -0.5373
 1154TIP3    H124877   0.973   5.084   6.631 -0.3433 -1.9402 -2.5288
 1154TIP3    H224878   1.106   5.143   6.591 -0.3680 -2.1903 -2.9883
 1155TIP3   OH224879   0.454   1.543  12.239 -0.0116 -0.2106  0.6122
 1155TIP3    H124880   0.479   1.632  12.214 -1.8141  0.5581  1.4139
 1155TIP3    H224881   0.486   1.489  12.167 -1.4252  1.4226 -1.3645
 1156TIP3   OH224882   5.047   2.837  13.012 -0.2127 -0.5773  0.3794
 1156TIP3    H124883   4.956   2.812  13.026 -0.5835  0.2823 -0.4187
 1156TIP3    H224884   5.043   2.910  12.950  1.1347 -2.2334 -1.8527
 1157TIP3   OH224885   6.763   0.704  16.638  0.0314  0.0931  0.1092
 1157TIP3    H124886   6.743   0.795  16.656 -1.7398  0.0023 -1.0779
 1157TIP3    H224887   6.855   0.694  16.660  0.4936  2.3845 -0.5641
 1158TIP3   OH224888   3.109   5.265  12.594 -0.3284  0.5998 -0.6583
 1158TIP3    H124889   3.143   5.342  12.549  0.0840  1.4377  1.0099
 1158TIP3    H224890   3.177   5.241  12.656 -0.8368 -0.5724 -0.5263
 1159TIP3   OH224891   5.973   1.787  11.431 -0.6261  0.5131  0.6630
 1159TIP3    H124892   5.988   1.826  11.517  0.2427 -0.3596  0.9050
 1159TIP3    H224893   5.890   1.741  11.440  0.4228 -1.2584  1.6469
 1160TIP3   OH224894   1.276   1.362   2.494  0.0337 -0.3106  0.4688
 1160TIP3    H124895   1.295   1.434   2.554  0.5564 -0.5759  0.6340
 1160TIP3    H224896   1.232   1.402   2.420 -1.2134 -0.0652  1.3206
 1161TIP3   OH224897   0.397   6.023  16.582  0.0672  0.1362  0.1489
 1161TIP3    H124898   0.344   6.059  16.653  0.9055  1.4086  0.1549
 1161TIP3    H224899   0.478   5.994  16.624 -1.2858 -3.6437  0.4743
 1162TIP3   OH224900   6.061   2.546  11.208 -0.0483  0.4676 -0.0750
 1162TIP3    H124901   6.044   2.533  11.115  1.9563  1.1788 -0.5836
 1162TIP3    H224902   6.033   2.636  11.225 -1.5665 -0.0476  0.3451
 1163TIP3   OH224903   4.032   4.245   2.727 -0.5714 -0.2250  0.7296
 1163TIP3    H124904   4.120   4.278   2.744  0.3240 -2.1828  0.2358
 1163TIP3    H224905   4.025   4.168   2.783 -2.3532  0.4154  1.4512
 1164TIP3   OH224906   4.778   6.710  14.796  0.2788  0.5773  0.3415
 1164TIP3    H124907   4.720   6.662  14.855 -1.0171  0.4950 -0.9458
 1164TIP3    H224908   4.736   6.796  14.786  0.0499  0.3097 -1.0693
 1165TIP3   OH224909   4.926   2.376  15.143 -0.0023  0.1744  0.0027
 1165TIP3    H124910   4.932   2.329  15.226 -1.2276  0.3338  0.2059
 1165TIP3    H224911   4.946   2.467  15.165  0.7219  0.0425 -0.0847
 1166TIP3   OH224912   1.077   0.229   0.640 -0.2389  0.1764  0.1528
 1166TIP3    H124913   1.132   0.270   0.707 -0.6508 -0.6741  1.0242
 1166TIP3    H224914   1.131   0.231   0.561 -0.1472  2.1682  0.2009
 1167TIP3   OH224915   5.717   2.664   6.616 -0.3013  0.2902  0.2196
 1167TIP3    H124916   5.787   2.685   6.677  1.6514 -0.3750 -1.6869
 1167TIP3    H224917   5.757   2.670   6.529 -2.4345 -0.7171 -0.9171
 1168TIP3   OH224918   3.731   6.281  16.720 -0.1621  0.2314  0.8744
 1168TIP3    H124919   3.761   6.304  16.633 -0.2058 -0.2810  0.7189
 1168TIP3    H224920   3.689   6.360  16.754 -1.0044  0.1541  0.0556
 1169TIP3   OH224921   5.927   2.490  14.387  0.1895  0.1390 -0.2944
 1169TIP3    H124922   5.908   2.556  14.321 -1.3799  0.4664  0.4460
 1169TIP3    H224923   6.000   2.440  14.350  1.0796  1.9333 -1.0944
 1170TIP3   OH224924   6.440   3.873   3.274  0.1056  0.0332 -0.4165
 1170TIP3    H124925   6.476   3.901   3.358  0.9973 -1.7449 -0.1467
 1170TIP3    H224926   6.384   3.945   3.246 -0.5937  0.4911  1.9259
 1171TIP3   OH224927   2.931   0.302  11.841 -0.2877  0.7281  0.5022
 1171TIP3    H124928   2.881   0.270  11.766  0.1564  1.6026 -0.1911
 1171TIP3    H224929   2.940   0.396  11.825  1.8001  0.5548  0.4640
 1172TIP3   OH224930   1.378   6.295   1.731  0.1797  0.4554  0.0032
 1172TIP3    H124931   1.327   6.297   1.811 -3.3873  0.7308 -2.0805
 1172TIP3    H224932   1.422   6.380   1.728 -0.2824  0.7578  1.2492
 1173TIP3   OH224933   5.711   5.093   4.515 -0.1930  0.6559  0.0853
 1173TIP3    H124934   5.704   5.023   4.580 -2.3420  1.4298  0.7451
 1173TIP3    H224935   5.799   5.083   4.479  0.4942 -0.7563  2.0091
 1174TIP3   OH224936   2.862   0.211  12.797  0.2473 -0.0723 -0.0670
 1174TIP3    H124937   2.881   0.225  12.889  1.0318 -1.8327  0.0730
 1174TIP3    H224938   2.851   0.116  12.788  0.7552 -0.0070 -1.8638
 1175TIP3   OH224939   2.054   6.554   5.860 -0.2019  0.4396 -0.1809
 1175TIP3    H124940   2.022   6.634   5.900 -0.7073  0.9154 -1.4961
 1175TIP3    H224941   2.080   6.499   5.934 -0.9169  1.3565  0.7790
 1176TIP3   OH224942   3.294   2.452   5.482 -0.4321  0.1410  0.1183
 1176TIP3    H124943   3.363   2.468   5.546  0.8324 -1.2021 -0.8516
 1176TIP3    H224944   3.275   2.539   5.445  1.9721  0.3658 -0.7863
 1177TIP3   OH224945   2.277   4.178   3.966 -0.8255 -0.2216  0.1034
 1177TIP3    H124946   2.306   4.269   3.968  0.4337 -0.5864  2.2891
 1177TIP3    H224947   2.201   4.175   4.024 -1.4914 -0.3877 -0.7664
 1178TIP3   OH224948   5.324   5.614  11.893  0.0984 -0.1520  0.6767
 1178TIP3    H124949   5.298   5.522  11.884 -0.6889  0.1900 -0.9377
 1178TIP3    H224950   5.363   5.636  11.809  0.0295  1.0756  0.9528
 1179TIP3   OH224951   0.103   2.338  14.216  0.4220 -0.3076 -0.0503
 1179TIP3    H124952   0.126   2.267  14.275  0.3273 -0.6690 -0.4443
 1179TIP3    H224953   0.186   2.359  14.172  0.3211 -0.6049 -0.3906
 1180TIP3   OH224954   6.025   6.544   5.591  0.0903  0.4183  0.1144
 1180TIP3    H124955   5.993   6.511   5.507 -0.4488  0.3078  0.3543
 1180TIP3    H224956   5.946   6.551   5.645  0.4339  0.4506  0.6209
 1181TIP3   OH224957   4.264   6.587   4.056  0.4250 -1.3610 -0.5675
 1181TIP3    H124958   4.226   6.621   3.975 -3.1855 -1.3279  0.9348
 1181TIP3    H224959   4.243   6.494   4.056 -1.5768 -1.0110  1.1210
 1182TIP3   OH224960   2.022   4.936  16.075  0.2827 -0.0796  0.4607
 1182TIP3    H124961   1.957   4.867  16.062 -1.7974  1.7772  0.4960
 1182TIP3    H224962   2.025   4.981  15.991  1.0290  0.2993  0.6850
 1183TIP3   OH224963   1.674   1.326   6.347 -0.0861  0.0154 -0.2963
 1183TIP3    H124964   1.749   1.268   6.334 -1.2125 -1.5539 -0.0009
 1183TIP3    H224965   1.625   1.288   6.420  1.0859  3.4375  2.5808
 1184TIP3   OH224966   0.435   4.099  17.267 -0.2887 -0.2592  0.1931
 1184TIP3    H124967   0.515   4.049  17.253  0.0420  0.2647  0.2174
 1184TIP3    H224968   0.455   4.158  17.340  0.0451  1.4548 -1.2288
 1185TIP3   OH224969   4.113   2.219  15.469 -0.3353 -0.3830 -0.2958
 1185TIP3    H124970   4.204   2.243  15.487 -0.0416 -1.2144 -0.6097
 1185TIP3    H224971   4.089   2.271  15.392 -0.3758  0.3890  0.2281
 1186TIP3   OH224972   3.150   0.432  16.389  0.1243  0.4744 -0.0073
 1186TIP3    H124973   3.184   0.509  16.342  0.5954  0.0212 -0.4225
 1186TIP3    H224974   3.160   0.360  16.327  0.5195 -0.0889  0.6991
 1187TIP3   OH224975   6.197   2.002  12.794  0.6864 -0.2509  0.2488
 1187TIP3    H124976   6.237   2.001  12.881  1.4542 -0.4848 -0.0951
 1187TIP3    H224977   6.108   1.971  12.808  0.6031  0.3191  1.0404
 1188TIP3   OH224978   1.308   3.964   1.041 -0.8296  0.0422 -0.1502
 1188TIP3    H124979   1.341   3.874   1.044  0.6555  0.5662  0.5382
 1188TIP3    H224980   1.246   3.969   1.114 -0.2547 -0.2003  0.3695
 1189TIP3   OH224981   5.438   3.879   2.115  0.3409  0.1365  0.1472
 1189TIP3    H124982   5.365   3.883   2.178  0.5420 -1.4564  0.5247
 1189TIP3    H224983   5.422   3.799   2.065  2.0373 -0.4582  0.4984
 1190TIP3   OH224984   2.318   0.096   0.604 -0.3361 -0.3482  0.3247
 1190TIP3    H124985   2.302   0.187   0.579 -1.2318 -1.1826 -2.5183
 1190TIP3    H224986   2.232   0.064   0.633 -0.4128 -0.7437 -0.3372
 1191TIP3   OH224987   3.348   2.811  11.270 -0.6085 -0.2594 -0.0771
 1191TIP3    H124988   3.322   2.875  11.203  0.1985 -0.4593 -0.5926
 1191TIP3    H224989   3.327   2.726  11.231  0.6480 -0.4167 -0.4413
 1192TIP3   OH224990   1.609   1.696  13.901  0.1643  0.2332  0.3353
 1192TIP3    H124991   1.573   1.752  13.832  1.2710 -0.0042 -0.4705
 1192TIP3    H224992   1.552   1.619  13.902 -0.6970  0.8595  0.6789
 1193TIP3   OH224993   3.818   1.960   0.375 -0.1581 -0.0404 -0.1540
 1193TIP3    H124994   3.814   1.958   0.279 -0.1621  0.8597 -0.1804
 1193TIP3    H224995   3.726   1.961   0.403 -0.1586 -0.7077 -0.1272
 1194TIP3   OH224996   4.793   6.767   0.975 -0.6883  0.0858  0.8144
 1194TIP3    H124997   4.780   6.853   1.015  1.5796  0.8909 -0.0194
 1194TIP3    H224998   4.716   6.717   1.001 -1.3706  1.8895  2.5689
 1195TIP3   OH224999   6.012   0.616  15.160  0.2280 -0.2812  0.0435
 1195TIP3    H125000   5.947   0.546  15.167 -2.2029  1.7651 -0.4388
 1195TIP3    H225001   6.053   0.602  15.074 -0.6691 -0.7461 -0.3232
 1196TIP3   OH225002   2.310   2.540  12.639 -0.1746  0.6352  0.8261
 1196TIP3    H125003   2.301   2.448  12.615 -0.3881  0.7266  0.5447
 1196TIP3    H225004   2.354   2.580  12.564  0.4634  0.6515  1.2028
 1197TIP3   OH225005   0.586   4.856   3.562 -0.1764  0.4967 -0.6867
 1197TIP3    H125006   0.653   4.861   3.630  0.1720 -0.5534 -0.9413
 1197TIP3    H225007   0.506   4.834   3.610  0.1613 -0.7236 -0.6443
 1198TIP3   OH225008   6.625   0.499   2.245 -0.2395 -0.2558  0.2126
 1198TIP3    H125009   6.652   0.426   2.300  1.1543  0.1123  0.0646
 1198TIP3    H225010   6.534   0.515   2.269  0.5184  0.4010  3.0080
 1199TIP3   OH225011   3.675   0.430   1.407 -0.0474  0.4603  0.2629
 1199TIP3    H125012   3.697   0.516   1.371 -1.0519  0.7156  0.2166
 1199TIP3    H225013   3.642   0.450   1.495  0.2839  0.0582  0.4816
 1200TIP3   OH225014   3.113   3.351   0.987 -0.8488  0.4906  0.1178
 1200TIP3    H125015   3.097   3.436   0.947 -2.3292 -0.6776 -1.9129
 1200TIP3    H225016   3.191   3.318   0.942  0.3778  1.1530  1.6538
 1201TIP3   OH225017   6.658   1.294  14.756  0.0645 -0.1706 -0.0115
 1201TIP3    H125018   6.741   1.246  14.759 -0.3972 -1.0287 -0.5182
 1201TIP3    H225019   6.662   1.342  14.674  0.5275  0.6891  0.4968
 1202TIP3   OH225020   0.916   3.317  14.400  0.2962 -0.4904 -0.0789
 1202TIP3    H125021   0.865   3.238  14.418 -2.3858  1.0738 -0.2366
 1202TIP3    H225022   0.918   3.323  14.304 -1.4400  0.6887 -0.0921
 1203TIP3   OH225023   6.661   2.229  15.546 -0.2681  0.0882 -0.1376
 1203TIP3    H125024   6.593   2.178  15.590 -1.1377 -0.2122 -1.7596
 1203TIP3    H225025   6.721   2.255  15.617 -0.3840 -2.2460  0.9051
 1204TIP3   OH225026   6.569   4.293  15.605  0.0130 -0.4529 -0.1657
 1204TIP3    H125027   6.627   4.273  15.531 -2.2821 -1.7345 -1.7723
 1204TIP3    H225028   6.599   4.234  15.675  1.0328 -0.6219 -0.7154
 1205TIP3   OH225029   4.029   4.335   3.914  0.1537 -0.3013 -0.1900
 1205TIP3    H125030   4.087   4.298   3.980 -0.8197 -0.8562  0.3864
 1205TIP3    H225031   4.002   4.259   3.861  0.5146  0.0593 -0.9171
 1206TIP3   OH225032   2.262   4.103  13.965  0.8905 -0.1659 -0.1460
 1206TIP3    H125033   2.226   4.016  13.949  0.1150  0.4016 -1.6860
 1206TIP3    H225034   2.336   4.110  13.904  1.2752  0.0745  0.3395
 1207TIP3   OH225035   4.311   0.614   3.004  0.6743 -0.4965 -0.1789
 1207TIP3    H125036   4.255   0.620   2.926  2.0274 -1.9964 -1.3270
 1207TIP3    H225037   4.399   0.636   2.973  1.4136 -2.0284  0.6876
 1208TIP3   OH225038   4.058   4.288  11.801  0.1520  0.3583 -0.2668
 1208TIP3    H125039   4.089   4.226  11.735  1.0590 -0.4668  0.9012
 1208TIP3    H225040   3.962   4.279  11.799  0.2092 -0.1976 -0.9482
 1209TIP3   OH225041   0.016   3.943   6.066  0.4108 -0.3359  0.0287
 1209TIP3    H125042   0.081   3.963   6.133  1.0865  0.2877 -0.7803
 1209TIP3    H225043  -0.027   3.863   6.097  2.6917 -1.7493 -0.1652
 1210TIP3   OH225044   2.403   6.315  11.488 -0.0825 -0.3047  0.0681
 1210TIP3    H125045   2.455   6.352  11.560  0.4374 -1.6447  0.3997
 1210TIP3    H225046   2.327   6.373  11.482  1.6741  2.0396 -0.8065
 1211TIP3   OH225047   1.570   5.825  13.136 -0.2570  0.3085 -0.7594
 1211TIP3    H125048   1.581   5.829  13.041 -0.8108  0.2407 -0.8312
 1211TIP3    H225049   1.554   5.915  13.162  0.3627  0.3940 -0.6666
 1212TIP3   OH225050   4.942   5.080  15.931 -0.3826  0.1736 -0.3754
 1212TIP3    H125051   4.904   5.118  15.851 -0.4418 -0.5023 -0.6708
 1212TIP3    H225052   4.881   5.106  16.001 -0.6907  0.1917 -0.6504
 1213TIP3   OH225053   2.739   1.505  14.161 -0.2489 -0.0837 -0.2175
 1213TIP3    H125054   2.759   1.596  14.140  1.3682 -0.2645  0.4273
 1213TIP3    H225055   2.782   1.454  14.092  1.1152 -0.4510  0.8542
 1214TIP3   OH225056   1.483   4.828   2.032  0.1722  0.2451  0.6738
 1214TIP3    H125057   1.494   4.754   2.091 -1.1826 -1.3009 -0.8878
 1214TIP3    H225058   1.410   4.878   2.069  1.1461  0.8925  1.7808
 1215TIP3   OH225059   2.556   6.399   0.398  0.5052 -0.6030 -0.0711
 1215TIP3    H125060   2.522   6.401   0.309  0.9261 -0.7561 -0.2395
 1215TIP3    H225061   2.520   6.477   0.440  1.0192 -0.0539 -0.6457
 1216TIP3   OH225062   6.001   0.071   5.520  0.7732 -0.1213  0.0035
 1216TIP3    H125063   6.070   0.113   5.571  0.1116  0.1095  0.7191
 1216TIP3    H225064   6.014  -0.023   5.534  0.5594 -0.0595  0.6524
 1217TIP3   OH225065   1.180   6.151   1.532 -0.3615  0.3092 -0.7642
 1217TIP3    H125066   1.249   6.184   1.589 -1.0715  1.6162 -0.6243
 1217TIP3    H225067   1.127   6.228   1.511 -2.2239 -0.7501 -0.2441
 1218TIP3   OH225068   5.690   1.502   3.971 -0.0488 -0.3274  0.0893
 1218TIP3    H125069   5.668   1.408   3.975 -0.1136 -0.4120 -1.5659
 1218TIP3    H225070   5.734   1.520   4.054  0.6384 -2.0030  0.1285
 1219TIP3   OH225071   1.054   3.528   4.744  0.8505  0.1594 -0.2593
 1219TIP3    H125072   1.108   3.496   4.672  0.8358  0.5462 -0.4484
 1219TIP3    H225073   1.110   3.590   4.791  0.3810  1.0310 -0.8213
 1220TIP3   OH225074   5.342   5.430   5.235 -0.3945  0.3868 -0.1528
 1220TIP3    H125075   5.274   5.442   5.301 -0.5450 -1.4436  0.0824
 1220TIP3    H225076   5.384   5.516   5.227 -1.3592  1.0153  1.2222
 1221TIP3   OH225077   0.554   4.171  15.083 -0.1725  0.2802 -0.3274
 1221TIP3    H125078   0.623   4.144  15.144 -0.5371  0.6402  0.2503
 1221TIP3    H225079   0.584   4.256  15.050  0.6572 -0.4984 -1.6508
 1222TIP3   OH225080   2.107   1.427   1.096 -0.1440  0.4617  0.5437
 1222TIP3    H125081   2.178   1.457   1.153 -1.5853  2.1376  1.5505
 1222TIP3    H225082   2.027   1.463   1.135 -1.3627  0.3885 -1.6958
 1223TIP3   OH225083   3.182   1.522  14.911 -0.0781  0.2877  0.4903
 1223TIP3    H125084   3.193   1.428  14.898  1.2517  0.5709 -0.6012
 1223TIP3    H225085   3.127   1.550  14.838  1.2268  0.6656 -0.3796
 1224TIP3   OH225086   1.143   3.032  16.169  0.0653  0.4778 -0.1528
 1224TIP3    H125087   1.220   3.052  16.221 -0.6012  3.4271 -0.1381
 1224TIP3    H225088   1.130   3.109  16.114 -2.7257  0.0083 -0.3221
 1225TIP3   OH225089   0.030   0.977   0.248 -0.0937  0.2851  0.0594
 1225TIP3    H125090   0.040   1.016   0.161 -0.1661 -0.9977 -0.5499
 1225TIP3    H225091  -0.064   0.981   0.265  0.1057  2.1667  0.8853
 1226TIP3   OH225092   2.218   6.223  14.326 -0.7549  0.3128  0.1744
 1226TIP3    H125093   2.244   6.293  14.386 -0.5702 -0.0568  0.5313
 1226TIP3    H225094   2.238   6.258  14.239 -0.1063  0.4795  0.3822
 1227TIP3   OH225095   5.237   2.439  17.024 -0.6933 -0.0094  0.0297
 1227TIP3    H125096   5.234   2.489  16.942 -0.7450  0.2900  0.2145
 1227TIP3    H225097   5.327   2.451  17.056 -0.5379 -0.4962 -0.2130
 1228TIP3   OH225098   0.276   3.781   1.711 -0.8287 -0.3014 -0.0214
 1228TIP3    H125099   0.293   3.688   1.695  0.3248 -0.0861 -0.1334
 1228TIP3    H225100   0.339   3.827   1.655 -0.4791  0.5299  1.0292
 1229TIP3   OH225101   0.629   6.202  11.856 -0.5149 -0.4346  0.9391
 1229TIP3    H125102   0.676   6.285  11.862 -2.0711  0.6118 -0.6182
 1229TIP3    H225103   0.587   6.204  11.770 -0.1655 -3.0914  0.6295
 1230TIP3   OH225104   6.119   4.648   4.163 -0.0646 -0.5543 -0.3971
 1230TIP3    H125105   6.193   4.693   4.123 -0.4451 -1.1051 -1.7549
 1230TIP3    H225106   6.042   4.691   4.128 -0.4261 -1.8146 -1.2264
 1231TIP3   OH225107   2.983   4.752  15.854 -0.8121 -0.5883 -0.2271
 1231TIP3    H125108   3.006   4.808  15.780 -0.5463  0.4677  0.6353
 1231TIP3    H225109   3.061   4.699  15.870 -1.0251 -1.1452 -0.9728
 1232TIP3   OH225110   2.943   5.320  14.230  0.1584  0.4944 -0.1699
 1232TIP3    H125111   2.921   5.413  14.227  1.4806  0.8121 -0.5114
 1232TIP3    H225112   3.038   5.318  14.222  0.1565 -0.8846  0.0225
 1233TIP3   OH225113   1.591   4.269  14.044  0.8935 -0.3193  0.4575
 1233TIP3    H125114   1.611   4.175  14.047  0.6571 -0.4280 -0.7814
 1233TIP3    H225115   1.496   4.274  14.043  0.8901 -0.0140  1.4134
 1234TIP3   OH225116   3.052   2.138  13.664  0.3511 -0.1674  0.3083
 1234TIP3    H125117   3.133   2.173  13.703  0.7530  0.6825 -1.2041
 1234TIP3    H225118   3.083   2.086  13.590 -0.5304  1.4181 -1.2204
 1235TIP3   OH225119   4.130   1.312  14.996  0.4541 -0.0112  0.1956
 1235TIP3    H125120   4.042   1.273  14.995  0.8996 -1.0695  0.3177
 1235TIP3    H225121   4.151   1.320  15.089  0.5515  0.0824  0.1651
 1236TIP3   OH225122   5.062   6.627   4.794  0.1712 -0.1799 -0.2536
 1236TIP3    H125123   5.071   6.610   4.700 -2.5953  0.2907 -0.6667
 1236TIP3    H225124   5.131   6.690   4.813  0.2363  0.3988 -2.1741
 1237TIP3   OH225125   1.502   1.071   5.437 -0.2111 -0.2892  0.3482
 1237TIP3    H125126   1.554   0.993   5.454 -1.9884 -1.3344  1.2258
 1237TIP3    H225127   1.558   1.126   5.382  1.9939 -1.1093  1.6812
 1238TIP3   OH225128   1.949   1.398  15.969  0.0928 -0.1452  0.3267
 1238TIP3    H125129   1.916   1.446  16.045 -0.2629 -1.1907  0.8548
 1238TIP3    H225130   1.947   1.461  15.897 -0.0306  0.7177  1.0786
 1239TIP3   OH225131   3.232   5.139   3.909  0.4828  0.1289 -0.3813
 1239TIP3    H125132   3.249   5.220   3.859  0.9036 -0.7222 -1.6640
 1239TIP3    H225133   3.289   5.074   3.868  0.4707 -0.7274  0.9222
 1240TIP3   OH225134   0.090   3.515   1.109 -0.5964  0.6425 -0.6251
 1240TIP3    H125135   0.092   3.593   1.164  2.0427  0.4270 -0.2970
 1240TIP3    H225136   0.129   3.446   1.163 -0.1160 -0.1384 -1.9191
 1241TIP3   OH225137   0.905   4.848   4.935 -0.2782  0.4328  0.0706
 1241TIP3    H125138   0.892   4.768   4.986 -1.8452  0.6667  0.0872
 1241TIP3    H225139   0.922   4.916   5.001 -0.7494  0.4452  0.1812
 1242TIP3   OH225140   0.509   3.140  13.728  0.1692  0.4990  0.2487
 1242TIP3    H125141   0.568   3.145  13.803  1.0631 -1.3693 -0.2644
 1242TIP3    H225142   0.565   3.156  13.652 -0.1279 -0.4068 -0.1832
 1243TIP3   OH225143   6.564   0.201   4.620 -0.0831 -0.4075 -0.2317
 1243TIP3    H125144   6.525   0.229   4.702 -0.8318  0.4556 -0.8589
 1243TIP3    H225145   6.641   0.151   4.646  0.9339  1.6415  1.0036
 1244TIP3   OH225146   3.269   3.438  11.299 -0.0833 -0.2722 -0.1951
 1244TIP3    H125147   3.325   3.468  11.370  1.3965 -0.1566 -1.3652
 1244TIP3    H225148   3.192   3.494  11.303  0.4991  0.4881  0.6108
 1245TIP3   OH225149   1.304   1.227  12.747 -0.8138 -0.3028  0.4186
 1245TIP3    H125150   1.351   1.226  12.830 -0.4481 -0.5870  0.2107
 1245TIP3    H225151   1.322   1.141  12.708  0.9613  0.6409 -1.0267
 1246TIP3   OH225152   6.098   2.703  11.631  0.1930 -0.0197 -0.2975
 1246TIP3    H125153   6.162   2.768  11.603  0.3413  0.2462  0.6243
 1246TIP3    H225154   6.026   2.755  11.667  0.0135 -0.3509 -0.1778
 1247TIP3   OH225155   4.961   3.861   2.812  0.2455 -0.5812  0.3868
 1247TIP3    H125156   4.951   3.945   2.858 -0.2518 -0.6504  0.4127
 1247TIP3    H225157   4.910   3.799   2.863  1.4728 -1.1484  0.9713
 1248TIP3   OH225158   2.835   3.758   1.253 -0.4263  1.2023 -0.1015
 1248TIP3    H125159   2.838   3.704   1.173  0.4661  1.2659 -0.1185
 1248TIP3    H225160   2.754   3.809   1.244 -1.1278  0.1105 -0.2399
 1249TIP3   OH225161   6.736   3.352   2.262 -1.1978 -0.7699 -0.0331
 1249TIP3    H125162   6.669   3.419   2.274  0.7758  1.3335 -0.1632
 1249TIP3    H225163   6.760   3.326   2.351 -1.1003 -0.3750  0.0579
 1250TIP3   OH225164   5.976   6.330  13.802 -0.3189  0.0990 -0.0023
 1250TIP3    H125165   5.949   6.422  13.798 -0.6879  0.1514  2.2583
 1250TIP3    H225166   6.064   6.329  13.764 -1.0462  1.0029 -1.8579
 1251TIP3   OH225167   5.383   3.246   4.839 -0.2936  0.3040  0.3650
 1251TIP3    H125168   5.340   3.280   4.918  0.6216  0.9411  0.6090
 1251TIP3    H225169   5.466   3.209   4.871 -0.1560  0.0855 -0.2271
 1252TIP3   OH225170   3.198   1.450  11.080 -0.4408 -0.0067  0.5080
 1252TIP3    H125171   3.156   1.473  10.997  0.0219  2.0262  0.7862
 1252TIP3    H225172   3.282   1.412  11.054  0.7346  2.7276 -0.0196
 1253TIP3   OH225173   5.432   0.909  13.196  0.2551  0.4272  0.0593
 1253TIP3    H125174   5.357   0.881  13.248  0.8058  1.0011  1.1992
 1253TIP3    H225175   5.507   0.868  13.238  0.5344 -1.0342 -1.7056
 1254TIP3   OH225176   2.192   0.580   2.592 -0.2024 -0.1226 -0.4097
 1254TIP3    H125177   2.231   0.639   2.527 -1.7244  0.9582 -0.4178
 1254TIP3    H225178   2.206   0.624   2.675 -1.7106  0.5231 -0.4559
 1255TIP3   OH225179   1.386   4.337  12.060 -0.2280  0.6489  0.0421
 1255TIP3    H125180   1.439   4.377  11.991  0.4377 -0.0097  0.1684
 1255TIP3    H225181   1.431   4.358  12.141 -0.7930  1.0713  0.2568
 1256TIP3   OH225182   2.555   1.576   4.184  0.2948  0.1774 -0.2334
 1256TIP3    H125183   2.626   1.558   4.123  1.8687  0.4089  1.4470
 1256TIP3    H225184   2.558   1.670   4.197 -0.3576  0.1935 -0.1721
 1257TIP3   OH225185   5.212   5.081  14.889 -0.0638 -0.0949 -0.2549
 1257TIP3    H125186   5.270   5.060  14.962 -0.7703 -0.9178  0.0778
 1257TIP3    H225187   5.247   5.031  14.816 -0.4717 -0.7587 -0.0008
 1258TIP3   OH225188   6.057   5.848   1.291  0.4364  0.4877 -0.6805
 1258TIP3    H125189   6.131   5.804   1.249  0.6103 -0.7181  0.8071
 1258TIP3    H225190   5.983   5.789   1.276  0.1004  0.9486 -0.8477
 1259TIP3   OH225191   6.521   6.252  16.722 -0.3701  0.1878 -0.4982
 1259TIP3    H125192   6.606   6.244  16.765 -0.0794  0.3121 -1.0467
 1259TIP3    H225193   6.483   6.332  16.758 -0.2318  0.1650 -0.3021
 1260TIP3   OH225194   5.731   6.409   4.548  0.1657 -0.2816 -0.6230
 1260TIP3    H125195   5.653   6.355   4.536  1.9980 -3.0138 -1.1440
 1260TIP3    H225196   5.789   6.357   4.604  1.7399  1.5187 -0.4423
 1261TIP3   OH225197   1.309   2.529  13.087 -0.2112 -0.3237 -0.3912
 1261TIP3    H125198   1.381   2.537  13.024  0.3992 -0.1619  0.3164
 1261TIP3    H225199   1.239   2.584  13.050  0.0278 -0.4738 -1.0773
 1262TIP3   OH225200   2.628   4.474   4.309  0.2267  0.3589  0.4500
 1262TIP3    H125201   2.614   4.538   4.239  0.6807  0.7378  0.6890
 1262TIP3    H225202   2.547   4.475   4.359 -0.1398  0.0028 -0.1345
 1263TIP3   OH225203   6.532   1.717   3.552  0.0344 -0.2196 -0.0078
 1263TIP3    H125204   6.468   1.647   3.561 -0.0983 -0.1773 -0.5664
 1263TIP3    H225205   6.611   1.683   3.594  0.2801 -1.1146 -1.1249
 1264TIP3   OH225206   4.456   3.610  14.635  0.4160  0.8359  0.4894
 1264TIP3    H125207   4.465   3.515  14.637 -0.8946  0.4912 -3.0935
 1264TIP3    H225208   4.396   3.630  14.707  0.2739 -1.0962  0.9583
 1265TIP3   OH225209   4.046   6.428   0.073 -0.6439 -0.2075 -0.2320
 1265TIP3    H125210   4.005   6.499   0.124 -1.0705 -0.3017 -0.4383
 1265TIP3    H225211   4.087   6.372   0.139 -2.0054 -0.8536  0.0985
 1266TIP3   OH225212   6.274   3.723   5.770  0.0941 -0.0404  0.3893
 1266TIP3    H125213   6.321   3.804   5.790 -0.4605  0.6145 -0.9128
 1266TIP3    H225214   6.340   3.655   5.781  0.6965  0.6164  1.0101
 1267TIP3   OH225215   2.454   0.274   0.334  0.9577 -0.2576  0.4789
 1267TIP3    H125216   2.377   0.296   0.281  0.3335 -2.9720  0.1094
 1267TIP3    H225217   2.423   0.280   0.424  1.2342  1.6684  0.4784
 1268TIP3   OH225218   5.599   6.576   2.579 -0.1650  0.0428 -0.3070
 1268TIP3    H125219   5.664   6.644   2.560  1.0926 -1.3834 -1.4311
 1268TIP3    H225220   5.647   6.494   2.567 -2.0120 -1.0698 -0.4516
 1269TIP3   OH225221   1.939   4.211   2.256  0.5340  0.2834  0.0993
 1269TIP3    H125222   1.904   4.260   2.181 -1.1478  0.3178  0.8626
 1269TIP3    H225223   2.033   4.231   2.256 -0.0452  3.6525  0.4331
 1270TIP3   OH225224   5.734   4.083  14.188  0.7663  0.1965 -0.2855
 1270TIP3    H125225   5.773   4.170  14.196  0.0765  0.4700  0.1779
 1270TIP3    H225226   5.808   4.026  14.167  0.9682  1.1787 -2.6269
 1271TIP3   OH225227   4.324   0.984   5.852 -0.0026  0.4654 -0.0122
 1271TIP3    H125228   4.279   1.018   5.930 -1.0308 -1.4951  0.3292
 1271TIP3    H225229   4.402   0.940   5.887  0.8554  1.6756 -0.3588
 1272TIP3   OH225230   3.164   5.004   1.603 -0.2083  0.4847  0.1361
 1272TIP3    H125231   3.099   4.946   1.562 -0.6692  1.4575 -0.5519
 1272TIP3    H225232   3.248   4.960   1.587 -0.7106 -1.0867  1.5470
 1273TIP3   OH225233   0.922   1.359   5.467 -0.3097 -0.3311  0.2651
 1273TIP3    H125234   0.996   1.365   5.406 -2.5275  2.1013 -2.4762
 1273TIP3    H225235   0.882   1.274   5.448  0.0304 -0.3470 -0.4132
 1274TIP3   OH225236   0.603   4.338   5.689  0.1071 -0.6571 -0.9041
 1274TIP3    H125237   0.660   4.279   5.738  0.5767 -0.2201 -0.9129
 1274TIP3    H225238   0.662   4.383   5.628 -0.2011 -0.0441 -0.7613
 1275TIP3   OH225239   3.515   6.042  14.622  0.4157 -0.2955  0.2126
 1275TIP3    H125240   3.542   6.062  14.533 -1.1430  0.0172 -0.2202
 1275TIP3    H225241   3.457   5.967  14.613 -1.8990  1.3418  0.5921
 1276TIP3   OH225242   4.048   2.340  10.852  0.1787 -0.0143 -0.5383
 1276TIP3    H125243   4.039   2.434  10.868 -1.4673 -0.2527  0.0811
 1276TIP3    H225244   4.143   2.327  10.846  0.4168  1.8906 -2.0270
 1277TIP3   OH225245   6.422   2.525  14.596 -0.0961  0.3251 -0.0591
 1277TIP3    H125246   6.502   2.573  14.619  0.6159 -0.4341 -0.8251
 1277TIP3    H225247   6.367   2.589  14.552 -0.8049  1.3796  2.2510
 1278TIP3   OH225248   4.679   0.979   4.490  0.0659  0.7768  0.0648
 1278TIP3    H125249   4.700   1.041   4.420  0.5657  0.7191  0.1583
 1278TIP3    H225250   4.608   1.021   4.539  1.3167  1.9126  0.9548
 1279TIP3   OH225251   4.489   3.883  16.334  0.4598  0.0395  0.3051
 1279TIP3    H125252   4.409   3.843  16.370  0.4543 -0.2396 -0.0118
 1279TIP3    H225253   4.472   3.977  16.335  0.6830  0.0816  1.5851
 1280TIP3   OH225254   3.959   1.191  10.749  0.0681 -0.2550 -0.6358
 1280TIP3    H125255   4.024   1.243  10.797 -1.8398 -0.7880  2.8968
 1280TIP3    H225256   4.009   1.147  10.680  3.2542  0.1906  1.1971
 1281TIP3   OH225257   0.619   0.175   1.999 -0.1867  0.2759  0.5087
 1281TIP3    H125258   0.699   0.216   1.966 -0.3394  1.0800  1.1153
 1281TIP3    H225259   0.639   0.154   2.091 -0.0255 -1.2520  0.1531
 1282TIP3   OH225260   5.619   6.575   4.017 -0.0389  0.1967  0.8070
 1282TIP3    H125261   5.615   6.670   4.028 -0.8872  0.0444  2.1647
 1282TIP3    H225262   5.614   6.561   3.923  2.2253  1.5570  0.4254
 1283TIP3   OH225263   2.479   3.525  11.708 -0.1121 -0.1579  0.4305
 1283TIP3    H125264   2.410   3.471  11.746 -1.0416 -0.6655 -1.8077
 1283TIP3    H225265   2.446   3.615  11.716 -1.5851 -0.4568 -1.4934
 1284TIP3   OH225266   5.131   4.547   0.021 -0.7281 -0.3640 -0.3165
 1284TIP3    H125267   5.206   4.571  -0.033  0.7996 -2.8270  0.5323
 1284TIP3    H225268   5.095   4.631   0.051  1.2967  0.9209 -1.2623
 1285TIP3   OH225269   5.289   4.542  16.399  0.1211 -0.0588 -0.4110
 1285TIP3    H125270   5.300   4.549  16.494 -1.3288  0.7963 -0.2732
 1285TIP3    H225271   5.354   4.478  16.372  0.8036 -0.0497  1.1150
 1286TIP3   OH225272   0.395   1.874   1.604 -0.0347  0.2361 -0.2637
 1286TIP3    H125273   0.424   1.834   1.686 -1.3574  2.7368  1.5898
 1286TIP3    H225274   0.459   1.942   1.587 -1.4540  1.8817  0.5993
 1287TIP3   OH225275   2.980   4.767   2.544 -0.5432  0.2184  0.4622
 1287TIP3    H125276   3.074   4.775   2.560 -0.6244  0.5136  0.7998
 1287TIP3    H225277   2.942   4.752   2.630 -0.7043 -1.0101  0.2064
 1288TIP3   OH225278   3.917   2.376   2.146 -0.4113 -0.1878 -0.1899
 1288TIP3    H125279   3.972   2.409   2.074 -0.0490  0.8981  0.5555
 1288TIP3    H225280   3.966   2.303   2.183 -0.7462 -0.9597 -1.2293
 1289TIP3   OH225281   4.688   0.833   4.787 -0.5720  0.1136  0.2641
 1289TIP3    H125282   4.725   0.801   4.870 -0.1214  1.0681  0.4494
 1289TIP3    H225283   4.597   0.854   4.808 -0.4119  0.5161  0.5639
 1290TIP3   OH225284   2.294   5.588  11.965  0.0553 -0.3308  0.1871
 1290TIP3    H125285   2.270   5.535  11.889 -3.3388 -0.9691  1.5214
 1290TIP3    H225286   2.292   5.526  12.038  2.2168  0.4693  1.0032
 1291TIP3   OH225287   2.742   1.067  14.276  0.0901 -0.3155 -0.0090
 1291TIP3    H125288   2.655   1.064  14.316  0.1825 -1.6762  0.1429
 1291TIP3    H225289   2.795   1.008  14.330  1.6975  2.0632  1.2107
 1292TIP3   OH225290   5.432   1.910   4.443 -0.0297  0.1446 -0.3085
 1292TIP3    H125291   5.399   2.000   4.454 -0.3579  0.0662 -0.6536
 1292TIP3    H225292   5.526   1.918   4.461 -0.1136  0.4947  0.0033
 1293TIP3   OH225293   6.602   6.581   4.627  0.7574  0.1550 -0.0774
 1293TIP3    H125294   6.570   6.570   4.716  0.3690 -0.3247 -0.2706
 1293TIP3    H225295   6.682   6.528   4.623  0.2903 -0.5564 -0.2621
 1294TIP3   OH225296   3.641   3.048   5.398  0.1050  0.1720  0.1951
 1294TIP3    H125297   3.676   3.028   5.485  0.2263 -2.2712 -0.3300
 1294TIP3    H225298   3.578   3.118   5.413 -0.1200 -0.4102  2.3179
 1295TIP3   OH225299   6.382   6.007  15.727 -0.0486 -0.1390 -0.0583
 1295TIP3    H125300   6.320   6.076  15.751 -1.0500 -1.8248  2.6057
 1295TIP3    H225301   6.332   5.926  15.736  1.3390 -1.3286 -2.2129
 1296TIP3   OH225302   4.726   2.204  16.482  0.0674  0.8080  0.5697
 1296TIP3    H125303   4.663   2.179  16.550 -0.2546  2.8734  1.1136
 1296TIP3    H225304   4.791   2.257  16.529  0.2968  1.5610 -0.5690
 1297TIP3   OH225305   5.593   2.048   5.309  0.2372 -0.2061  0.0341
 1297TIP3    H125306   5.578   2.140   5.288 -1.2597 -0.4080  0.0890
 1297TIP3    H225307   5.642   2.014   5.234 -0.2345  0.3648 -0.5407
 1298TIP3   OH225308   6.639   5.629  13.481  0.2414  0.1914 -0.3181
 1298TIP3    H125309   6.638   5.589  13.394  2.2004  0.1297 -0.3464
 1298TIP3    H225310   6.728   5.661  13.492 -0.5766  2.2698  0.7760
 1299TIP3   OH225311   4.016   4.600  10.600 -0.0160  0.2514  0.5565
 1299TIP3    H125312   3.959   4.675  10.582 -2.0172 -1.2803  0.0194
 1299TIP3    H225313   3.955   4.531  10.630  1.5347 -1.5382 -0.1966
 1300TIP3   OH225314   5.085   2.307  14.944 -0.3632  0.3322  0.5489
 1300TIP3    H125315   5.032   2.345  15.014 -0.9911 -0.7760  0.7029
 1300TIP3    H225316   5.044   2.339  14.864  1.2530  2.8291  0.6200
 1301TIP3   OH225317   5.341   5.996  11.912 -0.7184 -0.0044  0.7774
 1301TIP3    H125318   5.309   6.044  11.988 -0.6754  0.5185  0.4673
 1301TIP3    H225319   5.272   5.932  11.893 -0.7758 -0.0676  1.1868
 1302TIP3   OH225320   3.963   5.299   0.440 -0.5613  0.2016  0.2352
 1302TIP3    H125321   3.990   5.379   0.394  1.0204 -0.5199 -0.1812
 1302TIP3    H225322   3.956   5.233   0.371 -0.3000 -0.3773  0.7532
 1303TIP3   OH225323   3.625   3.822  13.020  0.6689 -0.3547 -0.2235
 1303TIP3    H125324   3.627   3.825  12.924  2.1995 -0.2640 -0.2119
 1303TIP3    H225325   3.663   3.905  13.048  0.9871 -0.7102  0.4374
 1304TIP3   OH225326   0.853   0.293   1.854 -0.6724  0.3992  0.1600
 1304TIP3    H125327   0.835   0.380   1.817 -0.0799  1.0554  1.3526
 1304TIP3    H225328   0.929   0.261   1.805 -1.3654  0.1952 -0.8160
 1305TIP3   OH225329   4.968   1.168   0.773  0.2878  0.1782  0.5583
 1305TIP3    H125330   5.032   1.232   0.742  1.9043 -1.3908  0.4873
 1305TIP3    H225331   4.888   1.191   0.726  0.9223  1.8534  0.2025
 1306TIP3   OH225332   5.656   0.110  16.607  0.2343 -0.1707  0.0852
 1306TIP3    H125333   5.619   0.038  16.657  1.7441 -1.5489 -0.6690
 1306TIP3    H225334   5.706   0.161  16.671  1.2216 -1.2681  0.2311
 1307TIP3   OH225335   0.421   4.038  12.368 -0.2708  0.2658 -0.4201
 1307TIP3    H125336   0.421   4.133  12.356 -0.0370  0.2330 -0.6845
 1307TIP3    H225337   0.472   4.024  12.447  0.4939  0.2994 -0.8971
 1308TIP3   OH225338   4.313   4.640   2.781  0.1739  0.5521 -0.0779
 1308TIP3    H125339   4.245   4.707   2.778  0.0425  0.5997  2.2281
 1308TIP3    H225340   4.390   4.681   2.741  0.0270  1.9912  1.0696
 1309TIP3   OH225341   4.018   3.914   2.077  0.0213  0.1266  0.1854
 1309TIP3    H125342   3.965   3.835   2.088  0.4958  0.0187  2.1023
 1309TIP3    H225343   3.971   3.981   2.127  0.9323  0.3945  0.7060
 1310TIP3   OH225344   6.402   4.329  12.294  0.1379  0.4266  0.1912
 1310TIP3    H125345   6.323   4.343  12.347 -0.7462 -2.8406 -0.0242
 1310TIP3    H225346   6.370   4.330  12.203  0.5255  0.1835  0.0493
 1311TIP3   OH225347   0.743   4.336  15.555 -0.1647 -0.3758 -0.3774
 1311TIP3    H125348   0.812   4.302  15.611 -0.5523  0.2582  0.5087
 1311TIP3    H225349   0.790   4.381  15.484  0.3306 -0.3882 -0.0600
 1312TIP3   OH225350   2.823   6.746   6.551  0.2335  0.8999  0.8707
 1312TIP3    H125351   2.777   6.663   6.540 -0.2126  0.9547  2.1235
 1312TIP3    H225352   2.910   6.721   6.581  1.1370  0.7914 -1.5958
 1313TIP3   OH225353   5.112   4.707   1.535  0.6807 -0.4593  0.0028
 1313TIP3    H125354   5.049   4.771   1.502  0.5921 -0.7192 -0.3326
 1313TIP3    H225355   5.191   4.758   1.551  0.7761 -0.3532 -0.7539
 1314TIP3   OH225356   1.675   2.544   6.585  0.2128 -0.0237  0.4913
 1314TIP3    H125357   1.720   2.624   6.614  0.1176  0.3130 -0.2831
 1314TIP3    H225358   1.735   2.473   6.609  0.2848  0.2679  1.2121
 1315TIP3   OH225359   3.921   3.294   5.316 -0.1291 -0.3617 -0.1214
 1315TIP3    H125360   3.926   3.258   5.228  0.0869  0.0900 -0.2984
 1315TIP3    H225361   4.007   3.274   5.355 -0.2873 -0.7180  0.0530
 1316TIP3   OH225362   4.200   1.225   2.840  0.6164  0.2614  0.1583
 1316TIP3    H125363   4.128   1.180   2.884  1.4972  0.1169  1.4850
 1316TIP3    H225364   4.205   1.182   2.754 -1.7239  1.1851 -0.5186
 1317TIP3   OH225365   6.592   0.097   5.513 -0.9876  0.5621 -0.3227
 1317TIP3    H125366   6.640   0.087   5.595 -1.1572 -2.8050 -0.4655
 1317TIP3    H225367   6.650   0.148   5.457  1.0724 -0.7021  0.5447
 1318TIP3   OH225368   5.084   5.246   2.642  0.1387  0.2852  0.1010
 1318TIP3    H125369   5.099   5.231   2.735 -0.0737 -3.6010 -0.3164
 1318TIP3    H225370   4.990   5.260   2.634  0.2259  1.1301  0.4914
 1319TIP3   OH225371   1.027   5.209  12.241 -0.0227  0.6946  0.2380
 1319TIP3    H125372   0.993   5.164  12.164 -0.0379  0.2079  0.5215
 1319TIP3    H225373   1.117   5.230  12.219  0.7289 -1.4914  0.9031
 1320TIP3   OH225374   3.797   5.972   5.913  0.2002  0.1843  0.1468
 1320TIP3    H125375   3.747   6.004   5.987  0.2436  0.2974  0.1270
 1320TIP3    H225376   3.774   5.879   5.907  0.4345  0.1049  0.4882
 1321TIP3   OH225377   2.340   1.895  14.994 -0.4243  0.2200 -0.5414
 1321TIP3    H125378   2.386   1.916  15.075 -0.4577  1.6138 -0.8529
 1321TIP3    H225379   2.337   1.799  14.992 -0.2735  0.1568  1.0069
 1322TIP3   OH225380   0.941   5.601   5.720  0.1643  0.0255  0.1138
 1322TIP3    H125381   0.967   5.643   5.638 -0.6906 -0.8848 -0.6428
 1322TIP3    H225382   1.024   5.581   5.764  0.6346  0.2579 -0.6521
 1323TIP3   OH225383   4.079   3.828  14.952  0.0961  0.1282 -0.1267
 1323TIP3    H125384   4.137   3.898  14.983 -0.8047  1.0492 -0.4684
 1323TIP3    H225385   4.063   3.775  15.029  2.0905 -0.6777 -0.2072
 1324TIP3   OH225386   0.989   2.297  14.879  0.0988  0.4751 -0.5240
 1324TIP3    H125387   0.894   2.298  14.893 -0.0349  0.4217 -1.3496
 1324TIP3    H225388   1.019   2.381  14.914 -0.3177  0.6781 -0.6430
 1325TIP3   OH225389   5.854   5.758   4.566 -0.1815  0.0748 -0.1874
 1325TIP3    H125390   5.897   5.843   4.557  2.6124 -0.8957  2.4447
 1325TIP3    H225391   5.809   5.764   4.651 -0.7643 -0.7565 -0.4323
 1326TIP3   OH225392   4.382   6.034  13.953  0.3508 -0.9421  0.5234
 1326TIP3    H125393   4.379   6.089  14.031 -0.6333  0.4427 -0.4459
 1326TIP3    H225394   4.475   6.009  13.945  0.9456  1.0174  0.7366
 1327TIP3   OH225395   2.620   0.999  12.144 -0.5672 -0.0681 -0.9270
 1327TIP3    H125396   2.655   0.917  12.108 -2.6641 -1.2665 -0.4156
 1327TIP3    H225397   2.696   1.057  12.150  1.9960 -3.3159  2.6603
 1328TIP3   OH225398   6.369   0.312  16.849 -0.5190 -0.6710 -0.1475
 1328TIP3    H125399   6.435   0.324  16.917  0.0288 -1.3497 -0.5480
 1328TIP3    H225400   6.362   0.399  16.808  0.0038 -0.5451  0.0152
 1329TIP3   OH225401   5.462   6.202   4.198 -0.3855  0.0979 -0.1700
 1329TIP3    H125402   5.468   6.295   4.177 -1.0354 -0.1361 -1.5265
 1329TIP3    H225403   5.509   6.158   4.127  1.4512 -0.5617  1.3775
 1330TIP3   OH225404   2.694   2.973   0.835 -0.3975  0.0757 -0.2536
 1330TIP3    H125405   2.725   3.024   0.761 -1.5959 -0.0740 -0.8770
 1330TIP3    H225406   2.692   2.883   0.803  2.5841 -0.5986  1.1102
 1331TIP3   OH225407   4.849   0.240   3.093  0.0632  0.4280  0.2613
 1331TIP3    H125408   4.899   0.310   3.050  1.9422 -0.7197  0.4539
 1331TIP3    H225409   4.849   0.264   3.185  0.3333  0.3906  0.2718
 1332TIP3   OH225410   0.024   6.242   6.173  0.7052  0.6689  0.0444
 1332TIP3    H125411   0.002   6.199   6.091  0.5411  2.0568 -0.6584
 1332TIP3    H225412  -0.051   6.224   6.230  0.2537  0.7465 -0.5187
 1333TIP3   OH225413   4.493   5.792  12.315  0.4276 -0.1802 -0.0922
 1333TIP3    H125414   4.509   5.706  12.276  1.2506 -0.2915  0.4660
 1333TIP3    H225415   4.580   5.823  12.341  0.4995  1.8513 -2.3695
 1334TIP3   OH225416   1.024   3.178   0.645  0.2275 -0.1697 -0.2918
 1334TIP3    H125417   0.985   3.252   0.598  1.1105 -0.1710 -1.0699
 1334TIP3    H225418   1.118   3.184   0.623  0.7251  0.0153  1.7351
 1335TIP3   OH225419   3.170   2.574  10.555 -0.2934 -0.4155  0.0025
 1335TIP3    H125420   3.150   2.505  10.491 -0.0367 -0.2409 -0.2673
 1335TIP3    H225421   3.154   2.533  10.640 -0.2129 -0.7866 -0.1596
 1336TIP3   OH225422   1.488   2.173  15.771 -0.0765  0.0019  0.2561
 1336TIP3    H125423   1.533   2.161  15.688 -0.0166  0.3726  0.2353
 1336TIP3    H225424   1.418   2.107  15.769 -1.5367  1.4775 -1.1105
 1337TIP3   OH225425   2.166   4.025  14.896 -0.1565  0.1108 -0.4291
 1337TIP3    H125426   2.105   3.958  14.928 -0.5801 -0.0801 -1.5956
 1337TIP3    H225427   2.203   4.064  14.975  0.3731 -1.7507  0.2816
 1338TIP3   OH225428   2.194   3.057  15.862  0.2939  0.4544 -0.8309
 1338TIP3    H125429   2.227   2.967  15.853  0.1186 -0.0000  2.0591
 1338TIP3    H225430   2.099   3.046  15.868  0.2003  0.9591 -1.2739
 1339TIP3   OH225431   1.459   3.867   1.687  0.2931  0.4929  0.2540
 1339TIP3    H125432   1.405   3.940   1.657 -2.3506 -1.4929 -0.1377
 1339TIP3    H225433   1.443   3.863   1.782  0.6724  0.6109  0.3232
 1340TIP3   OH225434   5.147   3.423   2.083 -0.0790  0.1028  0.3208
 1340TIP3    H125435   5.194   3.473   2.150 -0.9478  0.2866  0.8121
 1340TIP3    H225436   5.064   3.399   2.125 -1.0180  0.9658 -0.9676
 1341TIP3   OH225437   3.604   1.743   3.561 -0.2180  0.4465  0.7430
 1341TIP3    H125438   3.547   1.700   3.496 -1.4094  1.0368  1.3536
 1341TIP3    H225439   3.692   1.732   3.526 -0.9229  2.5623 -2.1386
 1342TIP3   OH225440   5.475   6.415   1.929  0.1274  0.0815 -0.3668
 1342TIP3    H125441   5.537   6.461   1.986  0.8852 -0.7852 -0.4619
 1342TIP3    H225442   5.530   6.376   1.861 -0.3561 -1.8064  0.2788
 1343TIP3   OH225443   1.237   5.368   4.438 -0.0010 -0.1474  0.6254
 1343TIP3    H125444   1.150   5.401   4.414 -0.4436 -0.9110  1.1693
 1343TIP3    H225445   1.297   5.436   4.407 -0.7286  0.0393 -0.4353
 1344TIP3   OH225446   4.850   3.568  11.286 -0.2359 -0.4626 -0.0487
 1344TIP3    H125447   4.802   3.576  11.203  0.0212  1.2636 -0.0566
 1344TIP3    H225448   4.817   3.487  11.324  1.3727 -2.7024 -2.9471
 1345TIP3   OH225449   2.335   6.333  12.810  0.0702  0.1149 -0.6709
 1345TIP3    H125450   2.352   6.254  12.758  0.4882  0.3711 -0.9374
 1345TIP3    H225451   2.272   6.305  12.876  0.1570 -0.4252 -0.8055
 1346TIP3   OH225452   2.576   0.970   1.893 -0.1651 -0.2139  0.2964
 1346TIP3    H125453   2.600   1.026   1.967  0.7088  1.1238 -0.9437
 1346TIP3    H225454   2.655   0.968   1.838 -0.1893 -2.6281  0.2402
 1347TIP3   OH225455   4.975   6.012   5.004 -0.5564 -0.7726 -0.0396
 1347TIP3    H125456   4.971   5.978   5.093 -2.7033  0.9037  0.6064
 1347TIP3    H225457   5.057   6.061   5.001 -1.0524  0.2689  1.5283
 1348TIP3   OH225458   0.945   4.210  13.983 -0.0679 -0.1589  0.4561
 1348TIP3    H125459   0.887   4.276  13.945  0.7787 -0.9147 -2.3967
 1348TIP3    H225460   1.020   4.206  13.923  2.1079 -0.5360  2.9934
 1349TIP3   OH225461   4.980   4.895  15.598  0.2420 -0.4310  0.3545
 1349TIP3    H125462   5.074   4.885  15.583  0.9488  2.5339  1.9381
 1349TIP3    H225463   4.956   4.974  15.550 -1.2032 -0.5412  0.8387
 1350TIP3   OH225464   4.587   6.653   3.721  0.7953  0.1856  0.5854
 1350TIP3    H125465   4.573   6.734   3.672  1.1603  0.1817  0.4659
 1350TIP3    H225466   4.681   6.653   3.739  0.8119 -0.2543  0.5086
 1351TIP3   OH225467   4.399   0.585   2.353  0.1955  0.7284  0.6446
 1351TIP3    H125468   4.392   0.673   2.318  1.0275 -0.0115 -1.5417
 1351TIP3    H225469   4.447   0.536   2.287  1.1897 -0.9940  2.5223
 1352TIP3   OH225470   3.395   5.189   0.778 -0.5613 -0.5256 -0.1216
 1352TIP3    H125471   3.339   5.122   0.739 -2.5909  1.5896 -1.0364
 1352TIP3    H225472   3.447   5.222   0.706  1.6307 -2.0775  0.6207
 1353TIP3   OH225473   4.363   4.730  13.871 -0.2219  0.9847  0.2721
 1353TIP3    H125474   4.270   4.751  13.861 -0.3840 -0.4095 -1.4686
 1353TIP3    H225475   4.404   4.764  13.792  0.3311 -0.5101 -0.1158
 1354TIP3   OH225476   3.683   3.569   5.649 -0.0046 -0.3294  0.4343
 1354TIP3    H125477   3.621   3.639   5.666 -0.0319  0.3612 -2.1027
 1354TIP3    H225478   3.637   3.489   5.675 -0.9531  0.3791  0.9860
 1355TIP3   OH225479   6.385   4.291   1.509 -0.3276  0.2787 -0.3990
 1355TIP3    H125480   6.341   4.333   1.583 -3.4019 -1.4808 -1.0695
 1355TIP3    H225481   6.417   4.208   1.544 -3.9232 -1.7235 -1.3280
 1356TIP3   OH225482   4.238   5.675   3.130 -0.1479  0.0141 -0.5953
 1356TIP3    H125483   4.232   5.620   3.208 -0.1547 -0.8553 -1.1898
 1356TIP3    H225484   4.307   5.634   3.078 -0.3424  0.4101 -1.1705
 1357TIP3   OH225485   1.154   1.085  15.072  0.3147  0.2709 -0.2851
 1357TIP3    H125486   1.072   1.044  15.101  0.0383 -0.0868 -1.4963
 1357TIP3    H225487   1.126   1.168  15.032  0.6405  0.5712  0.1061
 1358TIP3   OH225488   1.022   2.036   3.053  0.4495 -0.2402 -0.4974
 1358TIP3    H125489   1.085   1.979   3.009  1.5400  0.9014 -0.4825
 1358TIP3    H225490   1.074   2.112   3.080 -1.2079  1.4052 -1.7015
 1359TIP3   OH225491   3.935   3.257  13.492 -0.0900  0.3613  0.2693
 1359TIP3    H125492   4.005   3.198  13.463  0.7389  1.4372 -0.0172
 1359TIP3    H225493   3.864   3.200  13.519  0.7689 -0.7620  0.2080
 1360TIP3   OH225494   6.776   1.004  14.974 -0.2076  0.1014 -0.0390
 1360TIP3    H125495   6.710   1.073  14.959 -0.7077 -0.8331 -2.7173
 1360TIP3    H225496   6.822   1.032  15.053 -1.0631  2.9648 -0.4358
 1361TIP3   OH225497   1.932   0.137   4.222  0.1667  0.8756  1.4303
 1361TIP3    H125498   2.016   0.113   4.183 -0.0521  1.4473  0.5878
 1361TIP3    H225499   1.929   0.087   4.303  1.5925  1.3082  1.7855
 1362TIP3   OH225500   1.256   4.812   0.930  0.2224 -0.3318 -0.1809
 1362TIP3    H125501   1.285   4.900   0.906 -1.7414  0.7732  1.2006
 1362TIP3    H225502   1.236   4.770   0.847  0.3915  0.8320 -0.8317
 1363TIP3   OH225503   0.332   2.121  16.450  0.5550  0.1759 -0.0698
 1363TIP3    H125504   0.387   2.077  16.516 -1.0025 -0.5726  0.7738
 1363TIP3    H225505   0.304   2.202  16.492 -0.6110 -0.4011  0.2835
 1364TIP3   OH225506   2.530   2.012  15.957 -0.1591 -0.4154 -0.4642
 1364TIP3    H125507   2.592   1.990  16.027  2.0389  1.7831 -1.5692
 1364TIP3    H225508   2.538   1.940  15.895  0.0205 -0.9744  0.1912
 1365TIP3   OH225509   5.952   0.102   0.938  0.0396 -0.8629  0.0685
 1365TIP3    H125510   5.966   0.193   0.911  1.6187 -0.6343  1.5564
 1365TIP3    H225511   5.882   0.106   1.003 -1.4592 -1.0436 -1.4228
 1366TIP3   OH225512   1.193   1.969  16.093  0.2259  0.1514  0.7317
 1366TIP3    H125513   1.137   1.933  16.162  1.4193 -0.2087  1.5552
 1366TIP3    H225514   1.134   2.020  16.038 -0.5086  2.1760  3.1726
 1367TIP3   OH225515   2.397   4.189   2.629 -0.3449  0.3622  0.0554
 1367TIP3    H125516   2.314   4.151   2.601 -1.0547  1.4140  0.6470
 1367TIP3    H225517   2.396   4.181   2.724 -0.1950  1.1979  0.1323
 1368TIP3   OH225518   2.553   0.143   2.477  0.5340  0.3543 -0.5867
 1368TIP3    H125519   2.637   0.189   2.482  0.6968 -0.0070  0.0516
 1368TIP3    H225520   2.531   0.122   2.567 -0.3775  0.6725 -0.7149
 1369TIP3   OH225521   5.343   2.582  11.367 -0.2647  0.0972  0.0693
 1369TIP3    H125522   5.248   2.581  11.378 -0.3526  0.5523 -0.6014
 1369TIP3    H225523   5.360   2.658  11.313  0.3173 -0.9566 -1.2749
 1370TIP3   OH225524   5.214   4.401  16.833  0.2244 -0.3309 -0.3954
 1370TIP3    H125525   5.171   4.349  16.765 -0.0858 -2.0040  1.0081
 1370TIP3    H225526   5.302   4.363  16.839  0.9855  1.1809 -1.2487
 1371TIP3   OH225527   4.652   6.074  15.625 -0.7801 -0.2854 -0.1006
 1371TIP3    H125528   4.601   6.155  15.631 -0.9938 -0.3967 -0.3853
 1371TIP3    H225529   4.743   6.103  15.617 -0.7346 -0.0938  0.9407
 1372TIP3   OH225530   3.166   0.552  12.239 -0.4763  0.0640 -0.0338
 1372TIP3    H125531   3.220   0.629  12.256 -0.2331 -0.3215  1.0180
 1372TIP3    H225532   3.189   0.526  12.149  1.9329 -0.7088  0.7287
 1373TIP3   OH225533   0.700   2.322  14.670  0.2974  0.1828  0.0698
 1373TIP3    H125534   0.694   2.237  14.713  0.7155 -0.1621 -0.5261
 1373TIP3    H225535   0.671   2.385  14.736 -0.0002 -0.4188  0.5236
 1374TIP3   OH225536   6.262   5.387  11.937 -0.8960  0.0612  0.1074
 1374TIP3    H125537   6.327   5.452  11.910 -0.7964  0.9211  2.1640
 1374TIP3    H225538   6.311   5.306  11.947  0.0866  0.8126  2.1376
 1375TIP3   OH225539   1.060   5.958   6.391  0.1479  0.4571  0.0858
 1375TIP3    H125540   1.005   6.029   6.359  0.9911  0.0690 -2.4088
 1375TIP3    H225541   0.999   5.885   6.406 -0.1076 -0.0115 -2.7880
 1376TIP3   OH225542   5.572   0.813   0.385  0.2497  0.3976  0.3062
 1376TIP3    H125543   5.619   0.743   0.430  0.1723 -0.9985 -1.6370
 1376TIP3    H225544   5.586   0.890   0.439  2.4212 -0.5806  1.2486
 1377TIP3   OH225545   0.989   0.515  15.689 -0.0423 -0.4408 -0.3444
 1377TIP3    H125546   1.032   0.600  15.683  0.2922 -0.4393  1.4636
 1377TIP3    H225547   0.896   0.534  15.694  0.0405 -0.1602  0.1806
 1378TIP3   OH225548   5.634   0.967   3.864 -0.2026  0.7597 -0.0107
 1378TIP3    H125549   5.664   0.891   3.914 -0.5290  1.7366  1.7486
 1378TIP3    H225550   5.626   0.935   3.774  1.7544 -0.6983  0.2811
 1379TIP3   OH225551   0.404   3.686  12.786  0.1003 -0.3392 -0.0446
 1379TIP3    H125552   0.453   3.755  12.831  0.7309  1.6144 -3.3718
 1379TIP3    H225553   0.468   3.616  12.772  0.2106 -0.4541  0.9907
 1380TIP3   OH225554   1.489   5.336   1.913  0.4260 -0.3729 -0.3905
 1380TIP3    H125555   1.495   5.287   1.831  1.7014 -0.7790 -0.0898
 1380TIP3    H225556   1.581   5.353   1.937  0.0489  2.4250 -0.6243
 1381TIP3   OH225557   3.040   0.847  13.445 -0.5847  0.3108  0.3441
 1381TIP3    H125558   3.131   0.849  13.417 -0.7285 -0.9096 -0.2940
 1381TIP3    H225559   2.995   0.909  13.388 -0.3883 -0.1024 -0.2630
 1382TIP3   OH225560   4.829   1.598  12.392  0.1037  0.1508  0.5038
 1382TIP3    H125561   4.890   1.605  12.465 -0.1197 -1.2978  0.8641
 1382TIP3    H225562   4.852   1.671  12.334  0.8922  0.7617  1.5601
 1383TIP3   OH225563   4.140   4.365  16.913  0.0270  0.1420  0.0735
 1383TIP3    H125564   4.055   4.384  16.951 -0.1481  1.1874 -0.7738
 1383TIP3    H225565   4.196   4.438  16.941  0.0658  0.5834 -1.0613
 1384TIP3   OH225566   2.978   4.359  12.180  0.5234  0.2201  0.1300
 1384TIP3    H125567   2.978   4.355  12.084 -0.6917 -1.8679  0.1762
 1384TIP3    H225568   2.886   4.362  12.204  0.7915  3.1964  1.2510
 1385TIP3   OH225569   3.510   1.724   0.114 -0.5076 -0.2564 -0.3078
 1385TIP3    H125570   3.453   1.689   0.045 -0.1254  0.6790 -1.1201
 1385TIP3    H225571   3.521   1.817   0.092 -0.6276  0.1418  1.1987
 1386TIP3   OH225572   5.646   5.676  13.987  0.4976 -0.1782 -0.0065
 1386TIP3    H125573   5.646   5.634  13.900  1.7583 -0.4230  0.0985
 1386TIP3    H225574   5.646   5.603  14.049  1.2816 -0.0261  0.1831
 1387TIP3   OH225575   0.502   5.604  13.532 -0.3893  0.1093  0.1451
 1387TIP3    H125576   0.419   5.560  13.515 -0.8404  0.8702  0.3632
 1387TIP3    H225577   0.510   5.603  13.628 -0.4960  0.6601  0.1643
 1388TIP3   OH225578   3.206   1.077   6.511 -0.1326 -0.0719  0.3944
 1388TIP3    H125579   3.271   1.146   6.522 -0.2672  0.4080 -1.4161
 1388TIP3    H225580   3.255   1.001   6.481 -0.2602 -0.0027 -0.0090
 1389TIP3   OH225581   5.767   5.729  16.616  0.2188 -0.1217  0.3333
 1389TIP3    H125582   5.673   5.736  16.601  0.3457  0.9160 -0.0665
 1389TIP3    H225583   5.787   5.801  16.675  1.0007  0.6317 -0.8047
 1390TIP3   OH225584   5.661   0.637   1.248  0.4340 -0.7978 -0.2035
 1390TIP3    H125585   5.573   0.676   1.247  1.3543  1.9895  3.3641
 1390TIP3    H225586   5.716   0.700   1.202  1.1944 -0.1713  1.4835
 1391TIP3   OH225587   6.221   0.590   2.035  0.2823 -0.1398 -0.1227
 1391TIP3    H125588   6.155   0.594   1.967  0.5547 -1.9808 -0.5370
 1391TIP3    H225589   6.304   0.608   1.990  0.1510  2.1404  0.3896
 1392TIP3   OH225590   4.254   2.080   6.300  0.6275  0.6768  0.0641
 1392TIP3    H125591   4.180   2.046   6.350  1.7724 -0.1607  1.2503
 1392TIP3    H225592   4.312   2.005   6.286 -0.1904  0.5516 -3.7051
 1393TIP3   OH225593   0.900   2.086  10.490  0.3269  0.2060 -0.2846
 1393TIP3    H125594   0.836   2.156  10.484 -0.1621 -0.1312  0.6876
 1393TIP3    H225595   0.889   2.036  10.409  0.1290  0.7869 -0.6193
 1394TIP3   OH225596   6.446   4.554   2.598 -0.5442 -0.2265  0.6567
 1394TIP3    H125597   6.362   4.531   2.559 -1.0954 -0.1621  1.7891
 1394TIP3    H225598   6.444   4.649   2.607  0.0771 -0.1137 -0.2511
 1395TIP3   OH225599   1.925   1.575   4.956 -0.5987  0.4646 -0.7497
 1395TIP3    H125600   1.859   1.561   4.888 -2.1254 -0.9203  0.9122
 1395TIP3    H225601   2.007   1.543   4.917 -1.3722 -0.0165 -2.0336
 1396TIP3   OH225602   2.234   4.132  15.147 -0.0518 -0.1452 -0.4924
 1396TIP3    H125603   2.315   4.171  15.180  0.1159 -2.9133  3.0391
 1396TIP3    H225604   2.175   4.206  15.135  1.7164  1.6286  0.9204
 1397TIP3   OH225605   3.985   4.713  11.106  0.4427 -0.0457 -0.0415
 1397TIP3    H125606   4.045   4.786  11.087  0.4992 -0.0482  0.1266
 1397TIP3    H225607   3.909   4.730  11.051  0.2726  0.3750  0.3200
 1398TIP3   OH225608   6.570   0.448   4.907  0.3642  0.1325 -0.5524
 1398TIP3    H125609   6.498   0.395   4.873 -0.5390  1.5229 -0.8873
 1398TIP3    H225610   6.527   0.516   4.958  1.5393  0.1184  0.4888
 1399TIP3   OH225611   5.524   2.742  17.124  0.3454 -0.1874  0.0338
 1399TIP3    H125612   5.437   2.757  17.085 -1.0512 -0.7342  2.7063
 1399TIP3    H225613   5.567   2.827  17.118 -1.2228  0.6945  0.5362
 1400TIP3   OH225614   1.001   3.471   5.028 -0.0776  0.0180 -0.4920
 1400TIP3    H125615   1.011   3.379   5.052 -1.1144 -0.3692 -1.4775
 1400TIP3    H225616   1.018   3.473   4.934  0.4673  0.9332 -0.3860
 1401TIP3   OH225617   6.318   2.445  16.566 -0.1601  0.0801  0.1753
 1401TIP3    H125618   6.388   2.380  16.556 -0.3172 -0.2102  0.8508
 1401TIP3    H225619   6.358   2.517  16.614 -0.5150 -0.4507  1.3214
 1402TIP3   OH225620   3.934   1.167   5.399  0.0880 -0.2308  0.5190
 1402TIP3    H125621   3.934   1.231   5.329  2.1160 -1.0031 -0.2759
 1402TIP3    H225622   3.845   1.133   5.401 -0.2293  0.4215 -1.1121
 1403TIP3   OH225623   3.228   4.694  13.594  0.4721  0.2027 -0.2760
 1403TIP3    H125624   3.281   4.614  13.589 -0.6059 -0.8026  2.4975
 1403TIP3    H225625   3.252   4.733  13.678 -0.6746  1.5934 -0.5547
 1404TIP3   OH225626   5.399   6.686  11.370  0.0758  0.1843 -0.7298
 1404TIP3    H125627   5.414   6.688  11.276  0.5072 -0.5233 -0.6815
 1404TIP3    H225628   5.386   6.594  11.391 -2.3924  0.5159 -0.4485
 1405TIP3   OH225629   1.848   1.843  15.735  0.3820  0.0365  0.3625
 1405TIP3    H125630   1.894   1.889  15.666 -2.1559  1.4533 -0.5342
 1405TIP3    H225631   1.842   1.907  15.807  0.0449 -0.2059  0.5556
 1406TIP3   OH225632   2.311   1.623  11.672  0.2275  0.5186 -0.4680
 1406TIP3    H125633   2.294   1.716  11.690  0.9764  0.1706  2.6295
 1406TIP3    H225634   2.405   1.620  11.653 -0.0450  0.5068 -1.9579
 1407TIP3   OH225635   2.434   2.500   6.224  0.1572  0.0839  0.7644
 1407TIP3    H125636   2.399   2.416   6.253 -1.8237  0.6883  0.2520
 1407TIP3    H225637   2.458   2.485   6.132 -1.2446  0.3449  0.3349
 1408TIP3   OH225638   5.012   3.649   0.427 -0.8911  0.7068  0.6293
 1408TIP3    H125639   5.014   3.610   0.514  1.4092 -0.7475  0.0103
 1408TIP3    H225640   5.088   3.707   0.425 -1.6155  1.6636 -0.0270
 1409TIP3   OH225641   1.830   1.342   5.582  0.2780  0.6026  0.0881
 1409TIP3    H125642   1.807   1.336   5.674 -2.0734  0.7557 -0.4124
 1409TIP3    H225643   1.821   1.434   5.560  2.6443  0.8917  0.0564
 1410TIP3   OH225644   3.438   5.028  16.327 -0.1442  0.2243  0.3280
 1410TIP3    H125645   3.420   4.952  16.272 -0.7527  0.9125 -0.4489
 1410TIP3    H225646   3.531   5.021  16.347 -0.0086 -0.2717 -0.4280
 1411TIP3   OH225647   4.979   3.790  14.955  0.4041 -0.0657 -0.0080
 1411TIP3    H125648   5.041   3.734  14.909  0.6880  0.5045 -0.3305
 1411TIP3    H225649   5.012   3.879  14.941  0.4127  0.1252  1.1910
 1412TIP3   OH225650   5.858   1.344   5.058  0.2242 -0.7281 -0.0559
 1412TIP3    H125651   5.840   1.265   5.008  1.6744 -0.6689 -0.7215
 1412TIP3    H225652   5.824   1.326   5.145  1.0073 -2.2959 -0.0451
 1413TIP3   OH225653   3.271   3.802  11.430 -0.2384 -0.4826  0.6396
 1413TIP3    H125654   3.335   3.731  11.436 -0.1240 -0.3024  2.2892
 1413TIP3    H225655   3.209   3.784  11.501 -2.7407 -1.2688 -1.5722
 1414TIP3   OH225656   1.750   2.972   5.063 -0.1912  0.2457 -0.4408
 1414TIP3    H125657   1.795   2.953   4.981 -0.5147  0.1498 -0.5997
 1414TIP3    H225658   1.748   2.888   5.110  1.0272  0.5520  0.1896
 1415TIP3   OH225659   2.203   2.270   3.268 -0.2017 -0.0697  0.2529
 1415TIP3    H125660   2.288   2.254   3.310  0.5906  1.8540 -0.5185
 1415TIP3    H225661   2.181   2.360   3.292 -2.8472 -0.9964  1.7654
 1416TIP3   OH225662   2.449   2.223  14.923 -0.2864 -0.0893  1.0082
 1416TIP3    H125663   2.422   2.302  14.878 -1.5854 -1.3545 -0.5863
 1416TIP3    H225664   2.368   2.189  14.962  0.0142 -1.1887  0.7119
 1417TIP3   OH225665   5.542   1.258  16.197  0.3089 -0.3027 -0.4880
 1417TIP3    H125666   5.568   1.229  16.110 -2.1975  1.1141 -1.7995
 1417TIP3    H225667   5.618   1.306  16.230  1.2276 -0.6935 -1.9343
 1418TIP3   OH225668   2.767   0.945   1.176 -0.2484  0.0016  0.3589
 1418TIP3    H125669   2.830   0.965   1.107  0.3008  1.6185  1.2916
 1418TIP3    H225670   2.820   0.934   1.255 -1.0296  0.3708  0.9494
 1419TIP3   OH225671   5.918   4.333  14.963  0.2543 -0.4832  0.0966
 1419TIP3    H125672   5.932   4.254  14.911 -0.8022  0.0790 -1.1153
 1419TIP3    H225673   5.833   4.367  14.932 -0.9324 -0.6340  2.8719
 1420TIP3   OH225674   1.961   2.836  13.395  0.3609  0.4068 -0.4402
 1420TIP3    H125675   1.891   2.895  13.421 -0.6464 -1.0882  0.4385
 1420TIP3    H225676   1.921   2.781  13.327  0.8202 -0.1419 -0.2748
 1421TIP3   OH225677   0.431   2.022   4.601 -0.4320  0.2025 -0.1278
 1421TIP3    H125678   0.492   2.053   4.669 -0.2974 -1.4735  0.5538
 1421TIP3    H225679   0.375   1.959   4.646 -0.0432 -1.2939 -1.6487
 1422TIP3   OH225680   6.611   3.182   2.572  0.0448 -0.3971 -0.1167
 1422TIP3    H125681   6.582   3.093   2.550 -0.7652 -0.2412  0.2961
 1422TIP3    H225682   6.549   3.212   2.638  2.4205 -0.9360  2.5703
 1423TIP3   OH225683   2.565   5.494   0.705  0.4018 -0.0916  0.3962
 1423TIP3    H125684   2.634   5.537   0.654  0.1889  0.4578  0.5709
 1423TIP3    H225685   2.543   5.416   0.654  1.5264 -0.5641  0.6041
 1424TIP3   OH225686   1.371   6.513  14.540 -0.6321 -0.2354 -0.6253
 1424TIP3    H125687   1.403   6.422  14.533  1.1545  0.2880  0.0957
 1424TIP3    H225688   1.378   6.547  14.451 -0.0147 -0.4082 -0.6468
 1425TIP3   OH225689   6.706   5.677  16.964 -0.2594 -0.0476  0.7302
 1425TIP3    H125690   6.719   5.597  16.913 -1.4636 -0.8464  1.6206
 1425TIP3    H225691   6.613   5.696  16.955 -0.2614  0.4517  1.6776
 1426TIP3   OH225692   2.746   2.428  16.754  0.2282 -0.0666 -0.4262
 1426TIP3    H125693   2.651   2.434  16.739  0.2424  1.6656 -0.1051
 1426TIP3    H225694   2.760   2.478  16.835  1.7590  2.5357 -2.1421
 1427TIP3   OH225695   4.357   5.670   0.046  0.2979 -0.1643 -0.0966
 1427TIP3    H125696   4.263   5.675   0.063  0.0573 -0.4546 -1.2706
 1427TIP3    H225697   4.379   5.756   0.010  0.1301 -0.6302 -1.3812
 1428TIP3   OH225698   0.034   2.217  16.330 -0.3368  0.5382  0.2542
 1428TIP3    H125699   0.091   2.278  16.376  0.6593 -0.8311  0.9318
 1428TIP3    H225700   0.047   2.133  16.375 -0.0228 -0.6757 -1.9115
 1429TIP3   OH225701   4.123   0.634   3.231  0.3241 -0.0314  0.2154
 1429TIP3    H125702   4.149   0.553   3.275 -0.9830  0.0260  1.1327
 1429TIP3    H225703   4.184   0.641   3.158  1.4565 -1.0309  1.0139
 1430TIP3   OH225704   0.527   2.604  12.186 -0.8921  0.0998 -0.1541
 1430TIP3    H125705   0.505   2.512  12.169  0.4037 -0.0510 -1.1437
 1430TIP3    H225706   0.494   2.651  12.110  1.1176  0.0077 -1.1497
 1431TIP3   OH225707   3.470   0.765   1.758 -0.1011 -0.0699  0.6191
 1431TIP3    H125708   3.552   0.794   1.797  0.2878 -0.0508 -0.1905
 1431TIP3    H225709   3.411   0.839   1.769  1.0710  1.4077 -2.0212
 1432TIP3   OH225710   3.450   5.921   3.837 -0.0210  0.6209 -0.2916
 1432TIP3    H125711   3.534   5.965   3.853  1.4144 -2.1110  0.4370
 1432TIP3    H225712   3.450   5.905   3.743 -1.4248  3.5915 -0.9005
 1433TIP3   OH225713   5.377   5.339  16.959 -0.0184 -0.4893 -0.6139
 1433TIP3    H125714   5.357   5.432  16.976 -0.0626 -0.3151 -1.5468
 1433TIP3    H225715   5.352   5.294  17.040  0.1630  0.3304 -0.0841
 1434TIP3   OH225716   1.136   4.633  12.609 -0.7504 -0.4103 -0.2658
 1434TIP3    H125717   1.137   4.631  12.704 -0.6169  0.8767 -0.2166
 1434TIP3    H225718   1.199   4.701  12.586  1.5205 -2.7401 -1.4034
 1435TIP3   OH225719   6.306   0.199   3.156  0.4580  0.3859 -0.4660
 1435TIP3    H125720   6.283   0.200   3.249  1.2449 -0.2259 -0.2526
 1435TIP3    H225721   6.269   0.116   3.124 -1.3206  1.3825 -1.1171
 1436TIP3   OH225722   2.226   3.604   5.060 -0.0559 -0.7490  0.1510
 1436TIP3    H125723   2.234   3.619   4.966  1.3985 -0.4792  0.2880
 1436TIP3    H225724   2.278   3.525   5.077  0.6350 -0.1610  0.8685
 1437TIP3   OH225725   0.447   5.558  11.339 -0.1062  0.2304 -0.7532
 1437TIP3    H125726   0.497   5.490  11.293 -0.4693  0.1059 -0.9708
 1437TIP3    H225727   0.513   5.620  11.370  0.5324 -1.6191  1.8827
 1438TIP3   OH225728   5.369   4.799   1.665 -0.2148  0.2782 -0.4398
 1438TIP3    H125729   5.419   4.722   1.693 -1.1997 -0.4110 -0.4887
 1438TIP3    H225730   5.382   4.863   1.735  0.4554 -0.0107 -0.2961
 1439TIP3   OH225731   1.626   1.366  16.839  0.5052 -0.4293 -0.3179
 1439TIP3    H125732   1.637   1.278  16.801 -1.2621  0.3103 -2.7800
 1439TIP3    H225733   1.563   1.354  16.910 -0.5485 -1.0205 -1.3225
 1440TIP3   OH225734   2.281   3.847   0.128 -0.5137  0.0502  0.1106
 1440TIP3    H125735   2.197   3.879   0.162 -2.1633 -2.4181 -1.2841
 1440TIP3    H225736   2.296   3.899   0.049  0.3119  1.7914  1.3568
 1441TIP3   OH225737   5.726   3.349   4.939 -0.1419  0.4112 -0.1569
 1441TIP3    H125738   5.787   3.275   4.939  2.7096  2.5301  2.3057
 1441TIP3    H225739   5.671   3.334   4.862  1.6554 -3.0914 -0.9925
 1442TIP3   OH225740   6.072   2.084   5.796 -0.3117 -0.0035  0.3476
 1442TIP3    H125741   6.032   2.091   5.883 -0.2776  0.5747  0.3205
 1442TIP3    H225742   6.154   2.036   5.811 -0.4035 -0.0860  0.6002
 1443TIP3   OH225743   6.386   5.981   3.898 -0.3947 -0.0425  0.2530
 1443TIP3    H125744   6.322   5.995   3.968 -0.2121  0.7974  0.2594
 1443TIP3    H225745   6.355   5.902   3.853 -0.4313 -0.6722  1.3589
 1444TIP3   OH225746   4.293   6.536   3.227 -0.7727  0.3744 -0.3388
 1444TIP3    H125747   4.253   6.451   3.206 -0.5645 -0.0083  0.7408
 1444TIP3    H225748   4.258   6.596   3.161 -1.3393 -0.4395 -0.7993
 1445TIP3   OH225749   6.656   2.219  16.970  0.3577  0.0924 -0.7794
 1445TIP3    H125750   6.667   2.263  17.054  0.5830  0.4651 -0.9959
 1445TIP3    H225751   6.562   2.202  16.964  0.2933  0.3697 -0.6009
 1446TIP3   OH225752   5.673   6.511   2.102  0.4616 -0.2682  0.4108
 1446TIP3    H125753   5.694   6.604   2.115  1.3261 -0.1766 -1.3166
 1446TIP3    H225754   5.627   6.485   2.182  1.5458  1.2440  1.5946
 1447TIP3   OH225755   1.860   5.673  15.559 -0.0636  0.1327  0.3570
 1447TIP3    H125756   1.900   5.707  15.639 -0.0756 -0.9874  0.8600
 1447TIP3    H225757   1.913   5.711  15.488  2.0473 -1.3924  1.0000
 1448TIP3   OH225758   1.055   5.116   3.093  0.5628  0.3083  0.8590
 1448TIP3    H125759   1.081   5.109   3.001 -1.0875 -0.4640  0.4038
 1448TIP3    H225760   1.035   5.208   3.105  0.8805  0.4333  0.4791
 1449TIP3   OH225761   5.994   5.758  15.043 -0.2270 -0.4331  0.1172
 1449TIP3    H125762   6.044   5.725  15.117 -0.2767  2.2856  1.4720
 1449TIP3    H225763   6.059   5.768  14.973  0.5812  0.3407  0.9524
 1450TIP3   OH225764   1.730   5.201   5.631  0.3574  0.4526 -0.0739
 1450TIP3    H125765   1.743   5.240   5.717 -1.7548 -0.2375  0.6113
 1450TIP3    H225766   1.688   5.270   5.579 -1.9560 -0.3016  0.6768
 1451TIP3   OH225767   2.971   5.737   5.265 -0.2133  0.1390  0.0362
 1451TIP3    H125768   2.949   5.816   5.315  0.9878  0.2199  0.4598
 1451TIP3    H225769   2.983   5.769   5.175  0.0548  0.4057  0.1645
 1452TIP3   OH225770   1.528   2.581  14.108  0.4090 -0.0969 -0.5341
 1452TIP3    H125771   1.552   2.628  14.029 -3.3233  1.4974 -0.9617
 1452TIP3    H225772   1.480   2.505  14.077 -1.2629  0.6454  0.0884
 1453TIP3   OH225773   2.712   0.792  15.726  0.2931 -0.1257 -0.1817
 1453TIP3    H125774   2.673   0.720  15.776 -2.4245 -0.2233 -2.2163
 1453TIP3    H225775   2.757   0.749  15.653  1.9157  0.1414  0.6172
 1454TIP3   OH225776   6.172   0.253  14.970 -0.2456 -0.8376  0.4599
 1454TIP3    H125777   6.083   0.279  14.994 -0.3273  2.8401 -2.9121
 1454TIP3    H225778   6.163   0.165  14.934 -3.1204  0.3622 -2.1555
 1455TIP3   OH225779   3.958   2.001   2.470  0.7664 -0.0917 -0.6344
 1455TIP3    H125780   3.871   1.967   2.448  0.7427 -1.0775  0.7680
 1455TIP3    H225781   3.945   2.047   2.553  1.5569 -0.1453 -0.4713
 1456TIP3   OH225782   3.163   5.377   4.796  0.1269  0.0533  0.7537
 1456TIP3    H125783   3.197   5.289   4.780  1.4284  1.0181 -2.5031
 1456TIP3    H225784   3.082   5.381   4.746 -0.2535  0.5640  1.3871
 1457TIP3   OH225785   0.931   2.942   3.274 -0.1580 -0.1990 -0.0061
 1457TIP3    H125786   0.964   2.901   3.354  1.2352  1.5227  0.3824
 1457TIP3    H225787   0.951   3.035   3.285 -1.0855  0.2671 -1.8190
 1458TIP3   OH225788   5.081   1.652   4.359  0.0959  0.8016  0.3704
 1458TIP3    H125789   5.105   1.651   4.267  0.0720  0.8613  0.3630
 1458TIP3    H225790   4.995   1.695   4.361  0.2728  1.1589  0.4617
 1459TIP3   OH225791   5.559   0.725   3.074 -0.1973 -0.1371 -0.3808
 1459TIP3    H125792   5.566   0.649   3.017 -2.0143  0.0542 -0.9006
 1459TIP3    H225793   5.497   0.698   3.142 -0.3792  0.6720 -0.2207
 1460TIP3   OH225794   3.070   5.336   2.309  0.2841  0.1417  1.1415
 1460TIP3    H125795   3.099   5.260   2.359  1.8796 -0.1504 -0.1534
 1460TIP3    H225796   3.133   5.405   2.329 -1.0666  1.1499  2.1950
 1461TIP3   OH225797   0.595   1.572  12.804  0.4465 -0.5123  0.1405
 1461TIP3    H125798   0.550   1.651  12.834  0.5943  0.3389 -1.7566
 1461TIP3    H225799   0.542   1.500  12.837 -0.6159  0.4138  0.5173
 1462TIP3   OH225800   3.144   3.488   6.045  0.4038  0.0535 -0.3384
 1462TIP3    H125801   3.179   3.404   6.077 -2.0856 -1.1385 -0.5332
 1462TIP3    H225802   3.058   3.495   6.085 -0.8117  0.8976 -2.9040
 1463TIP3   OH225803   5.086   1.907  11.837 -0.6362 -0.1323 -0.1419
 1463TIP3    H125804   5.180   1.906  11.852 -0.4296  1.3754 -1.1538
 1463TIP3    H225805   5.068   1.823  11.793 -0.1611 -1.4032  1.9733
 1464TIP3   OH225806   5.264   2.267  11.334  0.3201 -0.0539 -0.0771
 1464TIP3    H125807   5.246   2.227  11.420  1.5649 -1.0592 -0.2471
 1464TIP3    H225808   5.261   2.193  11.273  0.5437  0.4775 -0.7376
 1465TIP3   OH225809   6.378   5.770  13.081  0.0520  0.0842  0.4983
 1465TIP3    H125810   6.338   5.852  13.052 -1.7699 -0.9547 -0.1023
 1465TIP3    H225811   6.361   5.766  13.175  0.5340  0.5791  0.6112
 1466TIP3   OH225812   3.021   4.785   5.639 -0.5309 -0.4490 -0.2728
 1466TIP3    H125813   3.062   4.841   5.574  1.5055  0.0440  1.3350
 1466TIP3    H225814   3.091   4.727   5.668 -1.5549 -1.0858  1.0106
 1467TIP3   OH225815   4.881   2.592  17.252 -0.5260  0.1770 -0.6536
 1467TIP3    H125816   4.837   2.673  17.225 -0.7946  0.2779  0.0780
 1467TIP3    H225817   4.972   2.605  17.225 -0.6304  0.5941 -0.8216
 1468TIP3   OH225818   4.071   0.227   2.263  0.6113  0.1053 -0.2636
 1468TIP3    H125819   4.160   0.241   2.230  1.2666 -0.7275  1.0468
 1468TIP3    H225820   4.033   0.162   2.204  0.5781  1.0188 -1.2799
 1469TIP3   OH225821   4.399   5.409   3.735 -0.0187  0.0017  0.0456
 1469TIP3    H125822   4.484   5.388   3.696 -0.7299 -1.7128 -0.7056
 1469TIP3    H225823   4.390   5.348   3.808 -0.8740 -0.2937 -0.2895
 1470TIP3   OH225824   0.834   0.529  13.680 -0.2837 -0.3883  0.7196
 1470TIP3    H125825   0.805   0.533  13.771  1.6474  3.1967  1.3274
 1470TIP3    H225826   0.929   0.527  13.685 -0.1513 -0.8942 -1.2574
 1471TIP3   OH225827   6.720   6.677  16.704  0.0577 -0.3101  0.3217
 1471TIP3    H125828   6.733   6.764  16.666 -0.3151  0.4980  1.9240
 1471TIP3    H225829   6.725   6.692  16.799  0.4239 -2.1156  0.6290
 1472TIP3   OH225830   0.215   1.380  10.845 -0.1706  0.1693  0.5337
 1472TIP3    H125831   0.295   1.349  10.887 -0.0811 -1.2999 -0.6227
 1472TIP3    H225832   0.220   1.344  10.756 -1.5647  1.0249  0.0807
 1473TIP3   OH225833   2.854   6.175  14.896  0.6517 -0.2433  0.4322
 1473TIP3    H125834   2.760   6.172  14.878  0.4761 -0.0033  1.2645
 1473TIP3    H225835   2.860   6.207  14.986  1.5621  0.3803  0.1580
 1474TIP3   OH225836   4.033   1.587   4.682 -0.2141 -0.1733 -0.5634
 1474TIP3    H125837   3.952   1.555   4.722 -0.3008  0.3531 -0.3199
 1474TIP3    H225838   4.102   1.537   4.726 -0.3833 -0.4215 -0.5748
 1475TIP3   OH225839   0.537   0.140   4.971 -0.0434 -0.0788  0.0368
 1475TIP3    H125840   0.525   0.175   5.059 -2.0561  1.0254 -0.6152
 1475TIP3    H225841   0.464   0.176   4.921 -0.2671 -2.5088 -1.5468
 1476TIP3   OH225842   2.379   4.512  12.373 -0.0311 -0.1656 -0.0100
 1476TIP3    H125843   2.300   4.565  12.357  0.6642  1.1858  0.8933
 1476TIP3    H225844   2.451   4.565  12.339  0.5992 -0.9902  0.0050
 1477TIP3   OH225845   2.637   2.105   3.193 -0.1811  0.2412 -0.3408
 1477TIP3    H125846   2.703   2.052   3.239 -1.7481  0.4697  2.3705
 1477TIP3    H225847   2.585   2.040   3.145  0.0619 -0.3183  0.1272
 1478TIP3   OH225848   3.137   5.694  12.425  0.4267 -0.1458  0.2768
 1478TIP3    H125849   3.160   5.655  12.510  1.2039  0.0997  0.1873
 1478TIP3    H225850   3.181   5.779  12.425  0.7931 -0.3254 -0.5514
 1479TIP3   OH225851   4.326   1.444   4.202 -1.0237 -0.0341  0.4297
 1479TIP3    H125852   4.294   1.491   4.125 -1.2256 -3.3877 -1.7664
 1479TIP3    H225853   4.253   1.445   4.263 -1.2047  1.9056  0.2295
 1480TIP3   OH225854   2.174   1.700   1.217  0.0112 -0.0957 -0.1072
 1480TIP3    H125855   2.173   1.794   1.233  0.5050 -0.2958  1.2600
 1480TIP3    H225856   2.246   1.687   1.154  1.0758  0.2867  0.9874
 1481TIP3   OH225857   4.043   1.581  12.598 -0.2401  0.2931 -0.2146
 1481TIP3    H125858   4.132   1.603  12.568 -0.2218  0.4170 -0.0748
 1481TIP3    H225859   4.038   1.486  12.592  0.3632  0.1581  0.9973
 1482TIP3   OH225860   1.503   5.478  16.951  0.0034 -0.2066  0.6891
 1482TIP3    H125861   1.453   5.560  16.945  0.7508  0.3013  1.1392
 1482TIP3    H225862   1.593   5.504  16.934  0.2052 -0.9959  0.5324
 1483TIP3   OH225863   0.011   0.554   1.131  0.8204 -0.0553  0.0417
 1483TIP3    H125864   0.027   0.646   1.154 -3.7251  1.2281 -0.9389
 1483TIP3    H225865  -0.060   0.527   1.189  0.3274 -2.1147 -1.4308
 1484TIP3   OH225866   6.611   2.479   3.960  0.8486 -0.1467 -0.0679
 1484TIP3    H125867   6.684   2.450   3.905  1.3543  1.7561 -0.4911
 1484TIP3    H225868   6.543   2.504   3.898 -0.0434 -1.5357  0.3180
 1485TIP3   OH225869   3.987   4.167   6.885  0.0814  0.1572  0.0563
 1485TIP3    H125870   4.036   4.138   6.808  0.3396  0.2898  0.1687
 1485TIP3    H225871   3.913   4.106   6.891 -0.4016  0.6570 -0.7687
 1486TIP3   OH225872   4.917   2.279   2.606 -0.0638 -0.4252 -0.0004
 1486TIP3    H125873   4.836   2.329   2.618  0.3312  0.2857 -0.2182
 1486TIP3    H225874   4.932   2.237   2.691 -1.5389 -1.9299 -0.4446
 1487TIP3   OH225875   2.595   5.620   6.146  0.6892  0.3439 -0.4838
 1487TIP3    H125876   2.639   5.536   6.137 -0.4327 -0.5636  1.7542
 1487TIP3    H225877   2.641   5.664   6.217 -0.8274  0.1342  0.6748
 1488TIP3   OH225878   0.907   6.595  12.365 -0.4012  0.3153  0.1470
 1488TIP3    H125879   0.956   6.597  12.283 -1.2770 -0.7547 -0.4253
 1488TIP3    H225880   0.817   6.611  12.339 -0.6968 -0.1112  0.8884
 1489TIP3   OH225881   1.616   2.623  15.176 -0.4611 -0.0761  0.7163
 1489TIP3    H125882   1.562   2.603  15.099  1.1570  1.0831 -0.8096
 1489TIP3    H225883   1.634   2.717  15.168 -0.2605  0.0638  2.5504
 1490TIP3   OH225884   0.482   0.450  15.417 -0.3880 -0.0865 -0.4000
 1490TIP3    H125885   0.421   0.429  15.488 -0.2204  0.0927 -0.2012
 1490TIP3    H225886   0.495   0.544  15.424  0.4508 -0.2171  0.0002
 1491TIP3   OH225887   0.574   1.281  15.700  0.1820 -0.1668 -0.2354
 1491TIP3    H125888   0.510   1.283  15.771 -2.1820 -0.4652 -2.2253
 1491TIP3    H225889   0.569   1.369  15.660  1.3683 -0.0464 -0.1725
 1492TIP3   OH225890   3.557   1.680  11.643 -1.0744 -0.3102  0.4741
 1492TIP3    H125891   3.543   1.698  11.550  1.5004 -0.8172 -0.0876
 1492TIP3    H225892   3.483   1.624  11.668 -1.7429 -0.2753 -1.2679
 1493TIP3   OH225893   5.537   4.550  14.162  0.2709 -0.4542 -0.2444
 1493TIP3    H125894   5.573   4.638  14.166  1.9697 -1.1402  0.0276
 1493TIP3    H225895   5.518   4.536  14.069 -2.8302  1.2201 -0.0191
 1494TIP3   OH225896   4.083   4.263   4.246 -0.2815  0.6821  0.4515
 1494TIP3    H125897   4.019   4.331   4.225 -1.3283 -0.1049  1.0592
 1494TIP3    H225898   4.148   4.307   4.301 -1.7873  0.8490  2.1679
 1495TIP3   OH225899   6.091   0.380   2.535 -0.0028  0.0096  0.3992
 1495TIP3    H125900   6.086   0.307   2.473 -1.8216  0.8493 -0.5422
 1495TIP3    H225901   6.182   0.381   2.565  0.6128 -1.2187 -1.2967
 1496TIP3   OH225902   0.058   2.452   6.762 -0.5239  0.8789  0.1321
 1496TIP3    H125903   0.066   2.456   6.667 -0.1557  0.1523  0.1304
 1496TIP3    H225904   0.074   2.361   6.784  0.6107  1.2572  0.9982
 1497TIP3   OH225905   5.628   1.170   5.030 -0.2231 -0.0351  0.4593
 1497TIP3    H125906   5.549   1.224   5.030 -0.1012  0.1714  1.4642
 1497TIP3    H225907   5.626   1.126   5.115  1.4853  1.0899  1.1342
 1498TIP3   OH225908   1.714   1.092  13.024 -0.5625  0.0418 -0.3822
 1498TIP3    H125909   1.764   1.056  13.097  0.8079  0.4978 -1.0592
 1498TIP3    H225910   1.640   1.032  13.013 -0.0221 -0.8058  0.4834
 1499TIP3   OH225911   4.563   6.596   5.558  0.4104 -0.1161  0.4365
 1499TIP3    H125912   4.513   6.664   5.512 -1.2245 -0.8867  0.9649
 1499TIP3    H225913   4.573   6.526   5.494 -0.5942 -0.5915  0.7668
 1500TIP3   OH225914   1.134   2.528   2.130 -0.0730 -0.4424 -0.1739
 1500TIP3    H125915   1.104   2.478   2.206  1.0666  0.5363  0.9567
 1500TIP3    H225916   1.125   2.467   2.057  2.4139 -2.7979  1.2993
 1501TIP3   OH225917   1.380   0.786   4.529  0.1234 -0.2178 -1.1647
 1501TIP3    H125918   1.328   0.765   4.606 -1.5386  0.3733 -2.0640
 1501TIP3    H225919   1.419   0.872   4.548 -0.8061  0.2286 -1.2088
 1502TIP3   OH225920   1.147   4.835   0.518 -0.5310 -0.3731  0.2625
 1502TIP3    H125921   1.071   4.824   0.461 -1.8034  0.5247  1.7206
 1502TIP3    H225922   1.130   4.775   0.592 -1.6808  2.3426  2.3777
 1503TIP3   OH225923   6.093   3.541   4.996  0.1136  0.0418 -0.3137
 1503TIP3    H125924   6.054   3.563   4.911 -0.7260 -1.1008 -0.2498
 1503TIP3    H225925   6.040   3.587   5.060  0.8181  0.9970 -0.4043
 1504TIP3   OH225926   4.364   4.201   1.838  0.2645 -0.0576  0.0931
 1504TIP3    H125927   4.286   4.257   1.834 -1.6747 -2.5932 -0.5309
 1504TIP3    H225928   4.398   4.213   1.926  1.1696  3.5009 -0.5748
 1505TIP3   OH225929   0.972   4.633  13.549  0.1115  0.5250  0.0872
 1505TIP3    H125930   0.890   4.682  13.546  0.5660  1.2374 -1.3858
 1505TIP3    H225931   1.038   4.695  13.520  0.8580 -0.6472 -0.7923
 1506TIP3   OH225932   2.911   6.638  15.231 -0.5649  0.2148 -0.4349
 1506TIP3    H125933   2.841   6.611  15.171 -1.6836 -0.8748  1.2488
 1506TIP3    H225934   2.989   6.594  15.198  0.0074  3.1747 -3.6613
 1507TIP3   OH225935   5.690   5.229   4.802  0.6282 -0.6919 -0.3020
 1507TIP3    H125936   5.720   5.184   4.881 -0.4953 -0.3119  0.3752
 1507TIP3    H225937   5.688   5.161   4.735 -0.1033 -1.4445  0.4561
 1508TIP3   OH225938   3.797   1.729   2.083 -0.3948  0.2696  0.0170
 1508TIP3    H125939   3.745   1.803   2.050 -0.3045  0.5211  0.4322
 1508TIP3    H225940   3.887   1.751   2.059 -0.4793 -0.2328 -0.8264
 1509TIP3   OH225941   6.740   2.618   2.882  0.4838 -0.4376  0.1266
 1509TIP3    H125942   6.751   2.712   2.894  1.1694 -0.4796 -0.1177
 1509TIP3    H225943   6.782   2.599   2.798 -0.4823 -0.8159 -0.2782
 1510TIP3   OH225944   5.798   1.675  16.767  0.1623 -0.1024 -0.1022
 1510TIP3    H125945   5.867   1.675  16.833 -0.2813  0.4167  0.3706
 1510TIP3    H225946   5.717   1.663  16.817 -0.3311  1.7553 -0.3670
 1511TIP3   OH225947   4.502   3.523  12.588  0.1146  0.3547  0.1381
 1511TIP3    H125948   4.538   3.484  12.509  1.1944  1.5179  0.0066
 1511TIP3    H225949   4.416   3.556  12.563 -0.7223 -1.6351  0.1957
 1512TIP3   OH225950   3.800   0.156   4.984  0.0963  0.2621  0.3576
 1512TIP3    H125951   3.792   0.124   4.895 -1.9816  0.8414  0.2801
 1512TIP3    H225952   3.795   0.251   4.976  1.9741  0.4498  0.9472
 1513TIP3   OH225953   1.827   2.185   2.112 -0.0357 -0.1594  0.4108
 1513TIP3    H125954   1.855   2.186   2.203  0.4184 -1.8012  0.3292
 1513TIP3    H225955   1.898   2.140   2.066  1.7702  4.1180 -1.5364
 1514TIP3   OH225956   4.022   6.639  13.254 -0.3943  0.0020  0.3476
 1514TIP3    H125957   3.942   6.616  13.301 -0.9243  2.0947  0.5569
 1514TIP3    H225958   4.035   6.731  13.273  0.6701  0.3439 -1.7472
 1515TIP3   OH225959   1.567   4.160   1.214 -0.3524  0.0878 -0.0979
 1515TIP3    H125960   1.547   4.072   1.245 -0.8883 -0.0590 -0.8381
 1515TIP3    H225961   1.662   4.166   1.219 -0.0383 -1.4543 -2.3908
 1516TIP3   OH225962   2.137   4.665   0.071 -0.6210 -0.3919 -0.2293
 1516TIP3    H125963   2.082   4.622   0.005 -1.1897  0.0061 -0.0153
 1516TIP3    H225964   2.077   4.717   0.123 -0.0503 -0.0000  0.0513
 1517TIP3   OH225965   0.480   6.274  13.357 -0.5480  0.1275 -0.3436
 1517TIP3    H125966   0.566   6.238  13.381 -0.3753  0.4206 -0.5128
 1517TIP3    H225967   0.445   6.309  13.439 -0.5288 -0.0455 -0.2630
 1518TIP3   OH225968   4.072   0.892   0.167 -0.1230  0.5295  0.0788
 1518TIP3    H125969   4.078   0.971   0.222  0.7385  1.0664 -0.7522
 1518TIP3    H225970   3.978   0.876   0.159 -0.2866 -0.1374  2.4743
 1519TIP3   OH225971   2.917   1.843   6.428  0.2825  0.0421 -0.3823
 1519TIP3    H125972   2.961   1.778   6.482  0.2320  0.0709 -0.3052
 1519TIP3    H225973   2.984   1.874   6.368  0.7841  1.1655  0.7016
 1520TIP3   OH225974   0.893   6.587   0.778  0.4895  0.0658  0.1263
 1520TIP3    H125975   0.983   6.600   0.807  1.0634 -1.3555 -0.9147
 1520TIP3    H225976   0.878   6.657   0.714  0.8903  0.2381  0.2188
 1521TIP3   OH225977   6.040   2.917   5.178 -0.1530  0.3087 -1.3385
 1521TIP3    H125978   6.129   2.901   5.211  0.0578 -1.1303 -2.4808
 1521TIP3    H225979   5.983   2.868   5.237 -0.0964  0.4403 -1.1739
 1522TIP3   OH225980   4.910   6.356   4.683  0.0269 -0.2509 -0.1077
 1522TIP3    H125981   4.956   6.273   4.695 -0.7571 -0.4604  1.8271
 1522TIP3    H225982   4.973   6.412   4.638  1.0798 -1.4462 -0.1845
 1523TIP3   OH225983   0.575   5.585  14.726  0.0495 -0.3037 -0.1702
 1523TIP3    H125984   0.510   5.534  14.775  0.4757 -1.6358 -0.9409
 1523TIP3    H225985   0.525   5.625  14.655 -0.2645  0.2546  0.3571
 1524TIP3   OH225986   3.904   0.967  10.519  0.5541  0.0469 -0.3679
 1524TIP3    H125987   3.967   1.009  10.462 -1.0446 -0.4972 -2.6641
 1524TIP3    H225988   3.886   0.883  10.477 -2.0852  0.4200 -0.1282
 1525TIP3   OH225989   4.335   4.348   4.750 -0.1642  0.4031  0.1942
 1525TIP3    H125990   4.260   4.294   4.729 -1.4930  2.4883 -0.7952
 1525TIP3    H225991   4.313   4.388   4.834  1.4688 -1.5951  1.6844
 1526TIP3   OH225992   4.113   0.129   5.572  0.2907 -0.2588 -0.1566
 1526TIP3    H125993   4.181   0.183   5.613 -0.7221  1.8937 -1.1638
 1526TIP3    H225994   4.069   0.087   5.646  0.3913  1.2156  0.7907
 1527TIP3   OH225995   3.057   5.191  15.763  0.5836 -0.2469 -0.0943
 1527TIP3    H125996   2.978   5.173  15.815  0.2923  1.7851  0.2552
 1527TIP3    H225997   3.064   5.116  15.703 -0.2450 -1.6328  1.4609
 1528TIP3   OH225998   2.662   2.067   2.514  0.0639  0.0206  0.3300
 1528TIP3    H125999   2.600   2.106   2.576  0.6076  0.8420  0.3882
 1528TIP3    H226000   2.620   2.078   2.428  0.0776  0.4979  0.3770
 1529TIP3   OH226001   3.213   1.899  16.741 -0.1222  0.5288  0.1222
 1529TIP3    H126002   3.133   1.902  16.793 -0.4938  0.2484 -0.4209
 1529TIP3    H226003   3.208   1.817  16.693 -0.6745  1.5604 -1.7171
 1530TIP3   OH226004   5.287   2.624  14.202  0.0674  0.1427 -0.6354
 1530TIP3    H126005   5.238   2.694  14.245 -1.1055 -0.3493 -1.1411
 1530TIP3    H226006   5.368   2.666  14.173 -0.7307  1.3737 -1.1832
 1531TIP3   OH226007   4.400   0.670   6.507  0.0860 -0.2694 -0.9175
 1531TIP3    H126008   4.495   0.679   6.519 -0.1115  2.5811 -0.8465
 1531TIP3    H226009   4.384   0.575   6.510  2.9863 -0.8664 -1.5985
 1532TIP3   OH226010   6.030   0.614   5.441  0.4250  0.4293 -0.0002
 1532TIP3    H126011   6.107   0.671   5.440  0.3076  0.5848 -0.2310
 1532TIP3    H226012   6.065   0.526   5.424  0.8309  0.1425  2.0839
 1533TIP3   OH226013   0.058   4.868  17.152  0.6000  0.3387  0.5456
 1533TIP3    H126014  -0.036   4.868  17.130  0.6088 -1.8023  0.2925
 1533TIP3    H226015   0.061   4.829  17.240  1.1295  2.2713  1.4203
 1534TIP3   OH226016   0.984   3.635  15.673  0.4794  0.4247  0.0826
 1534TIP3    H126017   0.905   3.654  15.624  0.0617  0.1698  0.6475
 1534TIP3    H226018   0.995   3.708  15.734  0.5046  0.3151  0.2135
 1535TIP3   OH226019   6.478   0.227  11.661 -0.1870  0.5629  0.3620
 1535TIP3    H126020   6.416   0.293  11.691 -0.6346  0.5720 -0.5389
 1535TIP3    H226021   6.430   0.144  11.667  0.6963  0.1369  2.4429
 1536TIP3   OH226022   3.719   6.386  13.592 -0.5646 -0.5897 -0.3657
 1536TIP3    H126023   3.701   6.295  13.616  1.9545 -1.2691 -0.7521
 1536TIP3    H226024   3.715   6.434  13.675  0.2421 -1.4779  0.2094
 1537TIP3   OH226025   3.163   3.201  12.314 -0.3131 -0.1468  0.0352
 1537TIP3    H126026   3.116   3.203  12.398 -0.6344 -0.7615 -0.1235
 1537TIP3    H226027   3.203   3.114  12.312 -0.7024 -0.3133 -0.6627
 1538TIP3   OH226028   4.836   3.552  17.313  0.9142  0.3921  0.5674
 1538TIP3    H126029   4.896   3.512  17.249  0.2374 -0.6920  0.5782
 1538TIP3    H226030   4.751   3.513  17.292  0.8014 -0.5154  2.5564
 1539TIP3   OH226031   2.672   2.198  16.193  0.1705 -0.2783 -0.0133
 1539TIP3    H126032   2.735   2.139  16.151  0.7805  0.4434 -0.1263
 1539TIP3    H226033   2.659   2.269  16.130 -1.9459 -1.1513 -0.6679
 1540TIP3   OH226034   1.333   4.921   1.520 -0.0712  0.2866 -0.0224
 1540TIP3    H126035   1.240   4.926   1.498 -0.6134 -0.4031  1.8701
 1540TIP3    H226036   1.334   4.891   1.611  2.0169  0.2445 -0.0138
 1541TIP3   OH226037   3.173   3.505  15.711 -0.0157 -0.4500 -0.3276
 1541TIP3    H126038   3.188   3.483  15.620  3.1887 -0.9318  0.2087
 1541TIP3    H226039   3.133   3.426  15.749 -1.1711 -0.3164 -1.2199
 1542TIP3   OH226040   5.548   4.762  15.113  0.3376  0.3317  0.3204
 1542TIP3    H126041   5.562   4.730  15.201 -2.7688  0.7580  1.0803
 1542TIP3    H226042   5.636   4.780  15.079  1.6506 -0.7907  2.9259
 1543TIP3   OH226043   5.634   3.476   3.224  0.1590  0.4572  0.4676
 1543TIP3    H126044   5.563   3.530   3.260  0.8303  1.4994  0.2663
 1543TIP3    H226045   5.621   3.479   3.129 -0.3337 -0.5093  0.4889
 1544TIP3   OH226046   3.557   1.689   5.501  1.0419 -0.5332  0.0269
 1544TIP3    H126047   3.637   1.637   5.490  0.9799 -0.8144  0.8170
 1544TIP3    H226048   3.494   1.649   5.440  1.1410 -1.0967  0.2804
 1545TIP3   OH226049   5.580   6.351  17.082  0.3889  0.2798 -0.5858
 1545TIP3    H126050   5.639   6.282  17.051  1.3950  0.7858  0.1579
 1545TIP3    H226051   5.595   6.356  17.176 -1.1201  0.1816 -0.3044
 1546TIP3   OH226052   3.236   0.347  13.412  0.4749  0.1433  0.3238
 1546TIP3    H126053   3.208   0.256  13.405 -1.0045  0.6174 -0.3902
 1546TIP3    H226054   3.322   0.343  13.455  0.7827 -1.6219 -0.3803
 1547TIP3   OH226055   2.627   0.880   5.768  0.3323  0.0039  0.0943
 1547TIP3    H126056   2.683   0.847   5.839 -0.0371  0.0048  0.3874
 1547TIP3    H226057   2.549   0.825   5.771 -0.0832  0.5981  0.2825
 1548TIP3   OH226058   6.720   4.572  15.333  0.4757 -0.1978 -0.7036
 1548TIP3    H126059   6.784   4.569  15.404 -0.2626 -0.8588 -0.0463
 1548TIP3    H226060   6.705   4.480  15.310  0.0764 -0.0295 -1.1384
 1549TIP3   OH226061   5.646   5.852   3.117  0.1871 -0.1052  0.1090
 1549TIP3    H126062   5.561   5.891   3.133 -0.1516  0.0226 -1.7473
 1549TIP3    H226063   5.702   5.887   3.186 -1.2981 -0.4399  1.5451
 1550TIP3   OH226064   5.261   5.767  16.164 -0.0250  0.2531 -0.1268
 1550TIP3    H126065   5.308   5.776  16.247 -1.7494  1.6708  0.7734
 1550TIP3    H226066   5.253   5.856  16.131  0.4024 -0.2713 -1.7126
 1551TIP3   OH226067   6.251   6.696  14.233  0.0630  0.1446  0.8980
 1551TIP3    H126068   6.294   6.659  14.156  1.6466  1.8221  0.9301
 1551TIP3    H226069   6.162   6.660  14.230  0.1804 -0.1012 -1.5168
 1552TIP3   OH226070   0.592   4.112  12.579  0.3531 -0.4964 -0.0575
 1552TIP3    H126071   0.661   4.084  12.518 -1.9886 -3.7281 -1.4921
 1552TIP3    H226072   0.598   4.051  12.652 -0.3436 -0.1171  0.3240
 1553TIP3   OH226073   5.228   6.180  12.115 -0.0668  0.0053  0.0792
 1553TIP3    H126074   5.309   6.201  12.160 -0.9601  2.2041  0.7923
 1553TIP3    H226075   5.161   6.182  12.183 -0.8195 -1.1744 -0.5934
 1554TIP3   OH226076   2.265   4.518   1.515  0.1471 -0.3683  0.3309
 1554TIP3    H126077   2.321   4.567   1.456 -0.3430 -0.7646 -0.4766
 1554TIP3    H226078   2.201   4.582   1.546 -1.2216 -0.7091 -1.6342
 1555TIP3   OH226079   5.789   4.004   2.933 -0.3340 -0.1049 -0.0941
 1555TIP3    H126080   5.753   4.063   3.000 -0.2813 -0.6565  0.4285
 1555TIP3    H226081   5.770   3.916   2.966  1.1071 -0.4026 -0.0058
 1556TIP3   OH226082   1.732   6.116  13.634  0.3358  0.7772  0.3865
 1556TIP3    H126083   1.802   6.060  13.668 -0.3968  0.3229  1.1843
 1556TIP3    H226084   1.660   6.056  13.617  0.4533  1.0878 -1.3908
 1557TIP3   OH226085   1.743   5.829   2.681 -0.0666  0.0642  0.0099
 1557TIP3    H126086   1.802   5.797   2.612  0.4334 -1.1282  0.9593
 1557TIP3    H226087   1.755   5.924   2.681  0.3560  0.0238 -1.1514
 1558TIP3   OH226088   1.738   5.314   1.719  0.1343  0.2382 -0.2421
 1558TIP3    H126089   1.747   5.260   1.640  0.7883  3.0454 -2.2165
 1558TIP3    H226090   1.729   5.403   1.687 -1.5834  1.3338  2.8427
 1559TIP3   OH226091   0.012   5.850  11.042  0.4234  0.3087  0.0625
 1559TIP3    H126092   0.085   5.828  10.984  0.4514  1.6097 -0.4392
 1559TIP3    H226093  -0.058   5.878  10.983  0.4083  1.5472  0.6291
 1560TIP3   OH226094   0.619   3.948   1.544 -0.2477  0.2099 -0.2569
 1560TIP3    H126095   0.547   3.946   1.480 -1.1851 -0.0433  0.7626
 1560TIP3    H226096   0.682   4.010   1.508 -1.1938  0.7866 -0.9659
 1561TIP3   OH226097   2.612   0.594   3.529 -0.5887 -0.4072 -0.5810
 1561TIP3    H126098   2.584   0.676   3.571  0.4149  0.3133 -1.2708
 1561TIP3    H226099   2.609   0.529   3.599 -2.4779 -0.0389 -0.2800
 1562TIP3   OH226100   6.710   1.886  16.320 -0.0341  0.4546  0.3008
 1562TIP3    H126101   6.708   1.791  16.311  1.1794  0.5221 -1.3303
 1562TIP3    H226102   6.766   1.915  16.247 -0.3594  2.4092  0.7750
 1563TIP3   OH226103   1.763   3.923  16.800  0.0861  0.0905 -0.4989
 1563TIP3    H126104   1.818   3.866  16.746  0.2503 -0.3536  0.1211
 1563TIP3    H226105   1.734   3.992  16.740  3.0436  1.5998 -0.4027
 1564TIP3   OH226106   2.135   0.297   1.875  0.6377  0.3209 -0.5936
 1564TIP3    H126107   2.228   0.288   1.857  0.6458 -0.9074 -0.0535
 1564TIP3    H226108   2.107   0.371   1.821  1.8625  0.5455 -0.9515
 1565TIP3   OH226109   0.709   5.549   5.461 -0.0458  0.0089  0.3098
 1565TIP3    H126110   0.698   5.642   5.476  1.5706  0.5119 -1.2171
 1565TIP3    H226111   0.664   5.532   5.378  2.0292  0.1076 -0.9237
 1566TIP3   OH226112   2.467   6.556   2.582 -0.0455  0.2311 -0.4320
 1566TIP3    H126113   2.397   6.621   2.589  0.6395  0.8628  0.7631
 1566TIP3    H226114   2.548   6.607   2.580  0.4847 -0.5529  0.1646
 1567TIP3   OH226115   1.065   2.801   2.544  0.0886  0.3111 -0.0372
 1567TIP3    H126116   1.041   2.812   2.452  1.2198  1.6654 -0.1987
 1567TIP3    H226117   1.125   2.874   2.562 -0.1305  0.0819  1.7770
 1568TIP3   OH226118   3.491   0.334  14.372  0.8957 -0.0499  0.1329
 1568TIP3    H126119   3.559   0.317  14.438 -0.3121 -1.9927  0.9477
 1568TIP3    H226120   3.451   0.249  14.356  0.9688  0.3742 -2.9966
 1569TIP3   OH226121   1.260   2.894   1.840 -0.3966 -0.2389  0.1767
 1569TIP3    H126122   1.324   2.827   1.865 -1.0100 -1.4742 -1.3452
 1569TIP3    H226123   1.181   2.871   1.889 -1.0834 -1.6369 -1.4905
 1570TIP3   OH226124   5.486   5.165   2.786  0.0045 -0.3258  0.7121
 1570TIP3    H126125   5.493   5.112   2.706  0.3630  1.7060 -0.6575
 1570TIP3    H226126   5.574   5.198   2.801 -0.5481  1.3822  0.4307
 1571TIP3   OH226127   1.059   0.980   0.313 -0.1890 -0.0898  0.6792
 1571TIP3    H126128   1.048   1.041   0.386 -0.3901 -1.3091  1.7150
 1571TIP3    H226129   1.145   0.940   0.328 -0.3488 -0.5413  0.4147
 1572TIP3   OH226130   0.456   3.901  15.758  0.2996  0.1821  0.5168
 1572TIP3    H126131   0.472   3.809  15.739 -0.1443  0.2570 -0.2985
 1572TIP3    H226132   0.526   3.947  15.711 -0.7712  0.3676 -0.9831
 1573TIP3   OH226133   3.982   0.168   4.565  0.3982 -0.1842  0.0382
 1573TIP3    H126134   3.890   0.149   4.545 -0.0876 -0.0203  1.8623
 1573TIP3    H226135   3.978   0.232   4.636  1.9047 -0.7634  0.6976
 1574TIP3   OH226136   5.520   3.172   4.049 -0.1644 -0.1815 -0.0266
 1574TIP3    H126137   5.459   3.106   4.016  0.5397 -1.0217  0.2834
 1574TIP3    H226138   5.587   3.177   3.981 -0.1802  0.1636 -0.0146
 1575TIP3   OH226139   4.880   2.148   5.186  0.0748  0.1766 -0.1363
 1575TIP3    H126140   4.856   2.144   5.093 -0.4889 -0.5889  0.0356
 1575TIP3    H226141   4.863   2.060   5.219  0.7506  0.3037  0.5819
 1576TIP3   OH226142   6.031   2.425   1.988  0.5255  1.0457 -0.1797
 1576TIP3    H126143   6.081   2.382   1.919  0.7819  1.2630 -0.1263
 1576TIP3    H226144   5.951   2.456   1.943 -0.3277 -0.6908  0.0488
 1577TIP3   OH226145   0.812   6.750   2.862  0.3774 -0.2858  0.1523
 1577TIP3    H126146   0.839   6.716   2.947 -0.6414  1.3167  1.1521
 1577TIP3    H226147   0.887   6.801   2.832  0.2769  0.1771  0.6771
 1578TIP3   OH226148   4.843   6.661   3.776 -0.0145 -0.2140  0.2103
 1578TIP3    H126149   4.923   6.651   3.828 -0.6280  1.2938  1.5322
 1578TIP3    H226150   4.815   6.751   3.793  0.7665  1.1143 -4.2418
 1579TIP3   OH226151   2.071   1.145  16.155 -0.1778 -0.6727  0.2390
 1579TIP3    H126152   2.142   1.168  16.095 -0.4022 -2.0161 -0.5763
 1579TIP3    H226153   2.090   1.196  16.234  0.7322  0.2948 -0.5673
 1580TIP3   OH226154   4.529   6.328  17.044  0.7054  0.3188  0.0758
 1580TIP3    H126155   4.549   6.354  16.954  0.9903 -1.3149 -0.3674
 1580TIP3    H226156   4.471   6.252  17.035 -0.3170  0.9088  1.3039
 1581TIP3   OH226157   4.604   4.242   6.092 -0.1814 -0.5788  0.1665
 1581TIP3    H126158   4.557   4.296   6.029  0.0838  0.4106  0.7951
 1581TIP3    H226159   4.659   4.304   6.140 -0.5724 -1.2699  1.5453
 1582TIP3   OH226160   3.152   4.348  11.907 -0.2243  0.7895 -0.8715
 1582TIP3    H126161   3.073   4.338  11.853 -1.9282 -1.7791  1.7733
 1582TIP3    H226162   3.212   4.281  11.875  0.0752  1.3946 -1.5901
 1583TIP3   OH226163   6.720   0.366  16.893  0.0137  0.5086 -0.8169
 1583TIP3    H126164   6.666   0.359  16.972  1.6281 -1.4416  0.2019
 1583TIP3    H226165   6.675   0.431  16.839 -1.0448  2.1336  1.7982
 1584TIP3   OH226166   3.566   1.797  15.445  0.5370 -0.2091  0.5347
 1584TIP3    H126167   3.554   1.853  15.368 -0.1856 -0.6502  0.3204
 1584TIP3    H226168   3.647   1.829  15.485  0.0658  1.0916  0.5023
 1585TIP3   OH226169   1.137   3.931   2.119 -0.4965 -0.1660  0.8430
 1585TIP3    H126170   1.109   3.895   2.203 -0.0752 -2.1532  0.1840
 1585TIP3    H226171   1.134   3.856   2.059 -2.9687  1.6275 -1.4872
 1586TIP3   OH226172   1.925   4.068  13.677 -0.0545  0.1555 -0.0309
 1586TIP3    H126173   1.894   4.119  13.751  0.8260 -1.2154  1.3224
 1586TIP3    H226174   1.845   4.037  13.634 -0.7546 -2.4853  2.8118
 1587TIP3   OH226175   3.200   6.122  12.134 -0.1847 -0.3835 -0.0971
 1587TIP3    H126176   3.122   6.174  12.152  1.7097  2.6968  0.0111
 1587TIP3    H226177   3.229   6.152  12.047  1.5935 -0.4130  0.4522
 1588TIP3   OH226178   2.640   6.674   1.340 -0.2893  0.4820  0.2686
 1588TIP3    H126179   2.610   6.602   1.395 -0.9200  1.4125  1.1828
 1588TIP3    H226180   2.733   6.657   1.326 -0.6165 -0.9658 -0.2671
 1589TIP3   OH226181   0.248   4.011   0.881  0.0545 -0.6548  0.5454
 1589TIP3    H126182   0.320   4.036   0.938  0.3614 -1.7297  0.6434
 1589TIP3    H226183   0.177   3.986   0.941 -1.8164  3.7972  0.6075
 1590TIP3   OH226184   4.440   3.797  14.411  0.6589 -0.1107  0.1751
 1590TIP3    H126185   4.366   3.855  14.430 -1.8750 -2.7132 -1.0615
 1590TIP3    H226186   4.444   3.737  14.485  2.5585  0.8377  0.9169
 1591TIP3   OH226187   4.051   1.316  14.629  0.3993  0.0755 -0.2068
 1591TIP3    H126188   4.005   1.399  14.643 -0.6097 -0.0646 -2.2503
 1591TIP3    H226189   3.982   1.251  14.622  1.0154 -0.4986 -1.2300
 1592TIP3   OH226190   3.002   4.004  14.225  0.6268 -0.2332 -0.1423
 1592TIP3    H126191   3.086   4.044  14.248  1.4899 -2.7202  1.3871
 1592TIP3    H226192   2.968   3.969  14.307 -2.0215  0.7769 -0.7092
 1593TIP3   OH226193   0.668   1.835  14.491 -0.2237 -0.2537  0.0260
 1593TIP3    H126194   0.699   1.921  14.464 -0.5729  0.0114  0.4472
 1593TIP3    H226195   0.620   1.851  14.573 -0.0798 -0.8829  0.2404
 1594TIP3   OH226196   5.096   1.549  15.918 -0.2376  0.0335  0.2719
 1594TIP3    H126197   5.069   1.493  15.845  0.0808 -0.6390  0.6550
 1594TIP3    H226198   5.018   1.556  15.973 -0.0973 -0.5898  0.5607
 1595TIP3   OH226199   1.824   5.933   3.234 -0.0692  0.8532 -0.0619
 1595TIP3    H126200   1.849   5.845   3.205 -1.7177  0.4040 -0.2135
 1595TIP3    H226201   1.806   5.924   3.327 -2.6597  0.4031 -0.5367
 1596TIP3   OH226202   0.734   4.097  13.114 -0.2068  0.4610  0.5581
 1596TIP3    H126203   0.685   4.176  13.090 -0.4778  0.2121  0.2937
 1596TIP3    H226204   0.821   4.110  13.076 -1.2107 -0.8569 -2.4621
 1597TIP3   OH226205   0.595   2.744  15.714 -0.0248 -0.0298  0.4337
 1597TIP3    H126206   0.521   2.796  15.744 -0.6114 -0.3563 -0.4190
 1597TIP3    H226207   0.568   2.710  15.629  0.5676 -1.2812  0.7318
 1598TIP3   OH226208   1.660   6.239  15.802 -0.4290  0.5508  0.5238
 1598TIP3    H126209   1.583   6.184  15.817  0.3575 -1.0806 -1.0509
 1598TIP3    H226210   1.717   6.186  15.747  0.9268  2.5172 -0.0748
 1599TIP3   OH226211   6.010   2.636   3.805  0.3527 -0.0058 -0.4361
 1599TIP3    H126212   6.012   2.585   3.886  0.2099  0.7237  0.0273
 1599TIP3    H226213   6.052   2.579   3.740  0.8723 -0.4087  0.2480
 1600TIP3   OH226214   4.307   1.816  11.526  0.1602 -0.4129  0.5703
 1600TIP3    H126215   4.339   1.842  11.439 -0.6705  1.4202  0.7672
 1600TIP3    H226216   4.213   1.836  11.523 -0.0565 -1.2529  1.5737
 1601TIP3   OH226217   2.914   2.973   3.377 -0.7632  0.6184  0.2753
 1601TIP3    H126218   2.865   2.971   3.295 -2.5165  1.5373  1.2315
 1601TIP3    H226219   2.983   2.908   3.366 -0.5026  1.2100 -2.1765
 1602TIP3   OH226220   0.049   1.553  12.438 -0.3651  0.3105  0.3634
 1602TIP3    H126221   0.101   1.527  12.514 -0.5501 -2.4750 -0.3379
 1602TIP3    H226222   0.076   1.492  12.369 -3.7088 -0.5648 -0.3578
 1603TIP3   OH226223   5.936   4.010   1.815 -0.6704 -0.1404 -0.2240
 1603TIP3    H126224   5.864   3.957   1.780 -1.6906  1.7161 -1.0958
 1603TIP3    H226225   5.896   4.062   1.885 -0.1875  0.8432 -0.6539
 1604TIP3   OH226226   0.483   1.233   5.240  0.1419  0.2499  0.8376
 1604TIP3    H126227   0.401   1.198   5.203  0.4536  1.1962 -0.8311
 1604TIP3    H226228   0.547   1.222   5.171  1.0912  0.8638  1.5981
 1605TIP3   OH226229   0.778   3.478   2.989  0.3792  0.2888  0.2342
 1605TIP3    H126230   0.718   3.458   3.060 -1.7775  0.0440 -1.5375
 1605TIP3    H226231   0.847   3.412   2.996 -0.8319 -0.9509  0.9509
 1606TIP3   OH226232   3.535   0.862   3.227 -0.7505  0.0495 -0.3074
 1606TIP3    H126233   3.622   0.900   3.238 -1.0606  1.3619 -1.8668
 1606TIP3    H226234   3.549   0.786   3.170 -0.3549 -1.1992  1.3896
 1607TIP3   OH226235   2.290   3.724   3.801  0.4028  0.1522  0.3865
 1607TIP3    H126236   2.240   3.724   3.882  2.9933 -0.2433  2.1183
 1607TIP3    H226237   2.320   3.815   3.791 -0.5068  0.3629 -0.5601
 1608TIP3   OH226238   2.586   2.134   5.960  0.0900  0.6436 -0.4644
 1608TIP3    H126239   2.556   2.069   6.024 -1.8022 -0.2464 -2.1568
 1608TIP3    H226240   2.681   2.127   5.962  0.0269 -0.2975  1.2861
 1609TIP3   OH226241   6.299   1.144   4.405  0.4151 -0.2547 -0.2536
 1609TIP3    H126242   6.299   1.238   4.426 -0.0750 -0.5151  1.0219
 1609TIP3    H226243   6.324   1.102   4.487 -0.2567 -1.2963 -0.5734
 1610TIP3   OH226244   5.787   1.082  15.715 -0.5881  0.5146  0.0337
 1610TIP3    H126245   5.747   1.151  15.663 -1.0049  0.0522 -0.2603
 1610TIP3    H226246   5.812   1.125  15.797 -0.6073  1.0695 -0.2518
 1611TIP3   OH226247   1.597   4.071  14.971  0.5149 -0.3493  0.3358
 1611TIP3    H126248   1.576   4.027  15.053 -2.3923 -1.3425 -0.8180
 1611TIP3    H226249   1.513   4.084  14.928  1.7577  1.8892 -1.6561
 1612TIP3   OH226250   5.331   6.473   5.897  0.6436  0.0110  0.3581
 1612TIP3    H126251   5.301   6.456   5.807  1.1924  1.0185 -0.0377
 1612TIP3    H226252   5.260   6.524   5.936  1.6121  2.1231 -0.4788
 1613TIP3   OH226253   1.815   2.575   0.443 -0.1334  0.0444 -0.3862
 1613TIP3    H126254   1.733   2.604   0.403 -0.1893 -0.3456 -0.5625
 1613TIP3    H226255   1.879   2.642   0.418 -0.4303  0.4317 -0.1157
 1614TIP3   OH226256   1.911   6.732   5.986  0.3784 -0.3198 -0.3886
 1614TIP3    H126257   1.892   6.767   6.073 -1.3862  0.6877 -1.1231
 1614TIP3    H226258   1.825   6.713   5.949  1.1093 -0.8657 -1.8608
 1615TIP3   OH226259   6.675   6.102  15.667  0.0826  0.0046 -0.2316
 1615TIP3    H126260   6.599   6.062  15.709 -0.1416  0.3914 -0.2640
 1615TIP3    H226261   6.654   6.196  15.663  0.4705  0.0860 -0.4287
 1616TIP3   OH226262   5.509   1.607  15.605  0.4758 -0.3509  0.2729
 1616TIP3    H126263   5.466   1.583  15.523  2.2143 -0.6548 -0.5736
 1616TIP3    H226264   5.466   1.688  15.631 -3.1135 -2.3434  1.3670
 1617TIP3   OH226265   2.500   1.208   5.612 -0.3689 -0.7154 -0.1755
 1617TIP3    H126266   2.440   1.275   5.578  2.1266 -0.0986 -3.9711
 1617TIP3    H226267   2.555   1.255   5.675 -2.4587 -0.8538  1.9063
 1618TIP3   OH226268   1.323   5.670  11.577 -0.3212 -0.4993 -0.0109
 1618TIP3    H126269   1.401   5.725  11.576 -1.0924  0.6904  0.9736
 1618TIP3    H226270   1.336   5.611  11.651 -0.1301 -0.6440 -0.1609
 1619TIP3   OH226271   1.941   4.776  15.223 -0.2894 -0.1950  0.3521
 1619TIP3    H126272   1.897   4.755  15.141  0.9173  0.5866 -0.5443
 1619TIP3    H226273   2.029   4.740  15.212  0.4395  1.4507  0.5485
 1620TIP3   OH226274   5.195   0.941  12.937  0.9221 -0.1876 -0.4070
 1620TIP3    H126275   5.216   0.855  12.973  2.2662  0.3834  0.2768
 1620TIP3    H226276   5.218   0.935  12.844 -0.0377 -0.8837 -0.6023
 1621TIP3   OH226277   1.787   0.647   3.255 -0.0622 -0.5337  0.0438
 1621TIP3    H126278   1.755   0.584   3.319 -0.2838  0.6137  1.1173
 1621TIP3    H226279   1.710   0.699   3.232 -0.2548 -1.6795 -2.1125
 1622TIP3   OH226280   5.102   2.734   4.547 -0.0809 -0.0628  0.1029
 1622TIP3    H126281   5.100   2.774   4.460 -1.5502 -0.4619 -0.0630
 1622TIP3    H226282   5.054   2.795   4.603  0.4756 -0.0286  0.5623
 1623TIP3   OH226283   4.502   1.912  15.661 -0.1166 -0.0856 -0.1652
 1623TIP3    H126284   4.450   1.908  15.580 -1.9177  1.0364  0.8612
 1623TIP3    H226285   4.514   2.005  15.677  0.1777 -0.2976  0.8810
 1624TIP3   OH226286   6.655   2.185   4.301  0.3086  0.1985  0.1654
 1624TIP3    H126287   6.691   2.266   4.336  0.8942 -0.2834  0.6818
 1624TIP3    H226288   6.617   2.140   4.376 -1.0055  0.4863 -0.2902
 1625TIP3   OH226289   1.223   2.611   5.069  0.1837 -0.4024 -0.4189
 1625TIP3    H126290   1.153   2.581   5.011 -0.2923 -2.4123  1.0826
 1625TIP3    H226291   1.289   2.542   5.064  0.4671 -0.2362  0.8558
 1626TIP3   OH226292   3.023   4.829   1.413  0.2147  0.2578 -0.2314
 1626TIP3    H126293   3.039   4.886   1.338 -0.3118  0.0149 -0.5415
 1626TIP3    H226294   3.039   4.741   1.380  0.8984  0.2152  0.2072
 1627TIP3   OH226295   5.153   2.798  11.639 -0.2166  0.6601  0.1886
 1627TIP3    H126296   5.150   2.736  11.566  1.4574  0.2863  0.4123
 1627TIP3    H226297   5.233   2.848  11.626  0.5487  0.0614  2.1738
 1628TIP3   OH226298   4.470   4.598  14.775  0.3986 -0.4970 -0.2738
 1628TIP3    H126299   4.473   4.644  14.691 -0.9304 -0.8428 -0.5445
 1628TIP3    H226300   4.539   4.531  14.767  0.1157 -0.7035 -1.2101
 1629TIP3   OH226301   5.990   1.716   2.177 -0.2451 -0.2939 -0.4619
 1629TIP3    H126302   6.024   1.627   2.191  0.6960 -0.0445 -1.0290
 1629TIP3    H226303   5.939   1.735   2.256 -0.0628 -1.1574 -0.1205
 1630TIP3   OH226304   2.556   5.584   3.376 -0.1546  0.1339  0.3517
 1630TIP3    H126305   2.650   5.577   3.361 -0.2023  0.6135 -0.1727
 1630TIP3    H226306   2.536   5.675   3.360 -1.1429 -0.4398 -1.9781
 1631TIP3   OH226307   0.444   4.239   5.891  0.2702  0.1973  0.1941
 1631TIP3    H126308   0.495   4.260   5.812 -0.5010  1.1945 -0.0654
 1631TIP3    H226309   0.490   4.282   5.962  1.0943 -0.8903  0.3444
 1632TIP3   OH226310   4.544   5.623  16.123 -0.4486 -0.7141  0.4319
 1632TIP3    H126311   4.516   5.532  16.124 -1.4446 -0.4355  1.9724
 1632TIP3    H226312   4.635   5.621  16.151 -1.1318 -1.1070  2.8323
 1633TIP3   OH226313   4.214   5.450   0.131 -0.1218  0.0797 -0.3065
 1633TIP3    H126314   4.215   5.466   0.226 -1.5156  0.4683 -0.3351
 1633TIP3    H226315   4.301   5.477   0.101  0.4752 -0.4144  0.9093
 1634TIP3   OH226316   4.212   6.630  10.638  0.6174  0.1552  0.1750
 1634TIP3    H126317   4.177   6.713  10.668  1.1076  0.3556  0.2138
 1634TIP3    H226318   4.227   6.579  10.718 -1.5178 -0.7540  0.0570
 1635TIP3   OH226319   1.346   1.334   2.114  0.7052  0.3301  0.1557
 1635TIP3    H126320   1.260   1.343   2.154 -0.5210 -3.1264 -1.3069
 1635TIP3    H226321   1.348   1.400   2.045 -1.9551 -1.0874 -1.4392
 1636TIP3   OH226322   3.477   5.226  12.286  0.0383  0.0592  0.3805
 1636TIP3    H126323   3.515   5.166  12.351  1.8173  0.6870 -0.0249
 1636TIP3    H226324   3.416   5.171  12.237 -1.5579 -0.3925  2.6756
 1637TIP3   OH226325   5.052   0.455  13.932 -0.0722 -0.2970 -0.4873
 1637TIP3    H126326   5.073   0.468  13.840 -0.8841 -0.5453 -0.7089
 1637TIP3    H226327   5.099   0.374  13.956 -0.4444 -0.6306 -0.8761
 1638TIP3   OH226328   2.034   2.404   5.788  0.0067  0.1589  0.2354
 1638TIP3    H126329   2.042   2.360   5.872 -1.1851  0.2748  0.4255
 1638TIP3    H226330   2.016   2.334   5.726 -0.5793  0.2283  0.3233
 1639TIP3   OH226331   2.163   0.854  10.426 -0.0411 -0.5203  0.0976
 1639TIP3    H126332   2.257   0.843  10.437  0.0045  0.7787  1.3003
 1639TIP3    H226333   2.139   0.793  10.356  1.8197 -0.2530 -0.8173
 1640TIP3   OH226334   3.567   2.478   3.360 -0.1153  0.5769 -0.5768
 1640TIP3    H126335   3.639   2.517   3.309  1.0171 -0.6760  0.0020
 1640TIP3    H226336   3.562   2.532   3.439  1.0376 -0.0541 -0.0553
 1641TIP3   OH226337   5.633   2.826  13.280  0.9979 -0.3631 -0.1400
 1641TIP3    H126338   5.537   2.832  13.287  0.9619 -2.2903  1.9613
 1641TIP3    H226339   5.657   2.905  13.232 -1.6882 -0.1459 -1.3371
 1642TIP3   OH226340   0.818   4.121   4.047  0.6515 -0.3885 -0.7779
 1642TIP3    H126341   0.799   4.098   4.137 -2.2188 -1.1053 -1.4699
 1642TIP3    H226342   0.816   4.038   4.000  0.4881  0.1479 -1.7536
 1643TIP3   OH226343   4.029   0.501  16.885 -0.0581  0.0285 -0.0590
 1643TIP3    H126344   4.116   0.466  16.866  0.4186  1.2439 -0.1993
 1643TIP3    H226345   4.042   0.595  16.893 -1.1679  0.1156  1.0763
 1644TIP3   OH226346   3.663   2.606  14.571 -0.2939 -0.0094 -0.4421
 1644TIP3    H126347   3.739   2.619  14.515  1.2481  0.3422  1.6238
 1644TIP3    H226348   3.599   2.563  14.514  1.0378  0.6024 -2.5305
 1645TIP3   OH226349   3.794   3.317  15.484  0.0794  0.4883 -0.0550
 1645TIP3    H126350   3.837   3.265  15.552 -0.4814 -1.7267 -1.3032
 1645TIP3    H226351   3.859   3.384  15.462  0.9191  0.2480  1.5052
 1646TIP3   OH226352   4.004   2.361  11.260  0.2351 -0.1978 -0.0976
 1646TIP3    H126353   3.996   2.277  11.215 -0.1829  0.2101 -0.7973
 1646TIP3    H226354   3.920   2.372  11.305  0.3541 -0.2342  0.1339
 1647TIP3   OH226355   4.146   1.916  10.968 -0.2484 -0.0717 -0.4153
 1647TIP3    H126356   4.231   1.954  10.989 -1.2728  2.0261  0.2435
 1647TIP3    H226357   4.154   1.887  10.877  0.1933  3.2655 -1.5779
 1648TIP3   OH226358   4.368   0.132   3.247  0.3292  0.0416  0.8191
 1648TIP3    H126359   4.448   0.147   3.196  0.7146 -0.8267  1.1547
 1648TIP3    H226360   4.321   0.215   3.243  0.8818  0.3264 -0.0289
 1649TIP3   OH226361   0.326   0.603   4.296 -0.6419 -0.1768  0.4791
 1649TIP3    H126362   0.277   0.587   4.376 -0.1415  0.3806  0.9160
 1649TIP3    H226363   0.313   0.697   4.278 -0.8210 -0.3133 -0.1423
 1650TIP3   OH226364   1.602   4.721  16.338 -0.0294 -0.0232 -0.2443
 1650TIP3    H126365   1.610   4.815  16.324 -1.5939  0.4571  1.5839
 1650TIP3    H226366   1.567   4.686  16.256  0.7898  0.9321 -1.0194
 1651TIP3   OH226367   4.712   3.339   1.354  0.5608  0.3019 -0.3133
 1651TIP3    H126368   4.626   3.338   1.394  0.1857  0.7386 -1.0747
 1651TIP3    H226369   4.731   3.248   1.334  0.3408  0.1887 -0.0137
 1652TIP3   OH226370   6.389   3.612   0.667 -0.3977 -0.2914 -0.1961
 1652TIP3    H126371   6.482   3.638   0.668  0.2028 -2.2295  1.1330
 1652TIP3    H226372   6.369   3.594   0.759 -1.8791 -0.6236 -0.5662
 1653TIP3   OH226373   5.839   4.953  11.373 -0.0695 -0.4409  0.0725
 1653TIP3    H126374   5.864   4.964  11.281 -0.0013 -0.6019  0.0725
 1653TIP3    H226375   5.817   5.042  11.402  1.2997 -0.1636  0.3136
 1654TIP3   OH226376   0.532   0.250   0.899 -0.7585  0.0126 -0.2252
 1654TIP3    H126377   0.542   0.344   0.891  0.1224 -0.1229 -0.8349
 1654TIP3    H226378   0.619   0.215   0.882 -1.0314 -0.9036  0.1898
 1655TIP3   OH226379   0.370   3.176  13.262 -0.2853 -0.0695 -0.0158
 1655TIP3    H126380   0.449   3.216  13.298 -0.3725  1.3343 -1.2579
 1655TIP3    H226381   0.401   3.112  13.199 -0.0818  1.0134 -1.0644
 1656TIP3   OH226382   3.023   0.409   6.568  0.3440  0.3204  0.3119
 1656TIP3    H126383   3.089   0.467   6.604  0.1163  0.1703  0.9793
 1656TIP3    H226384   3.005   0.445   6.481  0.5890  0.9357  0.5107
 1657TIP3   OH226385   5.932   5.469   2.838 -0.0870  0.4414 -0.0956
 1657TIP3    H126386   6.024   5.487   2.860  0.7823 -0.7144 -2.4610
 1657TIP3    H226387   5.907   5.397   2.895  0.0939  1.4423  1.3017
 1658TIP3   OH226388   1.564   3.648   4.770  0.2816  0.1790 -0.6126
 1658TIP3    H126389   1.536   3.566   4.729  0.6278 -0.0128 -0.4633
 1658TIP3    H226390   1.563   3.712   4.699  1.3051 -0.2491 -1.0266
 1659TIP3   OH226391   3.867   4.237  10.747 -0.5066  0.3259  0.1472
 1659TIP3    H126392   3.826   4.302  10.691  0.1961  1.3022  0.7461
 1659TIP3    H226393   3.916   4.287  10.812  0.4132 -0.7958  0.3657
 1660TIP3   OH226394   4.874   0.798   5.354  0.1997 -0.2189  0.3124
 1660TIP3    H126395   4.918   0.860   5.410 -1.6601  0.6738  0.8765
 1660TIP3    H226396   4.782   0.800   5.383 -0.6220 -0.5204 -2.0346
 1661TIP3   OH226397   2.925   2.960  10.752 -0.6268  0.2174 -0.2569
 1661TIP3    H126398   2.954   3.044  10.788 -1.2634 -0.0122  0.8124
 1661TIP3    H226399   2.876   2.985  10.673 -1.4331  0.9254  0.4393
 1662TIP3   OH226400   6.708   3.200   3.648  0.0628 -0.2948  0.6061
 1662TIP3    H126401   6.662   3.228   3.569  0.9293  0.1456  0.2505
 1662TIP3    H226402   6.796   3.236   3.639  0.4748 -1.1035  1.2894
 1663TIP3   OH226403   5.979   3.314  12.929 -0.4721 -0.4346  0.1133
 1663TIP3    H126404   5.984   3.384  12.865  1.7159 -0.1214  0.5669
 1663TIP3    H226405   5.939   3.354  13.006 -0.7598 -0.1443 -0.1845
 1664TIP3   OH226406   0.040   2.495   0.307 -0.4711  0.1019 -0.4942
 1664TIP3    H126407   0.026   2.432   0.377  0.5877 -0.2576 -0.5986
 1664TIP3    H226408  -0.048   2.527   0.286 -0.8711 -0.3247  0.4866
 1665TIP3   OH226409   3.462   6.575   4.764 -0.5340  0.0076 -0.3976
 1665TIP3    H126410   3.466   6.568   4.860  0.7149  2.2327 -0.2408
 1665TIP3    H226411   3.552   6.589   4.737 -1.1210  1.5710 -1.6917
 1666TIP3   OH226412   5.991   5.637   5.534  0.0703  0.1183 -0.1174
 1666TIP3    H126413   6.030   5.692   5.466  0.7802  0.0832  0.2568
 1666TIP3    H226414   5.943   5.570   5.486  1.4667 -0.5632 -0.6160
 1667TIP3   OH226415   1.883   6.239  14.290 -0.5633  0.0817 -0.4595
 1667TIP3    H126416   1.962   6.186  14.298 -0.3090  0.5947  0.6537
 1667TIP3    H226417   1.868   6.273  14.379 -1.3470  0.9577 -0.9101
 1668TIP3   OH226418   3.033   3.796   2.846 -0.0258 -0.0429  0.9781
 1668TIP3    H126419   3.109   3.776   2.791 -0.1191  0.7136  0.5689
 1668TIP3    H226420   2.957   3.780   2.789 -0.1989 -1.0643  1.4685
 1669TIP3   OH226421   6.400   6.002   1.988  0.0018  0.1661  0.4893
 1669TIP3    H126422   6.386   6.050   2.070 -1.8857  1.6980 -0.6382
 1669TIP3    H226423   6.343   6.046   1.925  1.1460 -1.1679 -1.5884
 1670TIP3   OH226424   5.731   4.244  16.845  0.2294  0.3831  0.0439
 1670TIP3    H126425   5.820   4.264  16.874  2.2004 -2.1549 -3.4910
 1670TIP3    H226426   5.713   4.311  16.778  0.4694 -0.4102 -0.8335
 1671TIP3   OH226427   1.313   1.907  13.219 -0.1434  0.1992  0.4141
 1671TIP3    H126428   1.246   1.918  13.286 -0.0030 -0.0701  0.5967
 1671TIP3    H226429   1.360   1.991  13.219  1.6888 -0.7387  2.6442
 1672TIP3   OH226430   0.686   5.997  15.279  0.0965  0.3339 -0.1951
 1672TIP3    H126431   0.597   6.011  15.310  0.2646  1.7218 -0.2852
 1672TIP3    H226432   0.676   5.956  15.193 -0.4523  0.6396 -0.2771
 1673TIP3   OH226433   2.243   1.811   0.438 -0.6977 -0.0222 -0.4617
 1673TIP3    H126434   2.303   1.736   0.437  0.8699  1.1180  1.0277
 1673TIP3    H226435   2.161   1.776   0.404 -0.0099 -2.3864  0.0820
 1674TIP3   OH226436   0.911   5.146   1.235 -0.2814  0.0178 -0.2700
 1674TIP3    H126437   0.977   5.139   1.303 -1.3175  1.4943  0.9738
 1674TIP3    H226438   0.884   5.056   1.216  0.9624 -0.4859  0.3121
 1675TIP3   OH226439   1.489   1.171  11.298  0.5449 -0.1742  0.2933
 1675TIP3    H126440   1.485   1.191  11.391 -0.5477  1.4060 -0.0427
 1675TIP3    H226441   1.492   1.257  11.255 -0.3516 -0.8309 -1.1704
 1676TIP3   OH226442   6.441   6.076  12.044 -0.2407 -0.5283  0.4916
 1676TIP3    H126443   6.534   6.093  12.055 -0.2671 -0.4614  0.6071
 1676TIP3    H226444   6.400   6.108  12.124 -0.4392 -0.0001  0.1805
 1677TIP3   OH226445   6.658   4.687   5.349  0.4395 -0.3657  0.3783
 1677TIP3    H126446   6.633   4.654   5.262  0.6126  1.7185 -0.5171
 1677TIP3    H226447   6.599   4.761   5.364 -0.0914 -1.1430  2.4156
 1678TIP3   OH226448   6.127   3.887  11.247  0.1272 -0.1826  0.6515
 1678TIP3    H126449   6.213   3.860  11.279  0.2677  0.5027  0.8579
 1678TIP3    H226450   6.144   3.962  11.190 -0.0424 -1.7593 -1.6426
 1679TIP3   OH226451   3.409   4.779  16.103 -0.0305  0.1904  0.2220
 1679TIP3    H126452   3.326   4.765  16.057  1.8424 -1.0006 -3.1504
 1679TIP3    H226453   3.446   4.692  16.113  1.9494  0.8594 -0.7528
 1680TIP3   OH226454   3.683   0.473   3.817  0.1621  0.1243  0.0666
 1680TIP3    H126455   3.743   0.495   3.746  0.6677 -1.3117  0.0224
 1680TIP3    H226456   3.738   0.475   3.896  0.0459 -0.2504  0.1564
 1681TIP3   OH226457   1.355   0.135   4.668 -0.7718 -0.2252  0.2168
 1681TIP3    H126458   1.335   0.203   4.604  0.7719 -0.8861 -1.0553
 1681TIP3    H226459   1.292   0.066   4.650 -0.0845 -0.5885 -0.9465
 1682TIP3   OH226460   4.345   2.892  12.652 -0.0602  0.4299  0.5297
 1682TIP3    H126461   4.295   2.818  12.619  1.2508  0.6918 -2.3802
 1682TIP3    H226462   4.337   2.959  12.583  1.0063  1.9694  1.8138
 1683TIP3   OH226463   4.965   3.937   5.131  0.1239  0.1263  0.0484
 1683TIP3    H126464   4.970   3.868   5.197  3.3596 -1.4888 -1.6072
 1683TIP3    H226465   5.050   3.982   5.136 -0.5912  1.7461 -1.1961
 1684TIP3   OH226466   4.655   4.751   6.513  0.3897  0.2413  0.2264
 1684TIP3    H126467   4.606   4.787   6.439 -0.8134  0.9301  1.3033
 1684TIP3    H226468   4.600   4.681   6.547  1.1644 -0.4040  0.1688
 1685TIP3   OH226469   2.489   2.587   1.136 -0.3604 -0.2254  0.2645
 1685TIP3    H126470   2.497   2.492   1.142 -0.1708 -0.3046 -1.0257
 1685TIP3    H226471   2.561   2.620   1.190 -2.2069 -0.7106  3.3110
 1686TIP3   OH226472   1.896   5.335  13.211 -0.4208 -0.3266 -0.3241
 1686TIP3    H126473   1.922   5.262  13.154 -0.6822 -0.1149 -0.7257
 1686TIP3    H226474   1.815   5.305  13.252 -1.6951  0.5120 -2.0828
 1687TIP3   OH226475   5.212   4.647   1.212  0.1583 -0.6723  0.2245
 1687TIP3    H126476   5.165   4.694   1.281 -0.4581  0.3119 -0.8164
 1687TIP3    H226477   5.183   4.689   1.131  1.0518 -1.6244 -0.6211
 1688TIP3   OH226478   2.220   3.428   0.836  0.4143  0.1024 -0.1481
 1688TIP3    H126479   2.215   3.448   0.742  0.6646 -0.3601 -0.2636
 1688TIP3    H226480   2.313   3.435   0.857  0.3494  0.2731  0.0818
 1689TIP3   OH226481   0.400   6.368   4.259  0.0052 -0.5979  0.4971
 1689TIP3    H126482   0.423   6.412   4.341 -0.1871 -0.0899  0.2855
 1689TIP3    H226483   0.351   6.434   4.210 -0.7557 -1.2350  0.3867
 1690TIP3   OH226484   6.244   1.723   6.393 -0.0205  0.0235 -0.4758
 1690TIP3    H126485   6.293   1.751   6.471 -1.4112  1.1549  0.0405
 1690TIP3    H226486   6.182   1.794   6.377 -2.5865 -1.9942 -0.1516
 1691TIP3   OH226487   1.867   1.603  13.442 -0.4068  0.2222 -0.0133
 1691TIP3    H126488   1.775   1.583  13.424 -0.5282  1.3232 -0.7234
 1691TIP3    H226489   1.864   1.664  13.516 -0.2496  0.2370 -0.0179
 1692TIP3   OH226490   5.209   1.855  14.991 -0.3393 -0.1600 -0.1790
 1692TIP3    H126491   5.295   1.887  15.016 -0.5967 -0.5706  1.3941
 1692TIP3    H226492   5.202   1.770  15.035 -1.1793 -0.5658 -1.0615
 1693TIP3   OH226493   3.500   0.580  14.459 -0.0084 -0.5324 -0.1850
 1693TIP3    H126494   3.530   0.636  14.388 -0.2576 -0.0742  0.0710
 1693TIP3    H226495   3.484   0.495  14.417  0.7449 -0.5309 -0.4957
 1694TIP3   OH226496   4.982   2.664   1.227  1.0188 -0.5063 -0.2413
 1694TIP3    H126497   4.922   2.595   1.198  1.4096 -1.0256  0.1668
 1694TIP3    H226498   4.928   2.722   1.281 -0.0661  1.2314 -2.9646
 1695TIP3   OH226499   5.729   3.707  17.044  0.5529  0.2762  0.5328
 1695TIP3    H126500   5.675   3.681  17.119 -1.2511  0.3637 -0.6496
 1695TIP3    H226501   5.762   3.793  17.067 -1.2653  0.9916  0.6494
 1696TIP3   OH226502   6.395   1.100   5.966 -0.8093 -0.2896  0.0627
 1696TIP3    H126503   6.428   1.043   6.036 -1.3311 -0.9146 -0.1884
 1696TIP3    H226504   6.449   1.179   5.972 -2.5121  0.8475  2.9048
 1697TIP3   OH226505   1.247   1.853   1.674 -0.3151  0.0157 -0.4806
 1697TIP3    H126506   1.233   1.948   1.679  0.7775  0.2086 -0.9285
 1697TIP3    H226507   1.241   1.823   1.765 -0.1859  0.5881 -0.2784
 1698TIP3   OH226508   3.010   5.055  17.209  0.1873 -0.3184  0.6613
 1698TIP3    H126509   2.971   5.083  17.292  0.6585  0.3546  0.6682
 1698TIP3    H226510   3.042   4.966  17.226  0.3511 -0.1568  1.2308
 1699TIP3   OH226511   5.120   1.843  14.441 -0.1966 -0.1271 -0.0926
 1699TIP3    H126512   5.058   1.790  14.391  0.5014 -0.5632 -0.5264
 1699TIP3    H226513   5.071   1.873  14.517 -0.7190 -1.1093 -0.0237
 1700TIP3   OH226514   1.618   2.879   1.791  1.1269 -0.1565 -0.9045
 1700TIP3    H126515   1.556   2.842   1.854  0.8453  1.6067 -0.0807
 1700TIP3    H226516   1.699   2.890   1.841  1.2763  0.1094 -1.2038
 1701TIP3   OH226517   1.803   6.087   2.717 -0.5616 -0.4624  0.3251
 1701TIP3    H126518   1.888   6.103   2.675 -0.3242 -1.5294  0.3724
 1701TIP3    H226519   1.766   6.175   2.729  1.1656  0.1619  1.6446
 1702TIP3   OH226520   0.879   0.858   4.058 -0.0628 -0.1406  0.2083
 1702TIP3    H126521   0.954   0.842   4.000 -1.3829 -1.8253 -1.1405
 1702TIP3    H226522   0.856   0.950   4.043  2.0943  0.6232  1.1625
 1703TIP3   OH226523   2.832   4.902  13.356 -0.2428  0.0285  0.0437
 1703TIP3    H126524   2.886   4.942  13.288  1.4087 -1.1966  0.5649
 1703TIP3    H226525   2.895   4.873  13.422 -1.6140 -0.8608  1.0057
 1704TIP3   OH226526   4.474   2.932   2.825 -0.1225  0.1833 -0.3589
 1704TIP3    H126527   4.552   2.962   2.873  1.5456 -0.1826 -2.6842
 1704TIP3    H226528   4.422   2.886   2.891  2.2836 -0.7229  1.0198
 1705TIP3   OH226529   2.311   5.754  10.544  0.1427 -0.5806 -0.4462
 1705TIP3    H126530   2.238   5.757  10.482 -1.7762  0.9250  1.7276
 1705TIP3    H226531   2.278   5.702  10.617  1.1044  0.4070  0.7315
 1706TIP3   OH226532   5.293   2.222  15.085  0.1061  0.1122 -0.0641
 1706TIP3    H126533   5.226   2.201  15.150  0.2836 -2.4568 -0.6023
 1706TIP3    H226534   5.244   2.257  15.010 -0.5414 -0.7506 -0.0595
 1707TIP3   OH226535   3.261   6.287   4.748 -0.4100 -0.8100 -0.4083
 1707TIP3    H126536   3.334   6.231   4.722  1.2141  0.4373  1.2365
 1707TIP3    H226537   3.268   6.364   4.692 -0.1002 -0.4433  0.1245
 1708TIP3   OH226538   2.864   0.928  16.530  0.2985  0.1869  0.3201
 1708TIP3    H126539   2.874   0.941  16.625 -0.9646  0.4973  0.4319
 1708TIP3    H226540   2.896   1.010  16.492  1.1114 -0.0643  0.4543
 1709TIP3   OH226541   5.986   0.824  13.221  0.0751  0.3875  0.3434
 1709TIP3    H126542   5.961   0.874  13.299  1.9862  0.1544  1.1535
 1709TIP3    H226543   6.036   0.750  13.256  0.4495 -0.0495 -1.0796
 1710TIP3   OH226544   0.434   5.372  16.130  0.1642  0.1919  0.7064
 1710TIP3    H126545   0.421   5.362  16.224 -1.3139  0.3902  0.5593
 1710TIP3    H226546   0.404   5.289  16.093  2.0055 -0.4020  0.4762
 1711TIP3   OH226547   2.553   6.270   2.798  0.4594 -0.2188  0.1965
 1711TIP3    H126548   2.581   6.256   2.707 -2.0943  1.7205 -1.0323
 1711TIP3    H226549   2.513   6.187   2.824  0.5914 -0.5890 -0.7227
 1712TIP3   OH226550   1.570   4.713  11.931 -0.0050  0.0296 -0.4392
 1712TIP3    H126551   1.644   4.723  11.871  1.0066 -1.2414  0.5444
 1712TIP3    H226552   1.522   4.638  11.896 -0.9856  0.9739 -1.1897
 1713TIP3   OH226553   2.759   6.226  13.629  0.0521 -0.4369  0.1621
 1713TIP3    H126554   2.854   6.221  13.626  0.1024 -0.7012  1.7077
 1713TIP3    H226555   2.740   6.280  13.706 -1.0674 -1.5255  0.6844
 1714TIP3   OH226556   2.420   1.185   2.599 -0.2080 -0.2570  0.0748
 1714TIP3    H126557   2.447   1.271   2.568  1.0580 -1.3946 -2.2213
 1714TIP3    H226558   2.443   1.185   2.692  1.1749  1.3489 -0.2134
 1715TIP3   OH226559   1.325   1.467   3.064  0.8099 -0.4558  0.0376
 1715TIP3    H126560   1.420   1.480   3.059  0.9818 -1.9195 -2.7247
 1715TIP3    H226561   1.315   1.373   3.081 -0.0993 -0.5524 -0.9423
 1716TIP3   OH226562   3.789   5.168  16.071 -0.4476 -0.3514 -0.1085
 1716TIP3    H126563   3.864   5.189  16.126  0.2391 -0.5103 -0.9553
 1716TIP3    H226564   3.713   5.192  16.123  0.2180  1.9699 -0.0806
 1717TIP3   OH226565   0.522   1.472   0.110  0.7218  0.8568  0.2536
 1717TIP3    H126566   0.608   1.431   0.118  1.0958  1.3282 -1.0058
 1717TIP3    H226567   0.541   1.559   0.074 -0.3030  0.8727 -0.2694
 1718TIP3   OH226568   4.309   4.175  11.312  0.6956  0.0921  0.2265
 1718TIP3    H126569   4.238   4.176  11.248  0.4831  3.0907  0.3961
 1718TIP3    H226570   4.388   4.191  11.260  0.7829  0.4441  0.4669
 1719TIP3   OH226571   2.570   6.174   5.552  0.7188  0.2984  0.0811
 1719TIP3    H126572   2.658   6.207   5.568  0.1651  1.7788  0.2500
 1719TIP3    H226573   2.562   6.172   5.456  0.6217  1.0915  0.0661
 1720TIP3   OH226574   0.862   1.688  14.368  0.2420 -0.0078  0.2928
 1720TIP3    H126575   0.858   1.638  14.449  0.3412  0.4090  0.5535
 1720TIP3    H226576   0.791   1.752  14.375  1.7008  1.5970  1.0958
 1721TIP3   OH226577   0.093   4.838  12.421 -0.4432 -0.7362 -0.5621
 1721TIP3    H126578   0.154   4.767  12.398 -0.4755 -0.9409 -0.0328
 1721TIP3    H226579   0.128   4.874  12.502 -0.6804 -0.4388 -0.5901
 1722TIP3   OH226580   1.825   2.346   4.644 -0.7437  0.7041 -0.0157
 1722TIP3    H126581   1.785   2.418   4.694 -0.6361 -0.2003  1.4533
 1722TIP3    H226582   1.762   2.326   4.575 -0.1335  3.1283 -1.3701
 1723TIP3   OH226583   0.074   2.821  16.826  0.8679  0.3760 -0.4193
 1723TIP3    H126584   0.073   2.791  16.916  1.2726  0.8727 -0.2444
 1723TIP3    H226585  -0.003   2.781  16.786 -0.5447  1.8318  0.7106
 1724TIP3   OH226586   0.349   0.891   4.394  0.4078  0.0803 -0.0446
 1724TIP3    H126587   0.270   0.903   4.343  0.3352 -0.6776 -0.1158
 1724TIP3    H226588   0.325   0.921   4.482  0.5877  1.5534 -0.4632
 1725TIP3   OH226589   2.617   1.219  12.941  0.3451  0.3926 -0.2184
 1725TIP3    H126590   2.639   1.204  13.033 -1.8816 -0.2739  0.2719
 1725TIP3    H226591   2.686   1.277  12.909  2.1533 -0.7566  1.3647
 1726TIP3   OH226592   3.488   3.301   5.418 -0.1862 -0.1079  0.5740
 1726TIP3    H126593   3.396   3.317   5.397 -0.1832  0.3047  0.8745
 1726TIP3    H226594   3.496   3.321   5.511 -0.1854 -1.8967  1.0032
 1727TIP3   OH226595   2.420   1.233   0.451  1.3090  0.4393  0.0593
 1727TIP3    H126596   2.412   1.317   0.406  3.3119  0.2792 -0.7120
 1727TIP3    H226597   2.514   1.214   0.450  0.9127 -1.8032  0.2318
 1728TIP3   OH226598   1.039   2.897   4.327 -0.5519 -0.3631  0.0067
 1728TIP3    H126599   0.971   2.850   4.279 -0.0691 -1.5887  0.4732
 1728TIP3    H226600   1.032   2.865   4.417 -0.5973  0.9416  0.4922
 1729TIP3   OH226601   6.378   3.645  10.544 -0.2777 -0.5659  0.1603
 1729TIP3    H126602   6.428   3.599  10.612 -0.8910 -0.7852  0.4750
 1729TIP3    H226603   6.289   3.608  10.551 -0.3847 -0.4742 -0.6560
 1730TIP3   OH226604   0.737   3.250   0.819 -0.2304 -0.6734 -0.5449
 1730TIP3    H126605   0.679   3.320   0.847  0.7309 -0.1029  0.1090
 1730TIP3    H226606   0.772   3.279   0.734 -0.0161 -0.4640 -0.3866
 1731TIP3   OH226607   5.114   3.867   6.337 -0.0620  0.2888  0.2925
 1731TIP3    H126608   5.108   3.927   6.262 -0.4243 -1.1904 -0.9204
 1731TIP3    H226609   5.109   3.924   6.414  0.6581  1.9015 -0.7904
 1732TIP3   OH226610   1.083   5.873  14.465  0.0547  0.4264  0.5287
 1732TIP3    H126611   1.062   5.783  14.492  0.4461  0.0303 -0.4217
 1732TIP3    H226612   1.179   5.876  14.468  0.3509 -0.4206 -2.9506
 1733TIP3   OH226613   0.769   3.411   2.352 -0.1683 -0.1465  0.1575
 1733TIP3    H126614   0.854   3.454   2.344 -0.4410  0.4224  0.2541
 1733TIP3    H226615   0.770   3.343   2.284 -0.6181  1.5206 -1.6180
 1734TIP3   OH226616   6.682   4.586  16.079  0.1024 -0.2539 -0.4267
 1734TIP3    H126617   6.745   4.602  16.150  0.0797  3.2698 -1.0268
 1734TIP3    H226618   6.631   4.511  16.109  1.7787 -0.5316  2.0699
 1735TIP3   OH226619   3.739   4.284   3.145  0.0877 -0.3305 -0.1497
 1735TIP3    H126620   3.687   4.251   3.072  1.2744 -2.5840 -0.0582
 1735TIP3    H226621   3.752   4.377   3.125 -1.0275 -0.5109 -1.9189
 1736TIP3   OH226622   2.501   2.344   2.237 -0.3573  0.0243 -0.5257
 1736TIP3    H126623   2.490   2.254   2.266 -1.2124 -0.1477 -1.3551
 1736TIP3    H226624   2.593   2.349   2.209 -0.3012 -0.5722 -0.4575
 1737TIP3   OH226625   1.138   3.446  15.785  0.5683 -0.1128  0.1734
 1737TIP3    H126626   1.120   3.399  15.704  0.9051 -0.6567  0.4126
 1737TIP3    H226627   1.096   3.532  15.773 -0.5273 -0.6667 -0.0358
 1738TIP3   OH226628   2.120   3.928   4.299 -0.1365 -0.2896 -0.1958
 1738TIP3    H126629   2.178   3.900   4.370  0.5064 -2.3463 -1.4277
 1738TIP3    H226630   2.032   3.909   4.331  0.0434  0.1261  0.5733
 1739TIP3   OH226631   5.271   2.542  15.930  0.1467 -0.3709 -0.5545
 1739TIP3    H126632   5.275   2.497  15.846 -3.1161  0.3567 -1.2274
 1739TIP3    H226633   5.357   2.584  15.939  0.2387  0.4848 -4.0742
 1740TIP3   OH226634   0.230   6.176   2.525 -0.4579 -0.3206  0.0123
 1740TIP3    H126635   0.233   6.085   2.555  2.6527 -0.5846 -0.7187
 1740TIP3    H226636   0.256   6.227   2.602 -0.5047 -0.2206 -0.0385
 1741TIP3   OH226637   5.362   2.673   0.883 -0.0164  0.2552 -0.4078
 1741TIP3    H126638   5.383   2.724   0.805  0.0701 -2.4106 -2.2278
 1741TIP3    H226639   5.305   2.731   0.934  0.6167  2.4077 -1.9841
 1742TIP3   OH226640   5.098   1.679  16.386 -0.7738  0.5654  1.1382
 1742TIP3    H126641   5.102   1.583  16.381 -0.6455  0.5069  2.1569
 1742TIP3    H226642   5.004   1.699  16.382 -0.7723  0.4467  0.3185
 1743TIP3   OH226643   0.854   5.685  11.926  0.5507  0.2663 -0.2920
 1743TIP3    H126644   0.762   5.675  11.902  0.4764 -0.0316  0.1009
 1743TIP3    H226645   0.886   5.595  11.936  1.2457  0.3184 -1.7238
 1744TIP3   OH226646   5.337   3.818  14.188 -1.3647 -0.7924  0.0776
 1744TIP3    H126647   5.324   3.772  14.271 -0.9564  1.0393  1.2175
 1744TIP3    H226648   5.398   3.889  14.209  0.7478 -1.7551 -2.3721
 1745TIP3   OH226649   3.266   6.242   2.610  0.2038 -0.0264 -0.0875
 1745TIP3    H126650   3.234   6.326   2.643  1.7064  1.1275 -1.4653
 1745TIP3    H226651   3.344   6.224   2.662 -0.1627 -0.6420  0.2641
 1746TIP3   OH226652   1.751   1.378  13.988  0.2872 -0.0349  0.3180
 1746TIP3    H126653   1.801   1.459  13.998 -0.0446  0.1348  0.6405
 1746TIP3    H226654   1.784   1.321  14.057 -1.6013  0.9301  2.1055
 1747TIP3   OH226655   6.089   4.181   5.234  0.3077  0.4720 -0.0498
 1747TIP3    H126656   6.169   4.131   5.218 -0.1376 -0.1391 -0.4575
 1747TIP3    H226657   6.059   4.208   5.147  0.0895  0.7197  0.0990
 1748TIP3   OH226658   6.531   2.787   3.328  0.3944  0.0624 -0.3439
 1748TIP3    H126659   6.624   2.769   3.345  0.0289 -0.9370  0.7217
 1748TIP3    H226660   6.496   2.812   3.414 -0.2282  0.9240 -0.8361
 1749TIP3   OH226661   4.461   3.015   0.417  0.5458  0.1592  0.1483
 1749TIP3    H126662   4.507   3.096   0.435  1.5425 -0.3757  0.0533
 1749TIP3    H226663   4.499   2.982   0.336  0.3046 -0.5135  0.2961
 1750TIP3   OH226664   2.038   1.497  16.488  0.2341  0.2804 -0.1235
 1750TIP3    H126665   2.046   1.579  16.537  0.4523 -0.1776  0.6350
 1750TIP3    H226666   1.951   1.464  16.513 -0.3009  0.7883 -1.2506
 1751TIP3   OH226667   5.130   6.479  15.382 -0.1012 -0.0841  0.4615
 1751TIP3    H126668   5.087   6.413  15.328  0.1971 -0.9752  1.2903
 1751TIP3    H226669   5.115   6.562  15.336 -0.7134 -0.6910 -0.4468
 1752TIP3   OH226670   2.380   6.042  14.032 -0.0556  0.2671 -0.0039
 1752TIP3    H126671   2.322   6.055  13.957  1.3527 -0.8291 -1.3644
 1752TIP3    H226672   2.397   5.947  14.033 -0.3666  0.1901  1.9779
 1753TIP3   OH226673   5.244   2.921   0.024 -0.1845 -0.1499 -0.4231
 1753TIP3    H126674   5.163   2.946   0.067 -0.4276 -0.3381 -0.7653
 1753TIP3    H226675   5.246   2.825   0.031  0.3262 -0.1034  0.1473
 1754TIP3   OH226676   5.941   5.705  13.917  0.4458  0.2717 -0.5717
 1754TIP3    H126677   5.974   5.788  13.953  0.9633 -0.3923  0.5140
 1754TIP3    H226678   5.855   5.695  13.958  0.1252  0.5406 -1.1543
 1755TIP3   OH226679   5.368   2.597   0.387  0.0571  0.2423 -0.1040
 1755TIP3    H126680   5.307   2.566   0.320  0.1652  1.3203 -0.7256
 1755TIP3    H226681   5.413   2.671   0.347  2.4034 -1.0063  0.0452
 1756TIP3   OH226682   3.952   5.096   0.886 -0.1309 -0.6333 -0.2857
 1756TIP3    H126683   3.886   5.040   0.927 -0.3606 -0.6072 -0.6132
 1756TIP3    H226684   3.962   5.060   0.798 -1.2726  0.6538 -0.9733
 1757TIP3   OH226685   2.970   0.409   2.101  0.0813 -0.3668 -0.5947
 1757TIP3    H126686   2.890   0.364   2.129  0.6323 -0.0864  1.6927
 1757TIP3    H226687   3.026   0.339   2.067  0.1682 -1.1664  1.0698
 1758TIP3   OH226688   4.195   1.874  13.198  0.3104 -0.6333  0.4396
 1758TIP3    H126689   4.275   1.821  13.208  0.4874 -0.6282 -0.8211
 1758TIP3    H226690   4.227   1.961  13.176  0.0205  0.0755  2.5219
 1759TIP3   OH226691   2.522   2.513   0.206  0.1393 -0.0730  0.0448
 1759TIP3    H126692   2.521   2.574   0.280 -0.1422 -0.9452  0.7723
 1759TIP3    H226693   2.491   2.430   0.242 -1.1705 -0.2185 -1.3012
 1760TIP3   OH226694   0.624   6.046  13.925 -0.0084 -0.2829  0.7505
 1760TIP3    H126695   0.538   6.081  13.947 -0.1456 -0.6751  0.8450
 1760TIP3    H226696   0.685   6.099  13.975  0.0552  1.8666 -1.4107
 1761TIP3   OH226697   0.771   5.975  11.739 -0.1307  0.7055  0.7937
 1761TIP3    H126698   0.753   6.009  11.651 -1.9803  1.3690  1.3773
 1761TIP3    H226699   0.733   6.040  11.798  0.4672 -0.0694  2.0785
 1762TIP3   OH226700   3.934   6.072  16.310 -0.0284 -0.2159 -0.2716
 1762TIP3    H126701   3.882   6.020  16.371 -0.5095 -2.0318 -2.0902
 1762TIP3    H226702   3.897   6.160  16.316 -0.4481 -0.4722  1.5599
 1763TIP3   OH226703   2.936   2.665   3.598 -0.6513 -0.8965 -0.2213
 1763TIP3    H126704   2.915   2.572   3.601 -0.3854 -0.9436  0.1322
 1763TIP3    H226705   2.865   2.707   3.646 -0.9834 -0.8767 -0.7173
 1764TIP3   OH226706   6.259   6.545  15.106  0.4966  0.5516 -0.1471
 1764TIP3    H126707   6.346   6.584  15.104  0.7738 -0.0136 -2.4261
 1764TIP3    H226708   6.207   6.599  15.046 -0.6268  0.6290  0.8578
 1765TIP3   OH226709   3.426   6.653  17.247  0.6993 -0.7469 -0.0152
 1765TIP3    H126710   3.372   6.732  17.236  2.0260  0.2838  0.6880
 1765TIP3    H226711   3.475   6.647  17.165  0.6774 -0.7910 -0.0252
 1766TIP3   OH226712   6.486   5.928  11.323  0.0115  0.0546  0.0176
 1766TIP3    H126713   6.496   5.843  11.367  0.4902 -0.8763 -1.7908
 1766TIP3    H226714   6.531   5.990  11.381  1.4543 -1.2757  0.4018
 1767TIP3   OH226715   0.455   4.273  17.043  0.5357  0.6621 -0.1390
 1767TIP3    H126716   0.404   4.353  17.058 -0.8636  0.1203 -1.7638
 1767TIP3    H226717   0.436   4.217  17.118 -0.0134  1.0785  0.0336
 1768TIP3   OH226718   0.408   4.476  13.872 -0.5693  0.3798 -0.0504
 1768TIP3    H126719   0.407   4.570  13.854  0.2145  0.5468  0.7428
 1768TIP3    H226720   0.478   4.464  13.936 -1.2396 -0.6272  0.5216
 1769TIP3   OH226721   3.462   3.335  17.200 -0.1936 -0.3766 -0.4720
 1769TIP3    H126722   3.375   3.296  17.184  0.6294 -1.7312 -1.9606
 1769TIP3    H226723   3.447   3.429  17.195 -1.6256 -0.5659 -0.4094
 1770TIP3   OH226724   6.080   5.484  13.996  0.2835  0.6187  0.1609
 1770TIP3    H126725   6.056   5.475  14.089 -1.0093  0.5482 -0.1514
 1770TIP3    H226726   6.035   5.564  13.968 -1.2338 -0.5475 -0.9360
 1771TIP3   OH226727   4.064   1.928   3.081 -0.1479 -0.0211 -0.2304
 1771TIP3    H126728   4.084   1.834   3.081 -0.7714 -0.1647 -0.7525
 1771TIP3    H226729   4.032   1.945   2.992 -1.4638  0.3611  0.2897
 1772TIP3   OH226730   6.569   6.185   1.154 -0.2130  0.3773 -0.3594
 1772TIP3    H126731   6.478   6.158   1.163 -0.4567  0.8222 -1.3529
 1772TIP3    H226732   6.581   6.253   1.220  0.1066 -1.3527  1.4450
 1773TIP3   OH226733   1.425   2.075  16.229  0.1572 -0.4990  0.0265
 1773TIP3    H126734   1.504   2.068  16.176 -1.0121 -0.8230 -1.7608
 1773TIP3    H226735   1.357   2.036  16.175 -1.1136 -0.8861  1.8079
 1774TIP3   OH226736   4.210   1.361   2.331  0.1649 -0.2949  0.5168
 1774TIP3    H126737   4.128   1.376   2.283 -0.2488 -0.4496  1.1581
 1774TIP3    H226738   4.279   1.381   2.267 -0.3621 -0.9696 -0.2953
 1775TIP3   OH226739   4.430   3.408  11.801  0.0688 -0.1428 -0.1861
 1775TIP3    H126740   4.384   3.490  11.817 -1.3921 -0.9941  0.2069
 1775TIP3    H226741   4.451   3.375  11.888 -0.6232 -0.8405 -0.2626
 1776TIP3   OH226742   4.400   4.878   5.354 -0.4384 -0.0644  0.0186
 1776TIP3    H126743   4.414   4.889   5.448  0.1862  0.4282 -0.1304
 1776TIP3    H226744   4.471   4.822   5.326 -1.6487 -1.7480  0.1477
 1777TIP3   OH226745   3.605   1.774   4.264  0.5925 -0.6461 -0.0495
 1777TIP3    H126746   3.516   1.799   4.242  1.1053 -0.0147 -1.5049
 1777TIP3    H226747   3.601   1.679   4.277 -0.2213 -0.6588 -0.3600
 1778TIP3   OH226748   3.348   5.355   3.159 -0.0179  0.2082  0.2661
 1778TIP3    H126749   3.388   5.296   3.094 -0.4379 -0.0239  0.2173
 1778TIP3    H226750   3.313   5.296   3.226 -0.1619  0.4209  0.3760
 1779TIP3   OH226751   3.524   3.561   2.560  0.2326 -0.4475 -0.5359
 1779TIP3    H126752   3.461   3.596   2.623 -0.6368 -1.5680 -0.7488
 1779TIP3    H226753   3.575   3.637   2.532  1.8439 -0.1083  2.7630
 1780TIP3   OH226754   4.662   0.816   2.396  0.4991 -0.0097  0.1661
 1780TIP3    H126755   4.704   0.763   2.464  1.3669 -0.5115 -0.7510
 1780TIP3    H226756   4.734   0.850   2.343 -0.0693  1.5670  0.3239
 1781TIP3   OH226757   2.879   5.181  16.073 -0.1471 -0.2310 -0.4399
 1781TIP3    H126758   2.843   5.186  15.985  1.5525 -0.2490 -1.1720
 1781TIP3    H226759   2.816   5.128  16.122 -0.6290 -1.0480 -1.8975
 1782TIP3   OH226760   3.952   0.549   1.188  0.1883 -0.1579 -0.4249
 1782TIP3    H126761   4.011   0.547   1.113 -0.5688 -0.1726 -1.0276
 1782TIP3    H226762   3.877   0.497   1.161  0.4564 -1.2705  0.8260
 1783TIP3   OH226763   1.859   0.647  11.303  0.2228  0.5975  0.0027
 1783TIP3    H126764   1.835   0.673  11.392 -0.8043  0.2667 -0.1630
 1783TIP3    H226765   1.925   0.579  11.315  2.2451  2.5090  0.4527
 1784TIP3   OH226766   4.872   1.103   4.794  0.0075 -0.6036  0.3305
 1784TIP3    H126767   4.877   1.131   4.885  1.4203  0.6827 -0.0936
 1784TIP3    H226768   4.876   1.184   4.744  0.1063 -1.3380 -0.8966
 1785TIP3   OH226769   0.906   2.500   4.580 -0.0987 -0.2842  0.0948
 1785TIP3    H126770   0.841   2.468   4.517 -1.0453  0.2350  0.7865
 1785TIP3    H226771   0.924   2.589   4.552 -0.3023 -0.1511  0.3907
 1786TIP3   OH226772   4.355   4.208   5.291 -0.5571 -0.1411 -0.5340
 1786TIP3    H126773   4.346   4.151   5.215  0.5766 -0.8665 -0.1446
 1786TIP3    H226774   4.449   4.216   5.305 -0.7184  1.1040 -0.0313
 1787TIP3   OH226775   6.397   6.557   3.325  0.7568  0.2989  0.2033
 1787TIP3    H126776   6.326   6.564   3.388  0.0288 -1.6712 -0.3367
 1787TIP3    H226777   6.474   6.590   3.373 -0.2449  1.3189  1.1934
 1788TIP3   OH226778   3.749   1.864   2.757  0.1348 -0.3427 -0.0497
 1788TIP3    H126779   3.841   1.889   2.743  0.7302 -1.2248  1.8767
 1788TIP3    H226780   3.753   1.796   2.825 -1.9611 -0.2791  0.2024
 1789TIP3   OH226781   5.969   5.175  13.733 -0.1569  0.0505  0.8574
 1789TIP3    H126782   6.045   5.120  13.752  0.0377 -0.1636 -0.4498
 1789TIP3    H226783   6.007   5.258  13.704 -0.4034 -0.1786 -0.1551
 1790TIP3   OH226784   5.459   3.784  15.464  0.0983 -0.1705 -0.0540
 1790TIP3    H126785   5.421   3.752  15.546 -2.2362  0.4116 -0.8469
 1790TIP3    H226786   5.387   3.826  15.418  1.6212  0.5908 -1.9052
 1791TIP3   OH226787   5.612   1.553   5.509  0.3177  0.0659  0.3348
 1791TIP3    H126788   5.606   1.556   5.604 -1.7885 -0.0007  0.2557
 1791TIP3    H226789   5.584   1.640   5.481  1.3340  0.2283 -0.2459
 1792TIP3   OH226790   0.484   0.399   0.095 -0.0396  0.0072 -0.7266
 1792TIP3    H126791   0.563   0.394   0.150 -0.2243 -1.2620 -0.5553
 1792TIP3    H226792   0.461   0.492   0.097  1.3825  0.3971 -0.6930
 1793TIP3   OH226793   4.610   2.676   1.633 -0.4068  0.1194  0.0585
 1793TIP3    H126794   4.562   2.696   1.552  0.2863 -0.3715 -0.4826
 1793TIP3    H226795   4.678   2.614   1.606  0.2254  0.4281  0.9048
 1794TIP3   OH226796   4.316   3.071   4.185  0.2554 -0.2487  0.1791
 1794TIP3    H126797   4.404   3.108   4.175  0.4972 -0.4041  1.5451
 1794TIP3    H226798   4.313   3.041   4.276 -0.5249 -2.0684 -0.4138
 1795TIP3   OH226799   0.810   5.163  15.864  0.2590  0.2181 -0.3285
 1795TIP3    H126800   0.889   5.190  15.910  0.0292 -0.5461  0.5546
 1795TIP3    H226801   0.739   5.182  15.926 -0.2586  0.9751 -1.1425
 1796TIP3   OH226802   6.084   5.858  14.789  0.8581 -0.6193 -0.7927
 1796TIP3    H126803   6.154   5.917  14.762  0.2330 -0.3996 -2.0145
 1796TIP3    H226804   6.004   5.904  14.766  0.3137 -1.0936  0.0978
 1797TIP3   OH226805   4.499   4.546   6.570 -0.3680 -0.2199 -0.0873
 1797TIP3    H126806   4.406   4.560   6.553 -0.3057  0.1033 -0.1566
 1797TIP3    H226807   4.518   4.460   6.532  0.0772  1.0156 -2.8786
 1798TIP3   OH226808   5.248   5.239   0.557  0.1932  0.6495 -0.3705
 1798TIP3    H126809   5.164   5.282   0.575  0.6432  1.7268 -0.7810
 1798TIP3    H226810   5.313   5.297   0.596  0.6796 -0.9650  1.3308
 1799TIP3   OH226811   3.336   1.059   3.694 -0.3176  0.1799 -0.1803
 1799TIP3    H126812   3.348   1.142   3.738 -2.1063  0.7135 -0.6042
 1799TIP3    H226813   3.299   1.082   3.609 -0.1741 -1.0147 -0.5903
 1800TIP3   OH226814   0.758   6.170   1.076  0.0870 -0.1378 -0.0282
 1800TIP3    H126815   0.690   6.103   1.086 -0.8245  0.9913  2.0178
 1800TIP3    H226816   0.713   6.253   1.094  0.3999  1.6099 -5.3980
 1801TIP3   OH226817   5.101   6.133   1.206 -0.3578 -0.3615  0.1131
 1801TIP3    H126818   5.189   6.123   1.242 -0.3628  0.0967  0.2686
 1801TIP3    H226819   5.083   6.227   1.214 -1.3051 -0.6025  1.1511
 1802TIP3   OH226820   4.709   3.740  13.589 -0.1504 -0.5479 -0.2689
 1802TIP3    H126821   4.619   3.721  13.562 -0.4895  0.4225  0.1601
 1802TIP3    H226822   4.701   3.777  13.677  0.6367 -0.0834 -0.3863
 1803TIP3   OH226823   4.523   4.261   3.132 -0.1755 -0.6547  0.4092
 1803TIP3    H126824   4.498   4.182   3.085  0.2200  0.0453 -1.0301
 1803TIP3    H226825   4.615   4.276   3.107 -0.9011  1.5456 -1.3169
 1804TIP3   OH226826   1.224   5.543   0.295  0.1302  0.1874 -0.1993
 1804TIP3    H126827   1.289   5.480   0.327  0.2520 -0.4744 -1.6763
 1804TIP3    H226828   1.170   5.563   0.372 -1.1581 -3.2318 -0.0317
 1805TIP3   OH226829   0.004   6.038  14.612  0.1128 -0.6359 -0.1052
 1805TIP3    H126830  -0.025   6.096  14.542  0.2713  0.3745  0.6373
 1805TIP3    H226831   0.022   6.096  14.686  2.0384 -1.4218  0.1141
 1806TIP3   OH226832   1.276   0.789   1.940 -0.6449 -0.2978  0.2288
 1806TIP3    H126833   1.270   0.700   1.904  0.3870 -0.4618  0.4229
 1806TIP3    H226834   1.357   0.789   1.991  0.2769  1.2632 -1.1579
 1807TIP3   OH226835   2.457   3.539  12.423 -0.1559  0.6289 -0.0663
 1807TIP3    H126836   2.451   3.466  12.361  0.3610  0.5827 -0.0647
 1807TIP3    H226837   2.512   3.604  12.379  0.5626  0.4220  0.5005
 1808TIP3   OH226838   6.231   0.807  12.721 -0.6865 -0.1141 -0.3567
 1808TIP3    H126839   6.184   0.866  12.663 -0.4337  0.9601  0.4817
 1808TIP3    H226840   6.203   0.833  12.809  0.3664 -0.4200  0.0882
 1809TIP3   OH226841   6.699   2.608  11.087 -0.7929  0.1802 -0.3947
 1809TIP3    H126842   6.732   2.522  11.060 -1.3371 -0.1297 -0.0826
 1809TIP3    H226843   6.629   2.627  11.024 -0.5230  0.5038 -0.6019
 1810TIP3   OH226844   0.440   2.821   4.636 -0.0738  0.1930  0.6290
 1810TIP3    H126845   0.469   2.740   4.596  1.2161  0.6995  0.4667
 1810TIP3    H226846   0.367   2.851   4.582  0.2910 -0.1967 -0.0929
 1811TIP3   OH226847   3.056   4.094  16.479  0.3455 -0.5545  0.2670
 1811TIP3    H126848   3.107   4.042  16.416 -0.6025  0.5417 -1.4825
 1811TIP3    H226849   3.025   4.169  16.429 -1.1120 -0.0255  1.8593
 1812TIP3   OH226850   4.239   6.182  17.308 -0.0383 -0.2337 -0.2320
 1812TIP3    H126851   4.243   6.233  17.388 -0.4847  0.6342 -0.7472
 1812TIP3    H226852   4.323   6.137  17.303  0.8755  1.4156 -0.3876
 1813TIP3   OH226853   2.133   2.465  14.640  0.2724 -0.4162  0.3815
 1813TIP3    H126854   2.067   2.506  14.696 -0.7255 -2.0989  0.5261
 1813TIP3    H226855   2.151   2.529  14.572 -0.3441  0.6948  1.2380
 1814TIP3   OH226856   3.098   4.363  16.846 -0.0717  0.3717  1.0842
 1814TIP3    H126857   3.005   4.347  16.830  0.4784 -0.4638 -1.6943
 1814TIP3    H226858   3.123   4.295  16.909 -0.6133 -1.7092 -0.8348
 1815TIP3   OH226859   1.210   0.788  13.357 -0.0570 -0.2356  0.2599
 1815TIP3    H126860   1.157   0.731  13.301 -1.2014 -0.0880  1.1655
 1815TIP3    H226861   1.165   0.872  13.356  0.9193  0.3025 -0.0331
 1816TIP3   OH226862   0.535   4.139   5.467  0.5764 -0.1607 -0.2390
 1816TIP3    H126863   0.518   4.048   5.491  0.0763 -0.1963 -0.7023
 1816TIP3    H226864   0.610   4.165   5.521  2.1712 -1.5453 -1.6659
 1817TIP3   OH226865   3.725   3.255   0.820  0.2548  0.2045  0.1064
 1817TIP3    H126866   3.674   3.270   0.740 -0.1405  1.5893  0.5889
 1817TIP3    H226867   3.791   3.190   0.795 -1.7361 -1.6929 -0.5442
 1818TIP3   OH226868   4.323   3.619   5.765  0.2321  0.6179 -0.2213
 1818TIP3    H126869   4.290   3.702   5.799 -0.3616  0.4020 -0.2603
 1818TIP3    H226870   4.340   3.566   5.843  2.3731  1.3992 -0.0826
 1819TIP3   OH226871   4.253   3.170  14.478  0.1985  0.6234 -0.4757
 1819TIP3    H126872   4.230   3.147  14.389 -0.0751  1.7704 -0.7242
 1819TIP3    H226873   4.291   3.091  14.515 -0.5538 -0.1431 -1.3041
 1820TIP3   OH226874   1.768   3.757   5.852  0.1937 -0.6957  0.2478
 1820TIP3    H126875   1.753   3.694   5.782 -2.8841  0.1378  0.0048
 1820TIP3    H226876   1.689   3.752   5.906  0.3356  2.0783  0.8817
 1821TIP3   OH226877   2.036   0.821  15.572 -0.0577  0.5375 -0.5967
 1821TIP3    H126878   2.116   0.824  15.625 -0.3818  0.9418 -0.1284
 1821TIP3    H226879   1.994   0.739  15.597  1.1542 -0.6720 -2.2540
 1822TIP3   OH226880   1.574   3.300   3.319  0.0818  0.3163  0.0768
 1822TIP3    H126881   1.610   3.235   3.379 -1.3634 -0.2224  0.4157
 1822TIP3    H226882   1.631   3.377   3.328  0.9167 -0.3756  0.8005
 1823TIP3   OH226883   2.061   2.093  14.233  0.1819 -0.1610  0.3416
 1823TIP3    H126884   2.089   2.174  14.191 -2.8517  0.0552 -1.5757
 1823TIP3    H226885   1.995   2.121  14.297 -1.0445 -1.0297 -0.4795
 1824TIP3   OH226886   2.698   0.674  16.186  0.2738 -0.2423 -0.3301
 1824TIP3    H126887   2.713   0.765  16.160  0.0510 -1.1120 -4.0054
 1824TIP3    H226888   2.785   0.635  16.189  0.3599  0.0204  1.1292
 1825TIP3   OH226889   6.285   4.712   0.592 -0.7193 -0.2456 -0.5130
 1825TIP3    H126890   6.224   4.774   0.552 -2.0161 -2.4529 -2.1742
 1825TIP3    H226891   6.279   4.730   0.686 -1.0804  2.0350 -0.9012
 1826TIP3   OH226892   5.172   2.583   5.065  0.0348 -0.1742 -0.2816
 1826TIP3    H126893   5.215   2.501   5.090 -0.7056 -0.3276  0.5628
 1826TIP3    H226894   5.135   2.616   5.147  1.6009  1.8044 -0.3003
 1827TIP3   OH226895   1.356   2.348  16.196 -0.3887  0.3239 -0.0431
 1827TIP3    H126896   1.311   2.338  16.112  2.5437  0.0996 -1.7074
 1827TIP3    H226897   1.373   2.258  16.224 -0.4779  0.4116  0.2950
 1828TIP3   OH226898   3.922   5.955  15.365  0.5524 -0.3759  0.3458
 1828TIP3    H126899   3.878   5.882  15.407  1.6329 -0.6018  1.1166
 1828TIP3    H226900   4.014   5.944  15.387  0.8089  0.9067  0.0073
 1829TIP3   OH226901   6.041   5.322   2.593  0.3792 -0.1109 -0.2027
 1829TIP3    H126902   6.110   5.376   2.633 -0.3817  2.3909 -2.0249
 1829TIP3    H226903   5.961   5.350   2.638  0.2693 -1.7644  0.7030
 1830TIP3   OH226904   1.891   1.739  12.227  0.4481 -0.2584  0.5717
 1830TIP3    H126905   1.937   1.772  12.304  1.0098  1.1177 -0.3086
 1830TIP3    H226906   1.955   1.684  12.182  0.4093 -0.3481  0.6249
 1831TIP3   OH226907   6.763   2.226  11.776  1.3803  0.0160  0.5836
 1831TIP3    H126908   6.749   2.143  11.822  1.0174 -1.5611 -2.1301
 1831TIP3    H226909   6.729   2.211  11.688  1.0167  3.2041  0.0522
 1832TIP3   OH226910   2.777   6.540  14.983 -0.2653  0.3487  0.0990
 1832TIP3    H126911   2.714   6.573  14.919 -1.5178  0.8000  1.4889
 1832TIP3    H226912   2.862   6.570  14.952 -0.6586 -0.5901 -2.0307
 1833TIP3   OH226913   6.746   0.189  16.680  0.5878 -0.0357 -0.1245
 1833TIP3    H126914   6.781   0.218  16.764  1.4120  3.1286 -1.4197
 1833TIP3    H226915   6.678   0.253  16.659  0.5894 -0.5864 -1.9718
 1834TIP3   OH226916   5.078   1.559  12.715  0.1274  0.2601 -0.0198
 1834TIP3    H126917   5.110   1.531  12.801 -0.4400 -1.3299 -0.2876
 1834TIP3    H226918   5.108   1.491  12.655  0.1356  1.1228 -1.0160
 1835TIP3   OH226919   0.968   6.533   0.161 -0.2590 -0.3047 -0.3459
 1835TIP3    H126920   0.890   6.584   0.139  0.2245 -0.0353 -1.4780
 1835TIP3    H226921   1.040   6.581   0.120  0.5089 -0.5803  0.6351
 1836TIP3   OH226922   0.217   6.255  14.193  0.1039  0.5283 -0.4533
 1836TIP3    H126923   0.132   6.222  14.163 -0.5307 -0.1241  1.8544
 1836TIP3    H226924   0.196   6.329  14.250  1.1302  0.8168 -0.4283
 1837TIP3   OH226925   0.331   1.225   1.895 -0.3472 -0.4386  0.0071
 1837TIP3    H126926   0.372   1.312   1.888  1.2498 -1.2632 -4.2526
 1837TIP3    H226927   0.248   1.234   1.848 -0.3113 -1.0994 -0.1916
 1838TIP3   OH226928   2.643   4.693   6.972  0.6665 -0.1390  0.7744
 1838TIP3    H126929   2.730   4.698   6.933  0.0585 -0.9073 -0.7480
 1838TIP3    H226930   2.611   4.607   6.948 -1.2747  0.8443 -0.3816
 1839TIP3   OH226931   0.524   0.472  15.090 -0.0252  0.2714 -0.4316
 1839TIP3    H126932   0.553   0.446  15.177 -1.4930  0.8758  0.2566
 1839TIP3    H226933   0.442   0.519  15.104  0.0094  0.9101 -2.0843
 1840TIP3   OH226934   0.149   0.077   2.886 -0.2284 -0.2707 -0.3910
 1840TIP3    H126935   0.238   0.077   2.851  0.4242  0.0284  1.2032
 1840TIP3    H226936   0.158   0.048   2.977 -1.7543 -0.1821 -0.1749
 1841TIP3   OH226937   2.368   0.743   5.783  0.1815  0.3174 -0.2219
 1841TIP3    H126938   2.339   0.657   5.752  1.3275 -0.4849  0.8499
 1841TIP3    H226939   2.351   0.741   5.877 -0.6812  1.6550 -0.3252
 1842TIP3   OH226940   1.056   1.950  10.970  0.0410 -0.0339  0.4018
 1842TIP3    H126941   1.095   1.864  10.984  1.1418  0.5779  1.3246
 1842TIP3    H226942   1.027   1.949  10.879 -0.5325 -1.5828  0.5731
 1843TIP3   OH226943   6.438   0.513  12.124  0.0713  0.3833  0.1041
 1843TIP3    H126944   6.526   0.489  12.152  0.0726  1.1561  0.7966
 1843TIP3    H226945   6.381   0.450  12.169  0.1881  0.6352  0.6119
 1844TIP3   OH226946   6.393   4.663   6.146 -0.1473 -0.3671 -0.1617
 1844TIP3    H126947   6.482   4.670   6.181 -0.2644  2.5424 -0.2283
 1844TIP3    H226948   6.338   4.707   6.211 -1.4423 -1.3233 -0.5640
 1845TIP3   OH226949   1.295   2.522   3.371  0.1481 -0.2030  0.5698
 1845TIP3    H126950   1.275   2.454   3.436 -2.3619 -0.8656 -0.7623
 1845TIP3    H226951   1.209   2.558   3.347  1.1498  1.1610 -1.1790
 1846TIP3   OH226952   5.634   0.996  14.701  0.3255  0.4895 -0.4984
 1846TIP3    H126953   5.554   1.009  14.751  0.4083 -2.3277  0.5578
 1846TIP3    H226954   5.622   1.047  14.621 -1.6888  1.6159  0.4715
 1847TIP3   OH226955   6.106   2.234   3.639  0.1437  0.4414  0.1935
 1847TIP3    H126956   6.179   2.174   3.654  0.5049  0.6291 -0.7594
 1847TIP3    H226957   6.041   2.181   3.592 -0.0733  0.4499  0.4797
 1848TIP3   OH226958   4.081   1.800   0.793 -0.1555 -0.0790 -0.5840
 1848TIP3    H126959   4.112   1.757   0.873 -1.4223 -0.3471 -0.2115
 1848TIP3    H226960   4.052   1.728   0.737  2.4476 -0.0434 -2.1006
 1849TIP3   OH226961   3.145   6.309   2.383  0.0554 -0.2683 -0.1964
 1849TIP3    H126962   3.131   6.403   2.377  0.9319 -0.1510 -0.5786
 1849TIP3    H226963   3.214   6.299   2.448 -0.5392 -0.7048  0.3819
 1850TIP3   OH226964   1.679   5.384  17.255  0.5733  0.2643  0.2686
 1850TIP3    H126965   1.705   5.383  17.348 -0.6479  0.0532  0.6250
 1850TIP3    H226966   1.605   5.445  17.252  0.5341  0.1777 -0.5481
 1851TIP3   OH226967   5.105   2.138   2.370 -0.8535  0.3422  0.0089
 1851TIP3    H126968   5.125   2.231   2.382  0.0090 -0.0070  1.5942
 1851TIP3    H226969   5.174   2.106   2.312 -2.4818  1.1283 -2.4897
 1852TIP3   OH226970   5.717   0.474   3.801  0.2846  0.6733 -0.0515
 1852TIP3    H126971   5.756   0.555   3.833  0.3685  0.3604  0.6672
 1852TIP3    H226972   5.642   0.459   3.858  0.1792  0.3302 -0.2787
 1853TIP3   OH226973   1.692   0.389   0.416  0.2857 -0.0926  0.1200
 1853TIP3    H126974   1.624   0.391   0.349 -0.3595  0.3801  0.7753
 1853TIP3    H226975   1.667   0.317   0.474 -0.3712  0.8987  1.0856
 1854TIP3   OH226976   0.855   4.538  16.734  0.0363 -0.0134 -0.0043
 1854TIP3    H126977   0.855   4.462  16.793 -3.1182  0.4787  0.8229
 1854TIP3    H226978   0.858   4.499  16.647  0.4320 -0.9784  0.4153
 1855TIP3   OH226979   4.673   4.131   5.329 -0.5331 -0.4326  0.2383
 1855TIP3    H126980   4.716   4.054   5.367  1.0810 -0.5370 -1.6468
 1855TIP3    H226981   4.718   4.205   5.369  0.3524 -0.5251 -0.5736
 1856TIP3   OH226982   1.787   0.031  10.910  0.2694 -0.7332 -0.3047
 1856TIP3    H126983   1.731  -0.036  10.871  0.3919 -0.2999 -1.2700
 1856TIP3    H226984   1.787   0.012  11.004  0.0015 -1.8474 -0.5229
 1857TIP3   OH226985   4.475   2.329   4.196 -0.3955  0.2362  0.0611
 1857TIP3    H126986   4.476   2.415   4.153 -1.0382 -0.4464 -1.3967
 1857TIP3    H226987   4.402   2.283   4.155  0.1089 -1.1172  0.6203
 1858TIP3   OH226988   6.775   4.442  14.475  0.4142 -0.4576 -0.2216
 1858TIP3    H126989   6.795   4.376  14.542  1.0055 -0.0188  0.0415
 1858TIP3    H226990   6.857   4.491  14.464 -0.5727  1.6953  1.2124
 1859TIP3   OH226991   2.717   3.974   2.734  0.3442 -0.1868  0.3965
 1859TIP3    H126992   2.724   4.018   2.650 -0.1388  1.0806  0.9871
 1859TIP3    H226993   2.763   3.891   2.722  1.2840  0.4711 -0.7613
 1860TIP3   OH226994   2.581   2.921   4.420  0.4797 -0.5102  0.3041
 1860TIP3    H126995   2.619   2.848   4.369  0.9412 -0.6061  0.7784
 1860TIP3    H226996   2.490   2.894   4.435 -0.2471  0.3680 -2.0793
 1861TIP3   OH226997   1.473   3.824  13.511 -0.1099  0.0443 -0.5343
 1861TIP3    H126998   1.419   3.748  13.490 -0.8356  0.3880  0.0232
 1861TIP3    H226999   1.539   3.826  13.442  0.2182 -1.3570 -0.2954
 1862TIP3   OH227000   1.754   1.011  15.977 -0.0811 -0.2503 -0.4655
 1862TIP3    H127001   1.742   1.075  16.047  1.1457 -0.0812 -0.3845
 1862TIP3    H227002   1.753   1.063  15.897  1.2119 -0.0721 -0.3797
 1863TIP3   OH227003   4.052   4.625   1.120 -0.1591 -0.1861  0.3527
 1863TIP3    H127004   4.010   4.641   1.036  0.1456  2.0626  0.5761
 1863TIP3    H227005   4.140   4.594   1.097  0.5233  2.0096 -0.2504
 1864TIP3   OH227006   0.432   3.621  16.382  0.0029  0.0791 -0.1444
 1864TIP3    H127007   0.500   3.593  16.443 -0.2459 -0.0035  0.0947
 1864TIP3    H227008   0.456   3.711  16.359  1.6184 -0.7537 -2.0218
 1865TIP3   OH227009   4.752   1.306   0.297 -0.5828  0.6669  0.2670
 1865TIP3    H127010   4.674   1.258   0.325  0.5927 -0.8087  1.1998
 1865TIP3    H227011   4.725   1.352   0.218 -2.0450 -0.8347 -0.1706
 1866TIP3   OH227012   5.356   2.212   4.425 -0.1196 -0.2120  0.2084
 1866TIP3    H127013   5.423   2.267   4.467  0.6281 -0.3058 -0.8309
 1866TIP3    H227014   5.357   2.239   4.333 -1.9151  0.1721  0.2773
 1867TIP3   OH227015   1.151   5.223   2.332  0.1156 -0.5210 -0.6887
 1867TIP3    H127016   1.087   5.173   2.382  1.0084  0.2847  1.3861
 1867TIP3    H227017   1.098   5.286   2.283 -0.7959 -1.1727 -0.5677
 1868TIP3   OH227018   3.423   2.558   1.681 -0.0250 -0.0267 -0.3015
 1868TIP3    H127019   3.355   2.583   1.617  0.9993  0.2271 -1.3265
 1868TIP3    H227020   3.468   2.640   1.701  0.1991 -0.2470  0.0983
 1869TIP3   OH227021   3.519   5.460  14.553 -0.1421  0.3362 -0.8797
 1869TIP3    H127022   3.593   5.404  14.530 -0.8209 -0.1803 -1.8374
 1869TIP3    H227023   3.449   5.435  14.493 -0.2533  2.6924 -1.8659
 1870TIP3   OH227024   4.651   4.426   3.344  0.0313 -0.0471  0.2454
 1870TIP3    H127025   4.589   4.498   3.356 -0.0926 -0.3593  1.6450
 1870TIP3    H227026   4.599   4.356   3.303 -0.2703  0.0961  0.3777
 1871TIP3   OH227027   2.265   3.236   5.728  0.1561  0.4829  0.0640
 1871TIP3    H127028   2.192   3.262   5.784  2.0520  2.8370  1.6208
 1871TIP3    H227029   2.343   3.256   5.779  1.9866 -3.2516 -0.9685
 1872TIP3   OH227030   0.422   3.415  16.179  0.9784  0.2061 -0.0581
 1872TIP3    H127031   0.412   3.339  16.237  2.4392  0.0161 -0.0212
 1872TIP3    H227032   0.410   3.491  16.237 -0.7520  0.0562 -0.1422
 1873TIP3   OH227033   3.486   6.082   1.537 -0.0311 -0.4039  0.1342
 1873TIP3    H127034   3.405   6.035   1.519 -0.4535 -0.7262  2.5077
 1873TIP3    H227035   3.462   6.175   1.530  0.2150 -0.4677 -2.2057
 1874TIP3   OH227036   3.651   3.547   6.445  0.2604 -0.3205 -0.2676
 1874TIP3    H127037   3.587   3.592   6.391  0.9639  1.4533  0.2829
 1874TIP3    H227038   3.617   3.555   6.534  1.1932  0.6661  0.0355
 1875TIP3   OH227039   4.144   2.846  10.545 -0.3611 -0.4460 -0.2963
 1875TIP3    H127040   4.234   2.816  10.535 -0.5963 -1.8184  1.3477
 1875TIP3    H227041   4.146   2.937  10.516  1.6664 -0.2774  0.2527
 1876TIP3   OH227042   2.176   6.376  14.715  0.2262  0.3057 -0.2190
 1876TIP3    H127043   2.121   6.318  14.662 -0.0143 -0.4997  0.8880
 1876TIP3    H227044   2.120   6.403  14.788  0.7185  0.9856 -0.0782
 1877TIP3   OH227045   0.890   3.723   4.408 -0.0410  0.9100  0.2467
 1877TIP3    H127046   0.900   3.796   4.469  1.3699  0.4314  0.6311
 1877TIP3    H227047   0.959   3.736   4.343 -2.2636  2.0934 -2.0599
 1878TIP3   OH227048   4.490   4.117  15.380  0.6506 -0.4442  0.0239
 1878TIP3    H127049   4.550   4.089  15.311  0.4866 -1.7143  0.3648
 1878TIP3    H227050   4.545   4.162  15.444  1.0510 -0.5905 -0.2146
 1879TIP3   OH227051   5.106   0.055   3.680 -0.5235 -0.5802  0.2823
 1879TIP3    H127052   5.122   0.137   3.726  0.8653 -0.4553 -0.3687
 1879TIP3    H227053   5.025   0.070   3.631  0.5716  1.0141 -1.1245
 1880TIP3   OH227054   4.473   4.725  14.135 -0.4495  0.5756  0.0664
 1880TIP3    H127055   4.428   4.706  14.053  0.1932  1.2438 -0.4525
 1880TIP3    H227056   4.547   4.665  14.137 -0.3658  0.6767  0.0661
 1881TIP3   OH227057   0.017   1.954  14.138 -0.0983  0.0200  0.6023
 1881TIP3    H127058  -0.047   1.985  14.201  2.2891  2.4627  2.0422
 1881TIP3    H227059   0.078   1.901  14.190 -0.1609 -1.1635 -0.4686
 1882TIP3   OH227060   6.769   2.452  11.546  0.1797  0.1962  0.2695
 1882TIP3    H127061   6.674   2.454  11.543  0.0194 -2.6150  0.5637
 1882TIP3    H227062   6.797   2.531  11.500 -2.2583  1.4307  0.7568
 1883TIP3   OH227063   5.454   6.175  13.100 -0.2267  0.8051  0.7050
 1883TIP3    H127064   5.474   6.106  13.163 -0.5360  1.0567  1.0928
 1883TIP3    H227065   5.401   6.238  13.151 -0.9562  0.7360  0.0472
 1884TIP3   OH227066   5.823   0.365   0.941 -0.1386 -0.2800  0.2471
 1884TIP3    H127067   5.750   0.401   0.892  0.4968  0.1204 -0.4244
 1884TIP3    H227068   5.785   0.339   1.025 -1.5329 -2.1731 -0.8738
 1885TIP3   OH227069   1.374   2.699   2.631  0.4340 -0.2576  0.0860
 1885TIP3    H127070   1.321   2.765   2.587  1.8074 -0.1237 -1.4398
 1885TIP3    H227071   1.345   2.702   2.722 -1.4477  0.5038 -0.4899
 1886TIP3   OH227072   2.399   1.049   4.975 -0.1929  0.3383 -0.5281
 1886TIP3    H127073   2.348   1.080   5.050 -0.1660 -0.2029 -0.2874
 1886TIP3    H227074   2.404   0.955   4.986  0.8490  0.3783 -0.5496
 1887TIP3   OH227075   3.836   0.905   1.155  0.3604  0.7904 -0.6290
 1887TIP3    H127076   3.838   1.001   1.158 -0.1950  0.7866  1.1164
 1887TIP3    H227077   3.928   0.880   1.154  0.5122  1.3405 -1.0628
 1888TIP3   OH227078   0.233   4.930   4.238  0.6568  0.4506 -0.0705
 1888TIP3    H127079   0.226   4.965   4.149  0.3631  1.4693  0.3397
 1888TIP3    H227080   0.287   4.993   4.285  0.0674  0.3948  0.7050
 1889TIP3   OH227081   0.513   5.148  12.024 -0.3347  0.0142 -0.7937
 1889TIP3    H127082   0.484   5.238  12.006 -2.3018 -0.1651  1.0442
 1889TIP3    H227083   0.482   5.130  12.113  2.9826 -1.3424  0.2578
 1890TIP3   OH227084   1.288   0.015  11.250 -0.2667 -0.0496  0.0214
 1890TIP3    H127085   1.246  -0.026  11.325  0.2782  0.2110  0.4702
 1890TIP3    H227086   1.298  -0.056  11.186 -0.9384 -0.2210  0.1003
 1891TIP3   OH227087   6.201   0.752   3.265 -0.2290  0.0081  0.3988
 1891TIP3    H127088   6.109   0.735   3.281 -0.2504 -0.0779  0.1897
 1891TIP3    H227089   6.207   0.847   3.254 -0.6217 -0.1463 -1.5800
 1892TIP3   OH227090   1.758   0.211   1.355 -0.2422 -0.2819  0.1363
 1892TIP3    H127091   1.723   0.293   1.390  0.1770  0.9555 -2.1626
 1892TIP3    H227092   1.847   0.206   1.389 -0.1757  0.3609  0.0640
 1893TIP3   OH227093   2.908   6.378  13.053 -0.6921  0.4823  0.3168
 1893TIP3    H127094   2.861   6.462  13.058  0.6409  1.2290  0.8723
 1893TIP3    H227095   2.994   6.402  13.016 -0.5769 -0.7696 -0.2547
 1894TIP3   OH227096   0.362   0.035   2.130 -0.6015  0.0836 -0.0274
 1894TIP3    H127097   0.395   0.079   2.209  0.0834  0.0642 -0.3017
 1894TIP3    H227098   0.315   0.103   2.082  0.8878  0.6740 -0.7058
 1895TIP3   OH227099   1.970   0.994  10.807 -0.3125 -0.5648  0.5416
 1895TIP3    H127100   1.901   0.934  10.778  1.3404 -1.1188 -2.6692
 1895TIP3    H227101   2.027   0.939  10.861  1.0868 -2.0121 -2.2130
 1896TIP3   OH227102   1.719   2.598  16.341  0.5598  0.5906  0.0181
 1896TIP3    H127103   1.803   2.574  16.379 -0.6695 -2.0330  1.3148
 1896TIP3    H227104   1.716   2.551  16.258  0.2685  0.4240  0.1202
 1897TIP3   OH227105   4.389   4.759   0.916  0.2851 -0.6231 -0.6398
 1897TIP3    H127106   4.409   4.762   0.823 -1.2752 -0.9156 -1.0170
 1897TIP3    H227107   4.434   4.834   0.954  1.7201 -1.0481 -1.4522
 1898TIP3   OH227108   4.299   6.711   3.508 -0.3053  0.3871  0.8651
 1898TIP3    H127109   4.374   6.750   3.552 -0.3740  1.3025  0.1974
 1898TIP3    H227110   4.322   6.710   3.415  0.2570 -2.4478  0.9429
 1899TIP3   OH227111   2.870   5.913   1.107 -0.3226 -0.7006  0.1213
 1899TIP3    H127112   2.838   5.988   1.057 -1.5687 -1.3437 -0.0769
 1899TIP3    H227113   2.803   5.898   1.174 -0.8116 -2.4742 -0.6970
 1900TIP3   OH227114   6.603   3.380   0.410 -0.2130 -0.1838  0.4736
 1900TIP3    H127115   6.569   3.366   0.321 -0.5084  0.4308  0.4912
 1900TIP3    H227116   6.696   3.400   0.397 -0.5029  1.0487  0.2135
 1901TIP3   OH227117   5.476   1.931  16.376  0.0280 -0.5022  0.1175
 1901TIP3    H127118   5.476   1.866  16.446 -0.8307 -0.7916 -0.1375
 1901TIP3    H227119   5.406   1.903  16.317  1.0241 -0.5118 -1.0996
 1902TIP3   OH227120   4.126   1.798   5.736  0.4144 -0.2828  0.1016
 1902TIP3    H127121   4.037   1.774   5.761  0.4429 -0.4097  0.0818
 1902TIP3    H227122   4.177   1.717   5.747  0.6135 -0.0994  0.5288
 1903TIP3   OH227123   2.685   2.820   0.441 -0.5257 -0.2624 -0.5678
 1903TIP3    H127124   2.595   2.788   0.451 -0.5062 -0.2638 -0.3963
 1903TIP3    H227125   2.680   2.913   0.462 -0.2001 -0.5777  1.0615
 1904TIP3   OH227126   2.420   1.877  11.075 -0.0081  0.5845  0.1921
 1904TIP3    H127127   2.505   1.852  11.111  0.0827  0.9991  0.2689
 1904TIP3    H227128   2.395   1.803  11.019  0.4890  0.5411  0.0227
 1905TIP3   OH227129   3.767   5.171   6.221 -0.0188  0.1923 -0.2379
 1905TIP3    H127130   3.847   5.181   6.169  1.5286 -0.0717  1.9396
 1905TIP3    H227131   3.768   5.246   6.280  1.0991 -2.0662  2.8391
 1906TIP3   OH227132   3.222   3.783  12.845 -0.4225  0.1437 -0.2527
 1906TIP3    H127133   3.188   3.754  12.760 -0.6164 -0.2307 -0.0481
 1906TIP3    H227134   3.211   3.707  12.902  2.5930 -0.7131 -0.6561
 1907TIP3   OH227135   2.545   2.394   1.598  0.0561 -0.2583 -0.5178
 1907TIP3    H127136   2.637   2.371   1.611  0.5879  0.8133 -2.1058
 1907TIP3    H227137   2.543   2.490   1.605 -0.9687 -0.2656 -0.4369
 1908TIP3   OH227138   5.793   0.084  14.221  0.1319  0.0281 -0.4494
 1908TIP3    H127139   5.842   0.113  14.298  3.3600 -1.2483 -1.7880
 1908TIP3    H227140   5.733   0.155  14.201  0.4164  1.1172  2.2332
 1909TIP3   OH227141   4.003   4.420   0.637 -0.1102 -0.0618 -0.4380
 1909TIP3    H127142   3.956   4.345   0.674  2.7788 -1.1988  1.3208
 1909TIP3    H227143   4.035   4.389   0.552 -1.6483  0.3887 -1.2073
 1910TIP3   OH227144   1.653   6.393   3.464 -0.1098  0.9767 -0.7676
 1910TIP3    H127145   1.746   6.415   3.472  0.3408 -0.8932 -0.3613
 1910TIP3    H227146   1.638   6.389   3.369  0.6070 -0.0104 -0.8663
 1911TIP3   OH227147   5.504   2.191  16.442 -0.0458  0.6033  0.3955
 1911TIP3    H127148   5.434   2.216  16.381 -0.4433  0.7201  0.8900
 1911TIP3    H227149   5.512   2.096  16.433  1.4886  0.8563 -1.5203
 1912TIP3   OH227150   3.464   5.806  15.339  0.1028  0.0220 -0.4263
 1912TIP3    H127151   3.478   5.875  15.404  1.6738  0.9743 -1.7152
 1912TIP3    H227152   3.383   5.831  15.295 -0.0842  0.2796  0.0583
 1913TIP3   OH227153   1.081   5.463   6.320  0.1011 -1.1857 -0.1636
 1913TIP3    H127154   1.107   5.549   6.286 -0.6080 -1.3327 -1.1038
 1913TIP3    H227155   1.155   5.406   6.300  1.1150 -0.5518  1.5753
 1914TIP3   OH227156   5.162   3.827  17.221 -0.4734 -0.4998 -0.1839
 1914TIP3    H127157   5.238   3.807  17.276  1.6545 -0.5057 -2.9384
 1914TIP3    H227158   5.156   3.923  17.223 -0.0984 -0.4701 -0.3086
 1915TIP3   OH227159   0.458   0.192  16.438  0.1052 -0.4484 -0.2907
 1915TIP3    H127160   0.372   0.204  16.478  0.6761  3.8541  0.1249
 1915TIP3    H227161   0.445   0.209  16.345  0.3474 -0.7826 -0.3895
 1916TIP3   OH227162   6.738   1.552  14.608 -0.5971  0.0099 -0.2687
 1916TIP3    H127163   6.754   1.646  14.605 -1.3830  0.1446 -0.4198
 1916TIP3    H227164   6.721   1.528  14.517 -3.9515  0.3872  0.1428
 1917TIP3   OH227165   5.679   6.247   6.265  0.4273  0.0725  0.3387
 1917TIP3    H127166   5.762   6.262   6.310 -0.4444 -0.3610  2.1661
 1917TIP3    H227167   5.614   6.245   6.334 -0.7178 -2.8113 -0.6568
 1918TIP3   OH227168   6.004   6.573  12.734 -0.0463  0.2828  0.5068
 1918TIP3    H127169   6.024   6.607  12.821 -2.5634  2.8665  0.2182
 1918TIP3    H227170   5.919   6.528  12.745 -0.2235  0.3333 -0.5352
 1919TIP3   OH227171   1.133   1.754   3.777 -0.5918  0.7378 -0.9427
 1919TIP3    H127172   1.045   1.721   3.796 -0.8986  1.8252 -0.3682
 1919TIP3    H227173   1.118   1.829   3.719 -0.1153  1.4010 -0.2321
 1920TIP3   OH227174   4.825   3.761  12.855 -0.5716  0.3596 -0.1529
 1920TIP3    H127175   4.757   3.694  12.853  2.2178 -2.7358 -1.8238
 1920TIP3    H227176   4.787   3.835  12.808 -2.2631 -1.8886 -2.6176
 1921TIP3   OH227177   4.437   5.540  14.543  0.5231 -0.1035  0.1770
 1921TIP3    H127178   4.509   5.534  14.606 -0.0147 -0.0130  0.8159
 1921TIP3    H227179   4.452   5.622  14.496  0.4552  0.2629  0.7880
 1922TIP3   OH227180   2.623   4.865   2.639  0.5478 -0.4910  0.2900
 1922TIP3    H127181   2.546   4.840   2.588 -1.2925  3.8472  0.5180
 1922TIP3    H227182   2.695   4.863   2.577 -0.3131 -1.6293 -0.7308
 1923TIP3   OH227183   4.615   2.700   0.083  0.3722  0.7199  0.4912
 1923TIP3    H127184   4.665   2.763   0.031 -0.0599  0.3413 -0.4135
 1923TIP3    H227185   4.588   2.634   0.019 -2.3920  1.5658  0.6861
 1924TIP3   OH227186   0.019   3.266   4.162  0.4889  0.0121 -0.1438
 1924TIP3    H127187  -0.039   3.336   4.192 -0.8530 -1.4154  0.7467
 1924TIP3    H227188   0.069   3.243   4.240  2.0382  0.9626 -0.8101
 1925TIP3   OH227189   3.259   3.084   4.266  0.1720 -0.3775 -0.3202
 1925TIP3    H127190   3.174   3.124   4.280  0.5594 -0.0498  1.3173
 1925TIP3    H227191   3.297   3.132   4.193 -0.7407 -0.0236 -0.5687
 1926TIP3   OH227192   2.406   1.702  11.371 -0.1316  0.4516 -0.3656
 1926TIP3    H127193   2.442   1.628  11.321 -2.3939 -0.9059 -0.1524
 1926TIP3    H227194   2.327   1.727  11.323 -2.9355 -1.4928  2.7704
 1927TIP3   OH227195   1.858   6.106  12.362 -0.2723 -0.1829 -0.2650
 1927TIP3    H127196   1.882   6.017  12.335 -1.4753 -0.7686  0.5193
 1927TIP3    H227197   1.807   6.094  12.442 -0.6864  1.2033 -0.3025
 1928TIP3   OH227198   3.658   4.608  11.691 -0.2603 -0.2877 -0.3038
 1928TIP3    H127199   3.725   4.551  11.727 -0.0593 -0.4002 -0.8540
 1928TIP3    H227200   3.694   4.696  11.699 -1.0037 -0.0983  1.5335
 1929TIP3   OH227201   4.041   0.705  11.266  0.2015 -0.0450  0.1352
 1929TIP3    H127202   4.021   0.613  11.283  0.1839  0.2618  2.0409
 1929TIP3    H227203   4.118   0.703  11.210  0.3391 -1.2168  0.3363
 1930TIP3   OH227204   6.347   6.754   5.525  0.0742  0.4347  0.0394
 1930TIP3    H127205   6.437   6.777   5.503  0.1715  0.2342  0.2224
 1930TIP3    H227206   6.354   6.668   5.566 -0.3262 -0.1560 -1.0888
 1931TIP3   OH227207   2.987   3.856  11.177  0.2786  0.2341 -0.0393
 1931TIP3    H127208   2.963   3.931  11.231  0.8541  0.4726 -0.1086
 1931TIP3    H227209   3.041   3.893  11.107  1.6914 -0.4184  0.6778
 1932TIP3   OH227210   4.118   0.933   5.319 -0.4340 -0.3274 -0.0752
 1932TIP3    H127211   4.051   0.996   5.342 -0.9269 -1.4132  1.6834
 1932TIP3    H227212   4.077   0.876   5.254 -0.8161 -0.2751  0.1202
 1933TIP3   OH227213   4.625   5.589  12.879  0.4409  0.7271  0.1909
 1933TIP3    H127214   4.627   5.503  12.836 -0.7496  0.0237  1.4703
 1933TIP3    H227215   4.536   5.620  12.867  0.7420  1.6069  0.1375
 1934TIP3   OH227216   0.164   5.036  16.686 -0.1239 -0.5920  0.1303
 1934TIP3    H127217   0.196   5.022  16.776 -0.1051  0.0982  0.2384
 1934TIP3    H227218   0.070   5.018  16.691 -0.9745  3.2048  1.2445
 1935TIP3   OH227219   0.527   2.755  16.135 -0.2188  0.2535 -0.3043
 1935TIP3    H127220   0.496   2.784  16.221 -1.5902  0.4566 -0.8387
 1935TIP3    H227221   0.532   2.835  16.083  2.2194  0.3806  0.0168
 1936TIP3   OH227222   5.368   3.111  14.829 -0.2594  0.4234  0.3898
 1936TIP3    H127223   5.280   3.141  14.852 -1.0582 -1.6275  0.2238
 1936TIP3    H227224   5.399   3.065  14.908 -1.4489 -3.2727 -1.1259
 1937TIP3   OH227225   2.747   3.273   1.520  0.2937  0.3003  0.2984
 1937TIP3    H127226   2.734   3.358   1.478  0.7101  1.0991  1.7071
 1937TIP3    H227227   2.770   3.295   1.610  1.6743 -1.2886  0.3656
 1938TIP3   OH227228   4.144   4.174  15.723  0.0952  0.0160  0.5228
 1938TIP3    H127229   4.236   4.192  15.745  0.0628  0.7077  0.1135
 1938TIP3    H227230   4.115   4.115  15.792  1.6905 -2.6874 -0.9466
 1939TIP3   OH227231   4.279   5.505  13.287 -0.3916 -0.3476  0.2898
 1939TIP3    H127232   4.249   5.450  13.359  0.4459  1.2979  1.9742
 1939TIP3    H227233   4.285   5.445  13.213 -1.3345 -2.0988  1.5454
 1940TIP3   OH227234   2.267   0.003   2.620 -0.1087  0.7215  0.2494
 1940TIP3    H127235   2.248   0.091   2.587 -0.4333  0.3775 -0.5057
 1940TIP3    H227236   2.249   0.008   2.714 -0.6699  1.3077  0.1141
 1941TIP3   OH227237   1.858   6.060   0.125 -0.1924  0.3819 -0.0836
 1941TIP3    H127238   1.915   6.135   0.107 -1.5631  1.3860 -0.4786
 1941TIP3    H227239   1.858   6.009   0.044  0.0275  0.4667 -0.1360
 1942TIP3   OH227240   0.088   0.011  12.223  0.6455 -0.1161 -0.2087
 1942TIP3    H127241   0.053   0.043  12.139  0.1495 -0.9736 -0.3484
 1942TIP3    H227242   0.173   0.053  12.232  0.3023  0.7018 -0.7011
 1943TIP3   OH227243   2.740   3.746   4.887  0.1170 -0.8111  0.0938
 1943TIP3    H127244   2.755   3.693   4.809  0.8837 -0.9940  0.3549
 1943TIP3    H227245   2.702   3.686   4.951 -0.9760 -0.5478 -0.2862
 1944TIP3   OH227246   3.957   6.500  14.179 -0.1198 -0.6142 -0.0268
 1944TIP3    H127247   3.865   6.496  14.150 -0.3563 -0.6956  0.7100
 1944TIP3    H227248   3.990   6.411  14.167 -0.2521 -0.6757  0.0542
 1945TIP3   OH227249   2.999   6.298   1.265 -0.3967  0.7200  0.4760
 1945TIP3    H127250   2.966   6.341   1.186  1.5875  0.7051 -0.4285
 1945TIP3    H227251   3.016   6.371   1.326  3.2452  1.4512 -1.1606
 1946TIP3   OH227252   0.394   6.122   1.104 -0.1622  0.4426 -0.2852
 1946TIP3    H127253   0.407   6.074   1.023  0.4358  2.3554 -1.3907
 1946TIP3    H227254   0.384   6.214   1.076 -4.0847  0.7529  1.3996
 1947TIP3   OH227255   4.151   1.192   2.537  0.3389  0.0882 -0.3672
 1947TIP3    H127256   4.058   1.212   2.549  0.8428  1.4522  1.6618
 1947TIP3    H227257   4.182   1.259   2.476  0.5662  1.4452  1.1851
 1948TIP3   OH227258   5.017   5.618  16.411  0.1279  0.4546 -0.5982
 1948TIP3    H127259   5.027   5.523  16.411 -0.1491  0.4063 -1.5528
 1948TIP3    H227260   5.087   5.649  16.352 -1.4446  0.5958 -2.4881
 1949TIP3   OH227261   0.926   4.900   3.995  0.2586  0.2403 -0.1566
 1949TIP3    H127262   0.872   4.956   4.051 -0.7469  1.6697 -2.4220
 1949TIP3    H227263   1.015   4.932   4.008 -0.1548  1.5762 -0.4620
 1950TIP3   OH227264   0.365   4.637   0.566 -0.1254 -0.2390 -0.6079
 1950TIP3    H127265   0.429   4.583   0.520  0.6181 -2.0448  2.2912
 1950TIP3    H227266   0.280   4.600   0.542  0.0475  0.3394 -2.2307
 1951TIP3   OH227267   5.042   1.710  13.111  0.5899  0.1438 -0.1145
 1951TIP3    H127268   5.004   1.686  13.196  0.2257 -3.2943 -1.1219
 1951TIP3    H227269   5.091   1.633  13.084  3.5335  2.3500 -1.5886
 1952TIP3   OH227270   6.522   3.860  14.937  0.1637  0.1356 -0.2951
 1952TIP3    H127271   6.579   3.931  14.965 -0.1500  0.4500 -0.4438
 1952TIP3    H227272   6.452   3.903  14.887 -0.8510 -0.1076  0.8768
 1953TIP3   OH227273   5.086   4.182   0.900 -0.0493 -0.4089 -0.2140
 1953TIP3    H127274   5.011   4.237   0.921 -0.0048 -0.4188 -0.0193
 1953TIP3    H227275   5.107   4.138   0.983  1.0051  0.6190  0.0881
 1954TIP3   OH227276   1.233   4.853  13.148  0.2505  0.1152  0.6378
 1954TIP3    H127277   1.144   4.829  13.175  0.2989  0.3695  1.0332
 1954TIP3    H227278   1.273   4.889  13.227  0.9924 -0.7920  0.6861
 1955TIP3   OH227279   5.805   2.654   4.841  0.4212  0.4122  0.4825
 1955TIP3    H127280   5.842   2.646   4.929 -2.2218  0.8031  1.7370
 1955TIP3    H227281   5.790   2.564   4.813 -1.0857  0.2948  1.5662
 1956TIP3   OH227282   3.464   1.964  16.796  0.1684 -0.9683  0.2592
 1956TIP3    H127283   3.447   2.048  16.838 -0.7599 -1.8257  1.6947
 1956TIP3    H227284   3.378   1.931  16.771  0.5137 -1.5237 -0.2269
 1957TIP3   OH227285   5.555   2.564   1.811 -0.0276  0.2196  0.3158
 1957TIP3    H127286   5.474   2.586   1.857 -0.0039  2.5732 -0.5981
 1957TIP3    H227287   5.543   2.600   1.723  1.5092 -0.5334 -0.2369
 1958TIP3   OH227288   2.154   3.894  13.709 -0.0198 -0.5359  0.2660
 1958TIP3    H127289   2.148   3.846  13.791  1.5100  1.4957  1.6771
 1958TIP3    H227290   2.077   3.951  13.709  0.6906  0.4618  1.0330
 1959TIP3   OH227291   5.734   0.726  14.679 -0.2583 -0.6464 -0.0100
 1959TIP3    H127292   5.808   0.745  14.621 -0.1336 -0.9789  0.0378
 1959TIP3    H227293   5.673   0.798  14.665 -0.2388 -0.7357 -0.5714
 1960TIP3   OH227294   6.573   0.070   0.105 -0.2676  0.0164 -0.2182
 1960TIP3    H127295   6.613   0.106   0.026 -0.3854 -1.9497 -1.2555
 1960TIP3    H227296   6.549   0.146   0.157  0.5635  1.3558 -1.7015
 1961TIP3   OH227297   0.042   3.493  14.747  0.3375 -0.0374  0.0490
 1961TIP3    H127298   0.003   3.455  14.668  0.7534  0.0132 -0.1854
 1961TIP3    H227299   0.043   3.588  14.730 -0.1624  0.0293  0.3855
 1962TIP3   OH227300   1.027   3.192  12.974  0.2944 -0.4200 -0.3020
 1962TIP3    H127301   1.045   3.277  13.014 -2.7784 -0.1672  0.8610
 1962TIP3    H227302   1.061   3.128  13.035 -1.6388  0.0160  1.3477
 1963TIP3   OH227303   0.667   4.790   5.535 -0.0110 -0.2354  0.0715
 1963TIP3    H127304   0.616   4.731   5.590  0.4099 -1.6978 -1.0647
 1963TIP3    H227305   0.631   4.877   5.554 -1.2151 -0.9333  1.1417
 1964TIP3   OH227306   0.854   3.865   0.577 -0.2377  0.1762  0.1671
 1964TIP3    H127307   0.834   3.946   0.530  1.6912 -0.4929 -2.0340
 1964TIP3    H227308   0.906   3.814   0.514 -0.5883 -2.3689  1.8117
 1965TIP3   OH227309   0.346   3.117   6.001 -0.0723  0.0044 -0.2790
 1965TIP3    H127310   0.424   3.082   6.044 -0.9837 -1.1928  0.5061
 1965TIP3    H227311   0.274   3.093   6.060 -0.9217  2.0841 -0.4028
 1966TIP3   OH227312   3.717   3.739   1.815  0.0485  0.5668  0.1476
 1966TIP3    H127313   3.792   3.680   1.816  0.2855  0.8686  0.3727
 1966TIP3    H227314   3.726   3.789   1.735  0.6629  1.3298  0.6830
 1967TIP3   OH227315   1.356   4.293   5.428 -0.1548  0.5902  0.3805
 1967TIP3    H127316   1.405   4.224   5.383  0.9094  1.1456  0.6453
 1967TIP3    H227317   1.278   4.306   5.375  0.2699  0.0859 -0.3886
 1968TIP3   OH227318   4.101   1.036  13.519  0.2489 -0.1209 -0.1207
 1968TIP3    H127319   4.185   1.081  13.522 -0.5683  1.4745 -0.0064
 1968TIP3    H227320   4.088   1.002  13.608  1.5581 -2.0003 -0.5750
 1969TIP3   OH227321   3.394   1.488  13.287 -0.3624  0.5463 -0.0124
 1969TIP3    H127322   3.406   1.393  13.282  1.5088  0.7938 -1.0048
 1969TIP3    H227323   3.362   1.503  13.376  0.9636 -0.8731  0.7450
 1970TIP3   OH227324   2.063   3.019   3.493 -0.0403 -0.3842  0.0528
 1970TIP3    H127325   2.047   2.990   3.403  0.1789  1.5852 -0.6671
 1970TIP3    H227326   2.102   2.943   3.536 -1.5990 -1.8676 -1.0537
 1971TIP3   OH227327   5.378   6.695   3.800 -0.2575 -0.3682  0.2715
 1971TIP3    H127328   5.399   6.789   3.805 -0.7113 -0.3144  2.1070
 1971TIP3    H227329   5.293   6.692   3.756  0.0848  0.0055 -0.4412
 1972TIP3   OH227330   3.232   4.793   5.077  0.0014 -0.1123  0.2117
 1972TIP3    H127331   3.241   4.765   5.168  2.6625 -1.6806 -0.4199
 1972TIP3    H227332   3.303   4.856   5.063  1.6759 -2.2109 -1.4846
 1973TIP3   OH227333   3.337   5.707   3.132 -0.0268 -0.5954  0.1626
 1973TIP3    H127334   3.264   5.687   3.074  1.4001  1.1046 -2.4299
 1973TIP3    H227335   3.317   5.793   3.168  1.0582  0.3806 -1.4067
 1974TIP3   OH227336   3.182   3.097  16.317  0.2265 -0.1080  0.1388
 1974TIP3    H127337   3.212   3.131  16.401 -1.4761  1.1280  0.2953
 1974TIP3    H227338   3.173   3.175  16.261 -1.6555 -0.5077 -0.1826
 1975TIP3   OH227339   0.299   2.476   3.532 -0.0605  0.0179  0.0675
 1975TIP3    H127340   0.279   2.569   3.539  0.1592  0.1531 -1.0163
 1975TIP3    H227341   0.381   2.472   3.483 -0.3463 -0.7719 -0.3650
 1976TIP3   OH227342   3.986   4.684   5.911 -0.1968  0.4301  0.0040
 1976TIP3    H127343   3.991   4.698   6.005  1.7066  1.0996 -0.1512
 1976TIP3    H227344   3.920   4.747   5.881 -0.9464  0.0883  0.8735
 1977TIP3   OH227345   3.438   0.515   1.113  1.0870  0.0205  0.0233
 1977TIP3    H127346   3.448   0.454   1.185 -0.1443  0.0450  0.2362
 1977TIP3    H227347   3.354   0.493   1.073  1.0659  0.9444 -0.4907
 1978TIP3   OH227348   4.993   1.709  15.553  0.2780 -0.3183 -0.8789
 1978TIP3    H127349   5.011   1.769  15.626  0.1601  1.3288 -2.1561
 1978TIP3    H227350   4.901   1.724  15.533 -0.4731 -2.8019  0.3831
 1979TIP3   OH227351   4.533   6.572  12.891 -0.0225 -0.2822  0.0347
 1979TIP3    H127352   4.592   6.634  12.847  0.5774 -1.1745 -0.4427
 1979TIP3    H227353   4.551   6.488  12.848 -1.9875 -0.4894 -0.4690
 1980TIP3   OH227354   0.646   6.415   1.174  0.3063 -0.2420 -0.0344
 1980TIP3    H127355   0.562   6.431   1.130 -0.2263 -0.9831  0.6712
 1980TIP3    H227356   0.688   6.501   1.178 -0.6503  0.2360  0.0573
 1981TIP3   OH227357   4.886   3.035   5.909  0.1862 -0.2963  0.2153
 1981TIP3    H127358   4.851   2.953   5.874  0.9845 -0.4680 -0.2022
 1981TIP3    H227359   4.819   3.100   5.890  0.6631 -0.3376 -1.8482
 1982TIP3   OH227360   0.873   2.733  12.605 -0.5767 -0.0040 -0.5781
 1982TIP3    H127361   0.940   2.726  12.538 -1.5224  2.2044 -1.8409
 1982TIP3    H227362   0.791   2.715  12.559 -0.9652 -3.0935  1.0148
 1983TIP3   OH227363   0.740   0.539  10.702  0.5845 -0.3377 -0.3363
 1983TIP3    H127364   0.773   0.457  10.666  0.4022  0.1228 -1.6073
 1983TIP3    H227365   0.644   0.529  10.700  0.4939  0.5354 -2.1257
 1984TIP3   OH227366   3.054   2.872   5.491  0.2107  0.0929  0.4716
 1984TIP3    H127367   3.145   2.850   5.475 -0.1803 -0.8435 -0.5625
 1984TIP3    H227368   3.016   2.793   5.530  0.2884  1.1459  2.8893
 1985TIP3   OH227369   1.699   3.772  16.085 -0.0278  0.3089 -0.4152
 1985TIP3    H127370   1.687   3.680  16.064  0.0920 -0.0539  0.9842
 1985TIP3    H227371   1.637   3.789  16.157 -0.5774  1.5120 -1.1363
 1986TIP3   OH227372   3.431   5.348  16.513  0.0401 -0.2142  0.0551
 1986TIP3    H127373   3.498   5.387  16.570  0.8409 -3.0339  1.2200
 1986TIP3    H227374   3.421   5.258  16.546 -1.3307 -1.1789 -2.7015
 1987TIP3   OH227375   1.270   5.845  12.043  0.2421  0.2021  0.0168
 1987TIP3    H127376   1.267   5.939  12.059  1.0596  0.8251 -2.9092
 1987TIP3    H227377   1.195   5.827  11.986  2.3202  0.0004 -2.9125
 1988TIP3   OH227378   5.010   5.146  12.696  0.6026 -0.0908 -0.1043
 1988TIP3    H127379   5.066   5.157  12.773  1.8279  4.2312 -1.3382
 1988TIP3    H227380   5.070   5.114  12.628  1.3846  2.7541 -0.9218
 1989TIP3   OH227381   3.688   1.996   5.002  0.0201  0.2131 -0.0170
 1989TIP3    H127382   3.714   2.071   5.053 -1.1153  0.2399  0.5632
 1989TIP3    H227383   3.671   1.927   5.066 -0.9861  0.1109 -0.3701
 1990TIP3   OH227384   6.196   0.277  11.657  0.8064  0.4125 -0.4796
 1990TIP3    H127385   6.145   0.348  11.619 -1.3565 -0.1671  1.1668
 1990TIP3    H227386   6.175   0.279  11.750  4.3929  0.5603  0.4850
 1991TIP3   OH227387   4.367   4.194   2.119 -0.0332  0.5522 -0.3304
 1991TIP3    H127388   4.388   4.203   2.212 -2.3581 -0.6635  0.3877
 1991TIP3    H227389   4.280   4.234   2.110 -0.5086 -0.6764 -1.6451
 1992TIP3   OH227390   5.048   2.324   0.877 -0.9157  0.2045  0.4988
 1992TIP3    H127391   5.111   2.360   0.814  0.4093  0.2385  1.7740
 1992TIP3    H227392   5.092   2.247   0.913 -1.6870  0.1180  1.2841
 1993TIP3   OH227393   1.150   3.686   1.270 -0.1965  0.0781 -0.1985
 1993TIP3    H127394   1.093   3.697   1.194  0.0390  0.9322 -0.2623
 1993TIP3    H227395   1.130   3.598   1.302  0.1899 -0.5653 -1.6472
 1994TIP3   OH227396   4.000   0.888  14.725 -0.1209 -0.3505  0.1465
 1994TIP3    H127397   3.922   0.930  14.762  0.2232 -0.2083  0.7183
 1994TIP3    H227398   4.021   0.818  14.787 -0.8213 -1.5510 -0.9064
 1995TIP3   OH227399   4.612   1.026   6.249 -0.3208  0.1352 -0.1426
 1995TIP3    H127400   4.697   0.986   6.229 -0.3839 -0.1964  0.2630
 1995TIP3    H227401   4.583   1.063   6.165 -0.3183 -0.7614 -0.5454
 1996TIP3   OH227402   2.648   5.760   3.640  0.1547 -0.2498  0.1695
 1996TIP3    H127403   2.701   5.756   3.720 -1.1408  2.9523  1.3634
 1996TIP3    H227404   2.711   5.781   3.571  0.9154  0.0910  0.9435
 1997TIP3   OH227405   2.961   1.161  13.932 -0.0381  0.1982 -0.0737
 1997TIP3    H127406   3.045   1.128  13.965  0.0145  1.2089  0.8530
 1997TIP3    H227407   2.984   1.218  13.859  0.0239 -0.0678 -0.2643
 1998TIP3   OH227408   6.752   4.870   4.990 -0.3847  0.2153  0.6541
 1998TIP3    H127409   6.813   4.798   4.998 -0.5238  0.1834  1.5406
 1998TIP3    H227410   6.807   4.948   4.984 -0.1619 -0.0654 -2.3263
 1999TIP3   OH227411   3.763   4.052   4.117 -0.7060  0.0026  0.6051
 1999TIP3    H127412   3.756   4.137   4.074  1.0086 -0.4087 -0.5709
 1999TIP3    H227413   3.758   4.073   4.211 -0.0474  1.4457  0.3496
 2000TIP3   OH227414   0.850   4.637   1.310 -0.4070  0.1612  0.2095
 2000TIP3    H127415   0.780   4.612   1.249 -0.2190 -0.5623  0.2844
 2000TIP3    H227416   0.909   4.692   1.257 -1.9493  2.3590  0.6113
 2001TIP3   OH227417   6.584   4.170  14.816  0.2777 -0.5410 -0.0826
 2001TIP3    H127418   6.601   4.135  14.728  2.0689  0.5198 -0.2101
 2001TIP3    H227419   6.511   4.231  14.804 -0.2814 -1.2909 -0.5943
 2002TIP3   OH227420   5.764   5.134  15.768 -0.4214 -0.0437 -0.0106
 2002TIP3    H127421   5.730   5.104  15.852 -1.7720  0.4885 -0.3420
 2002TIP3    H227422   5.849   5.091  15.759 -0.1410  0.0821  1.7314
 2003TIP3   OH227423   3.685   1.548  13.568  0.3148  0.0322  0.2064
 2003TIP3    H127424   3.768   1.594  13.581 -0.6006  2.2802 -1.1715
 2003TIP3    H227425   3.681   1.533  13.474 -1.8469  2.2053 -0.1374
 2004TIP3   OH227426   5.838   5.993   6.232  0.3778 -0.7030  0.3095
 2004TIP3    H127427   5.830   5.974   6.325 -1.2047 -1.5511  0.0434
 2004TIP3    H227428   5.817   6.087   6.225 -0.3445 -0.8208  0.7357
 2005TIP3   OH227429   6.255   1.028  16.688  0.0833 -0.2121  0.0724
 2005TIP3    H127430   6.348   1.045  16.699  0.2216 -1.1136  0.3567
 2005TIP3    H227431   6.211   1.108  16.719  0.6895 -0.4221  1.5378
 2006TIP3   OH227432   1.332   2.602  15.019  0.2259 -0.2607 -0.5948
 2006TIP3    H127433   1.260   2.665  15.013 -0.5717 -1.1608 -0.7958
 2006TIP3    H227434   1.373   2.604  14.933 -1.0776 -1.4476 -1.3026
 2007TIP3   OH227435   2.584   4.013  15.527 -0.3494  0.3719 -0.7582
 2007TIP3    H127436   2.539   3.975  15.451 -2.2619  1.8055 -0.4177
 2007TIP3    H227437   2.575   3.947  15.595  0.7487 -0.6230 -1.5408
 2008TIP3   OH227438   6.285   2.973  14.583  0.3966  0.2277  0.0673
 2008TIP3    H127439   6.353   2.996  14.646  0.6880  0.9470 -0.4981
 2008TIP3    H227440   6.218   2.928  14.636  1.9382 -1.8292  0.3832
 2009TIP3   OH227441   3.317   0.675  14.083 -0.1737  0.4718  0.1171
 2009TIP3    H127442   3.335   0.731  14.159  1.0784 -1.0710  1.0236
 2009TIP3    H227443   3.222   0.678  14.073 -0.5846 -0.5666  2.8268
 2010TIP3   OH227444   5.265   0.726  15.438  0.3805 -0.2607 -0.0542
 2010TIP3    H127445   5.207   0.787  15.392  0.0330 -0.4915  0.0672
 2010TIP3    H227446   5.256   0.643  15.390  0.1781 -0.4444  0.2900
 2011TIP3   OH227447   0.526   0.450   3.604 -0.5040  0.1560  0.0761
 2011TIP3    H127448   0.586   0.418   3.671  0.6071  2.3847  0.2619
 2011TIP3    H227449   0.534   0.388   3.533 -1.3767 -2.0357  1.7775
 2012TIP3   OH227450   3.081   3.061  12.714 -0.6277 -0.1296  0.8168
 2012TIP3    H127451   3.045   3.070  12.626  0.2166 -1.0810  0.3579
 2012TIP3    H227452   3.085   3.151  12.747 -0.5006  0.2878 -0.2914
 2013TIP3   OH227453   3.296   4.392   6.382  0.6943  0.1910  0.0773
 2013TIP3    H127454   3.339   4.353   6.306 -1.1237 -1.7109 -0.0527
 2013TIP3    H227455   3.334   4.346   6.457  1.0792  0.6877  0.1918
 2014TIP3   OH227456   6.251   5.068   0.163 -0.3830  0.1439  0.0496
 2014TIP3    H127457   6.238   4.973   0.164 -3.3857  0.3980 -1.6594
 2014TIP3    H227458   6.269   5.091   0.254  0.1524 -2.0281  0.5498
 2015TIP3   OH227459   6.318   4.366  11.732 -0.0047 -0.7491  0.9476
 2015TIP3    H127460   6.311   4.457  11.702 -1.3659 -0.2956  2.4733
 2015TIP3    H227461   6.238   4.324  11.700 -0.4705 -0.7906  2.1081
 2016TIP3   OH227462   2.746   5.535  12.687  0.2019  0.0852 -0.3972
 2016TIP3    H127463   2.698   5.599  12.739  0.6107 -0.2774  0.4436
 2016TIP3    H227464   2.788   5.587  12.618 -0.9305  0.4688 -0.8084
 2017TIP3   OH227465   3.179   5.114  14.812 -0.0731 -0.0878 -0.0186
 2017TIP3    H127466   3.169   5.024  14.779 -0.5256 -0.1796  0.3522
 2017TIP3    H227467   3.196   5.166  14.734  0.0655 -0.4790 -0.2552
 2018TIP3   OH227468   2.131   2.253  14.954  0.0611 -0.6531  0.5919
 2018TIP3    H127469   2.115   2.287  14.866 -0.3060  0.4771  1.0835
 2018TIP3    H227470   2.089   2.316  15.012 -0.5754 -1.9209  1.5417
 2019TIP3   OH227471   1.755   3.111   2.680  0.8028 -0.2173  0.1920
 2019TIP3    H127472   1.805   3.029   2.680  0.7883 -0.2370  1.0012
 2019TIP3    H227473   1.819   3.178   2.655  1.0320 -0.3589  0.3864
 2020TIP3   OH227474   2.184   6.123  12.468 -0.2964 -0.3153  0.1193
 2020TIP3    H127475   2.124   6.151  12.537 -1.8601 -1.5322 -0.6906
 2020TIP3    H227476   2.249   6.193  12.463 -2.3107  1.6591  0.2429
 2021TIP3   OH227477   1.738   1.512   3.430 -0.8939  0.3184  0.4717
 2021TIP3    H127478   1.763   1.525   3.338  0.6317  2.1514  1.0838
 2021TIP3    H227479   1.672   1.578   3.446 -1.0457  0.1020  0.7368
 2022TIP3   OH227480   4.529   0.312  12.074 -0.0852 -0.4081 -0.2271
 2022TIP3    H127481   4.448   0.266  12.097 -0.3755 -0.0179 -0.4616
 2022TIP3    H227482   4.594   0.279  12.136 -0.5625 -0.2986  0.3349
 2023TIP3   OH227483   0.575   2.121   4.841  0.1934  0.1872  0.2435
 2023TIP3    H127484   0.543   2.178   4.911  0.4704  0.6444  0.0027
 2023TIP3    H227485   0.657   2.161   4.812 -0.0524  0.1561 -0.5235
 2024TIP3   OH227486   2.364   5.252  16.832 -0.2507 -0.4988 -0.1286
 2024TIP3    H127487   2.347   5.303  16.911  0.7374  1.3476 -1.0345
 2024TIP3    H227488   2.453   5.220  16.841 -0.3097 -0.7060 -0.2659
 2025TIP3   OH227489   5.020   6.236   3.141 -0.1667 -0.2410  0.1267
 2025TIP3    H127490   5.089   6.257   3.077  0.9830  1.2997  1.7665
 2025TIP3    H227491   4.953   6.302   3.125  0.1453  0.1783  0.5406
 2026TIP3   OH227492   3.362   3.227   1.198  0.2135  0.3767 -0.0168
 2026TIP3    H127493   3.438   3.245   1.253 -0.6800 -1.2549  1.8511
 2026TIP3    H227494   3.395   3.166   1.131  0.5036 -0.6351  1.0133
 2027TIP3   OH227495   0.604   2.139  11.375 -0.1688 -0.1095 -0.4734
 2027TIP3    H127496   0.592   2.190  11.455 -1.1830 -0.2493 -0.5245
 2027TIP3    H227497   0.630   2.203  11.309 -1.5797  0.3839 -0.5736
 2028TIP3   OH227498   0.873   5.493   4.975  0.6515 -0.6042  0.6820
 2028TIP3    H127499   0.968   5.481   4.970  0.9058  1.5450 -1.0760
 2028TIP3    H227500   0.852   5.554   4.904 -2.5167 -3.5650 -1.3069
 2029TIP3   OH227501   5.957   3.402   6.621  0.5131 -0.2508 -0.0442
 2029TIP3    H127502   5.997   3.334   6.674 -0.1959 -0.0430  0.7682
 2029TIP3    H227503   5.930   3.357   6.541  1.1220 -0.6683 -0.0246
 2030TIP3   OH227504   0.282   2.325  11.799 -0.1883  0.1546  0.2682
 2030TIP3    H127505   0.307   2.233  11.789  0.3286  0.4459 -1.6996
 2030TIP3    H227506   0.189   2.323  11.818 -0.0147 -0.7944  1.1015
 2031TIP3   OH227507   1.403   0.687  12.697  0.1573  0.6917 -0.2456
 2031TIP3    H127508   1.427   0.628  12.768  0.1303  0.4628 -0.4276
 2031TIP3    H227509   1.474   0.680  12.634 -1.0556 -1.1597 -1.5194
 2032TIP3   OH227510   5.324   3.472  14.861 -0.0335  0.0318 -0.5078
 2032TIP3    H127511   5.315   3.390  14.813 -0.9826 -0.4294  0.4340
 2032TIP3    H227512   5.418   3.486  14.867  0.2225 -1.9355  0.9142
 2033TIP3   OH227513   5.928   1.995  16.024 -0.0779 -0.1553  0.0731
 2033TIP3    H127514   5.925   1.912  15.977 -1.8042  0.5820 -1.2312
 2033TIP3    H227515   5.873   1.981  16.100 -1.8542  0.2876 -1.0857
 2034TIP3   OH227516   2.359   0.348   3.933  0.2939 -0.1138  0.7525
 2034TIP3    H127517   2.388   0.258   3.925  0.9583  0.2585 -2.1622
 2034TIP3    H227518   2.430   0.400   3.896 -0.7817  1.4704  0.7770
 2035TIP3   OH227519   0.786   4.603   6.399  0.4068  0.5860  0.6460
 2035TIP3    H127520   0.839   4.682   6.408  1.5746  0.0557 -1.1616
 2035TIP3    H227521   0.765   4.598   6.306 -1.0126 -0.3830  0.9873
 2036TIP3   OH227522   0.397   1.671  16.829  0.0558  0.6428 -0.1244
 2036TIP3    H127523   0.488   1.693  16.850  0.2133 -1.0738  1.2436
 2036TIP3    H227524   0.349   1.753  16.843  1.4426  1.7223 -1.4419
 2037TIP3   OH227525   2.287   5.345  16.606  0.2105  0.0225 -0.1257
 2037TIP3    H127526   2.205   5.390  16.624  0.6375  1.0357 -0.6471
 2037TIP3    H227527   2.317   5.315  16.692 -0.8375 -0.6153  0.0294
 2038TIP3   OH227528   5.615   5.891  12.862 -1.0551  0.4132 -0.0769
 2038TIP3    H127529   5.671   5.924  12.932 -1.2785 -2.0434  1.3719
 2038TIP3    H227530   5.557   5.964  12.841  1.1455  2.2837 -0.0400
 2039TIP3   OH227531   3.742   3.393   1.723 -0.0036  0.3218  0.4253
 2039TIP3    H127532   3.779   3.314   1.762 -1.2635 -0.8044 -0.5526
 2039TIP3    H227533   3.810   3.426   1.665 -0.5907 -2.0401 -1.7907
 2040TIP3   OH227534   0.209   3.633   6.572 -0.3938 -0.1057  0.4176
 2040TIP3    H127535   0.235   3.724   6.586  0.6559 -0.2209 -0.5632
 2040TIP3    H227536   0.116   3.630   6.594 -0.1772  0.9468  1.5238
 2041TIP3   OH227537   2.169   3.227  14.857 -0.0454  0.5553  0.6348
 2041TIP3    H127538   2.234   3.225  14.787 -0.5279  0.7495  0.1766
 2041TIP3    H227539   2.084   3.224  14.812 -0.3579 -0.4217  1.2475
 2042TIP3   OH227540   1.189   0.244  12.100 -0.2231 -0.1454  0.7640
 2042TIP3    H127541   1.207   0.167  12.045  0.6918  0.2450  0.4858
 2042TIP3    H227542   1.155   0.208  12.181  0.8202 -0.9132  0.8892
 2043TIP3   OH227543   3.830   0.680   1.726 -0.3424 -0.0987  0.8098
 2043TIP3    H127544   3.737   0.680   1.749 -0.0258  1.1025  2.2876
 2043TIP3    H227545   3.874   0.706   1.807  1.3450 -1.2707  0.3190
 2044TIP3   OH227546   4.427   3.594   1.598  0.3134  0.7012 -0.6620
 2044TIP3    H127547   4.490   3.660   1.628  0.7904 -0.4476  1.0100
 2044TIP3    H227548   4.481   3.526   1.559 -0.1274  0.9851 -1.7928
 2045TIP3   OH227549   5.345   5.694   3.250  0.0861 -0.1334 -0.0557
 2045TIP3    H127550   5.341   5.665   3.341 -4.0271 -1.2338 -0.3431
 2045TIP3    H227551   5.423   5.652   3.215 -0.0568 -2.5460  2.1764
 2046TIP3   OH227552   5.239   3.610   6.448 -0.1293  0.6178  0.9966
 2046TIP3    H127553   5.175   3.675   6.419  0.1125  1.6201  2.5851
 2046TIP3    H227554   5.204   3.527   6.417 -1.1610  1.3517  0.0941
 2047TIP3   OH227555   4.100   0.018  12.264  0.4026 -0.1146 -0.7662
 2047TIP3    H127556   4.073   0.059  12.182 -2.2506 -0.7039 -0.3007
 2047TIP3    H227557   4.049  -0.063  12.269  0.4530 -0.0935  1.4470
 2048TIP3   OH227558   3.973   0.787  14.449  0.0464 -0.8068  0.5577
 2048TIP3    H127559   3.959   0.824  14.536 -0.4860  0.1928  0.0640
 2048TIP3    H227560   3.900   0.820  14.397 -0.1265 -2.0898 -0.0715
 2049TIP3   OH227561   4.641   5.777   1.132 -0.6854  0.2897  0.0042
 2049TIP3    H127562   4.680   5.739   1.211 -1.7013 -0.5815  0.1021
 2049TIP3    H227563   4.694   5.743   1.060 -0.4633  0.1632  0.2263
 2050TIP3   OH227564   5.297   0.865   0.867  0.2145 -0.5202 -0.0235
 2050TIP3    H127565   5.222   0.853   0.809  0.4120  1.7745 -0.8807
 2050TIP3    H227566   5.258   0.881   0.953 -0.2395 -0.5283 -0.2257
 2051TIP3   OH227567   0.339   2.427  11.111  0.6488 -0.3492 -0.2273
 2051TIP3    H127568   0.297   2.505  11.074  0.5018 -0.3813 -0.1309
 2051TIP3    H227569   0.297   2.354  11.066 -0.7736 -0.4693  1.2017
 2052TIP3   OH227570   3.791   2.919   3.854 -0.5394  0.0869 -0.6216
 2052TIP3    H127571   3.730   2.845   3.850  1.8378 -1.9916 -2.2208
 2052TIP3    H227572   3.797   2.940   3.947 -2.0130 -1.1054 -0.2068
 2053TIP3   OH227573   0.250   2.852  17.222  0.2956 -0.2710  0.2048
 2053TIP3    H127574   0.334   2.820  17.190  0.8510  2.5251 -1.4526
 2053TIP3    H227575   0.271   2.895  17.305  0.3741 -0.1436  0.1182
 2054TIP3   OH227576   5.421   5.211   5.561  0.0561 -0.1435  0.1423
 2054TIP3    H127577   5.356   5.141   5.573 -0.5775  0.7163  2.1192
 2054TIP3    H227578   5.405   5.271   5.634  2.5318  0.5443  0.1942
 2055TIP3   OH227579   0.378   5.137  16.002  0.0878  0.2154  0.1571
 2055TIP3    H127580   0.433   5.116  16.078 -0.8890  0.7736  1.0450
 2055TIP3    H227581   0.305   5.075  16.008  0.2577 -0.0700 -0.6209
 2056TIP3   OH227582   0.682   3.279   4.500  0.8155 -0.3987  0.1104
 2056TIP3    H127583   0.717   3.364   4.524  1.7090 -1.2654  2.1914
 2056TIP3    H227584   0.587   3.290   4.504  0.9233  0.2236  1.5698
 2057TIP3   OH227585   0.255   0.863   3.536 -0.7467 -0.3287 -0.3432
 2057TIP3    H127586   0.321   0.928   3.511 -2.4153  0.5346 -2.8394
 2057TIP3    H227587   0.242   0.878   3.630  0.8349  1.1347 -0.2974
 2058TIP3   OH227588   1.918   0.864  15.303 -0.4468 -0.1991  0.4579
 2058TIP3    H127589   1.835   0.910  15.290 -1.0296 -1.4423 -0.5429
 2058TIP3    H227590   1.910   0.824  15.389 -0.6377  0.1986  0.6258
 2059TIP3   OH227591   4.760   4.775   5.622  0.1865 -0.1165 -0.3717
 2059TIP3    H127592   4.716   4.752   5.704  2.3967  0.4279  1.0742
 2059TIP3    H227593   4.744   4.700   5.565 -0.2856 -1.1566  1.0470
 2060TIP3   OH227594   6.667   4.471   3.852 -0.1691  0.0346 -0.4744
 2060TIP3    H127595   6.748   4.519   3.835  0.8017 -1.1201  0.7640
 2060TIP3    H227596   6.694   4.391   3.895 -2.1560  1.4061  3.8998
 2061TIP3   OH227597   5.274   3.562  17.134  0.6052  0.3191  0.4437
 2061TIP3    H127598   5.219   3.637  17.156  0.3271  0.7818 -1.5901
 2061TIP3    H227599   5.212   3.490  17.124  0.2884  0.8106 -1.7145
 2062TIP3   OH227600   1.547   2.084  12.390  0.1879 -0.4268 -0.0010
 2062TIP3    H127601   1.463   2.128  12.379  0.5469  0.2374 -0.1435
 2062TIP3    H227602   1.542   2.007  12.334  0.5492  0.8578 -1.8756
 2063TIP3   OH227603   1.560   0.055  11.307  0.1871  0.1028 -0.1086
 2063TIP3    H127604   1.500   0.044  11.233 -0.9367  3.2487  0.1809
 2063TIP3    H227605   1.503   0.049  11.384  0.8235 -0.0398  0.3608
 2064TIP3   OH227606   5.270   2.679  11.871  0.0227  0.2298 -0.4522
 2064TIP3    H127607   5.234   2.726  11.796  0.3785  0.5725 -0.4122
 2064TIP3    H227608   5.284   2.746  11.937 -1.1923 -0.2180  0.2851
 2065TIP3   OH227609   1.703   3.596   6.770  0.5882  0.2622  0.6135
 2065TIP3    H127610   1.674   3.519   6.818 -1.3374  0.1358 -0.6405
 2065TIP3    H227611   1.655   3.592   6.687  3.8217  0.3779 -1.4227
 2066TIP3   OH227612   3.842   1.140   2.321 -0.5744  0.4123 -0.0207
 2066TIP3    H127613   3.754   1.150   2.358  0.1319 -2.2255  2.7588
 2066TIP3    H227614   3.900   1.184   2.384  0.2503  0.7556 -0.9906
 2067TIP3   OH227615   0.272   3.578  14.402  0.1935 -0.0239  0.0321
 2067TIP3    H127616   0.262   3.584  14.497 -1.9150  0.1139 -0.1501
 2067TIP3    H227617   0.357   3.617  14.384  0.1398  0.9797  1.7697
 2068TIP3   OH227618   3.503   5.914  17.253  0.5443  0.0907 -0.4280
 2068TIP3    H127619   3.454   5.996  17.262 -0.0290 -0.4457  2.2319
 2068TIP3    H227620   3.544   5.920  17.167 -2.9124  1.2736 -2.2138
 2069TIP3   OH227621   4.705   2.461  12.918 -0.2383  0.0507  0.3907
 2069TIP3    H127622   4.612   2.439  12.918 -0.2600  0.0716 -1.3209
 2069TIP3    H227623   4.750   2.379  12.938 -0.5142 -0.7038 -1.8548
 2070TIP3   OH227624   1.063   2.114   5.888 -0.1038 -0.4449 -0.2329
 2070TIP3    H127625   1.101   2.038   5.933  2.3929  0.7981 -0.0669
 2070TIP3    H227626   1.112   2.189   5.922 -0.4486  0.9257 -2.5509
 2071TIP3   OH227627   2.770   2.694   4.403 -0.7941  0.1304 -0.2570
 2071TIP3    H127628   2.744   2.720   4.491 -0.2697 -2.4089  0.7244
 2071TIP3    H227629   2.855   2.652   4.414 -0.3891  0.3868 -2.0999
 2072TIP3   OH227630   2.149   4.233  10.886 -0.0277  0.0591  0.1822
 2072TIP3    H127631   2.085   4.162  10.889 -0.9499  0.8966  1.0976
 2072TIP3    H227632   2.124   4.286  10.810  0.4448 -0.3885 -0.2915
 2073TIP3   OH227633   5.981   5.381  14.515  0.1326  0.2690  0.0846
 2073TIP3    H127634   6.051   5.315  14.519 -0.3559 -0.3534 -1.2165
 2073TIP3    H227635   5.907   5.341  14.561 -0.0427  0.0535 -0.3796
 2074TIP3   OH227636   2.199   4.741  14.312  0.1571 -0.2416 -0.0536
 2074TIP3    H127637   2.283   4.722  14.354  0.8188 -2.3743 -2.0996
 2074TIP3    H227638   2.219   4.812  14.250  0.4299 -0.5914 -0.3754
 2075TIP3   OH227639   4.479   3.173   6.643 -0.1146  0.2911 -0.1149
 2075TIP3    H127640   4.470   3.153   6.550  0.1228  0.9854 -0.2898
 2075TIP3    H227641   4.391   3.166   6.678 -0.1235 -0.5229 -0.2766
 2076TIP3   OH227642   5.824   1.740   1.577  0.6852 -0.1168  0.5421
 2076TIP3    H127643   5.769   1.765   1.652 -1.8611  0.1913 -1.3074
 2076TIP3    H227644   5.827   1.818   1.523  0.3411 -1.0746 -0.8980
 2077TIP3   OH227645   6.221   5.538   2.032 -0.3373 -0.2418 -0.3467
 2077TIP3    H127646   6.303   5.578   2.004 -0.5776 -0.1684 -0.9600
 2077TIP3    H227647   6.247   5.472   2.096  0.3405 -1.3145 -1.6940
 2078TIP3   OH227648   5.068   1.110  16.389 -0.0936 -0.2246  0.1354
 2078TIP3    H127649   5.065   1.200  16.422  1.6740 -1.2733  3.5071
 2078TIP3    H227650   4.983   1.073  16.413  0.0307 -0.0908  0.7991
 2079TIP3   OH227651   4.421   1.698  16.336  0.4356 -0.7034 -0.1811
 2079TIP3    H127652   4.335   1.657  16.343 -0.2416  0.7522  0.7382
 2079TIP3    H227653   4.422   1.737  16.249 -0.3096  0.1903  0.1873
 2080TIP3   OH227654   1.357   6.260   3.009  0.4121 -0.0303 -0.2321
 2080TIP3    H127655   1.282   6.206   2.984  0.2700  0.6431 -1.3512
 2080TIP3    H227656   1.433   6.209   2.982  0.2613  0.8444 -2.5983
 2081TIP3   OH227657   3.734   3.537   4.108  0.2352  0.1190  0.0804
 2081TIP3    H127658   3.646   3.503   4.090  0.5505 -0.7863  0.2165
 2081TIP3    H227659   3.761   3.580   4.027 -1.0501  2.0460  0.5926
 2082TIP3   OH227660   0.751   0.852  10.692  0.0108 -0.0764 -0.7237
 2082TIP3    H127661   0.710   0.772  10.724 -0.9158 -0.2674 -2.2719
 2082TIP3    H227662   0.783   0.829  10.605  0.9475  0.8654 -0.6407
 2083TIP3   OH227663   5.855   5.834   6.014 -0.7312 -0.1768 -0.3528
 2083TIP3    H127664   5.852   5.871   6.102 -0.6762  1.2949 -0.9421
 2083TIP3    H227665   5.764   5.813   5.994 -0.7738 -0.3049 -0.0255
 2084TIP3   OH227666   3.414   3.877   2.955  0.2002  0.1802 -0.1893
 2084TIP3    H127667   3.413   3.784   2.979 -1.2719  0.1334 -0.3619
 2084TIP3    H227668   3.360   3.920   3.021 -1.4967  0.4768 -1.6993
 2085TIP3   OH227669   4.890   5.995  12.123 -0.0246 -0.0972  0.4895
 2085TIP3    H127670   4.860   6.017  12.212  0.1859  0.6379  0.3808
 2085TIP3    H227671   4.870   6.072  12.071  1.0609 -0.0063  0.1812
 2086TIP3   OH227672   2.017   1.113  14.979  0.1849 -0.3347  0.1720
 2086TIP3    H127673   1.956   1.054  15.023  0.6928 -1.8858 -1.1263
 2086TIP3    H227674   1.966   1.194  14.966  0.0030  0.2448  3.4795
 2087TIP3   OH227675   2.611   5.123  14.157  0.1327  0.5340  0.3534
 2087TIP3    H127676   2.643   5.146  14.070 -0.5910 -1.5352 -0.5230
 2087TIP3    H227677   2.517   5.108  14.146  0.5446 -3.3131  0.5450
 2088TIP3   OH227678   6.536   0.092   3.399  0.0502 -0.0394  0.4322
 2088TIP3    H127679   6.540   0.087   3.494 -0.4497 -2.4047  0.3953
 2088TIP3    H227680   6.449   0.126   3.380 -0.1695 -0.3834  0.8187
 2089TIP3   OH227681   0.824   6.025  12.583  0.0079 -0.1743  0.3445
 2089TIP3    H127682   0.788   6.090  12.643  0.8702  1.4227 -0.7715
 2089TIP3    H227683   0.751   6.003  12.525 -0.3730 -0.4237  0.9224
 2090TIP3   OH227684   4.194   2.444  12.548 -0.4674  0.8065  0.5025
 2090TIP3    H127685   4.289   2.435  12.554 -0.4507  1.1588  0.8178
 2090TIP3    H227686   4.169   2.383  12.479 -0.0363  0.5534  0.5604
 2091TIP3   OH227687   0.517   1.022   5.450  0.0054  0.2866  0.0351
 2091TIP3    H127688   0.467   1.047   5.529 -1.9926 -1.2873 -0.6364
 2091TIP3    H227689   0.502   1.094   5.389 -1.1709  0.0402 -0.0005
 2092TIP3   OH227690   0.287   5.540   0.727  0.0486 -0.0252 -0.3014
 2092TIP3    H127691   0.262   5.451   0.750 -0.0736 -0.3141 -1.5115
 2092TIP3    H227692   0.353   5.531   0.659  1.9763  0.7809  1.3516
 2093TIP3   OH227693   6.293   0.934   5.780  0.3857  0.2294 -0.7037
 2093TIP3    H127694   6.340   0.974   5.853 -0.8682 -0.9980  0.8407
 2093TIP3    H227695   6.227   0.999   5.756 -0.8764 -0.3413  1.0138
 2094TIP3   OH227696   0.865   0.475   4.138 -0.5297 -0.4153  0.5701
 2094TIP3    H127697   0.913   0.505   4.061 -0.7938  0.3626  0.7005
 2094TIP3    H227698   0.913   0.512   4.212  1.1271 -3.0931  0.9458
 2095TIP3   OH227699   4.549   6.371  14.561 -0.1119  0.4284  0.0414
 2095TIP3    H127700   4.501   6.401  14.638  0.3565 -0.4126  0.6816
 2095TIP3    H227701   4.512   6.285  14.542 -1.3107  1.2437 -1.6555
 2096TIP3   OH227702   5.199   5.904  15.670  0.0110  0.1764 -0.4401
 2096TIP3    H127703   5.262   5.930  15.737  0.1157  0.1617 -0.5322
 2096TIP3    H227704   5.244   5.921  15.587  0.1254 -0.3969 -0.5012
 2097TIP3   OH227705   5.195   6.586   0.638  0.1001  0.3789 -0.0957
 2097TIP3    H127706   5.124   6.636   0.677  0.1684 -0.3128  0.9598
 2097TIP3    H227707   5.190   6.500   0.680  0.9462  0.0077 -0.7242
 2098TIP3   OH227708   4.950   0.930  14.124  0.7269  0.0377 -0.0173
 2098TIP3    H127709   4.931   0.838  14.107 -2.7037  0.9793 -2.3119
 2098TIP3    H227710   4.928   0.942  14.216 -0.2143 -1.1739 -0.0487
 2099TIP3   OH227711   3.128   4.000  12.221 -0.2157  0.5124 -0.7452
 2099TIP3    H127712   3.146   3.994  12.128  1.8537  0.5812 -0.3858
 2099TIP3    H227713   3.033   4.016  12.226 -0.4509 -0.0134 -2.7846
 2100TIP3   OH227714   3.369   3.411   2.835  0.4966  0.1786  0.3810
 2100TIP3    H127715   3.404   3.330   2.798 -0.1374 -0.6284  1.4798
 2100TIP3    H227716   3.444   3.471   2.835  0.2492  0.7061 -3.3463
 2101TIP3   OH227717   1.085   3.406  13.689  0.4696 -0.0459 -0.1941
 2101TIP3    H127718   1.037   3.345  13.745  0.3570  0.2095 -0.0128
 2101TIP3    H227719   1.033   3.413  13.609 -1.3801  2.4674  1.0832
 2102TIP3   OH227720   3.935   4.252  15.009  0.5162  0.3058 -0.7825
 2102TIP3    H127721   3.973   4.289  15.089  1.1023  0.1141 -0.9655
 2102TIP3    H227722   3.889   4.174  15.038 -0.7151  1.1538 -0.3962
 2103TIP3   OH227723   4.149   4.306   1.456  0.0481 -0.5189  0.2757
 2103TIP3    H127724   4.116   4.270   1.374 -1.5626  0.1988  0.5824
 2103TIP3    H227725   4.151   4.401   1.441  1.6663 -0.4950  0.4087
 2104TIP3   OH227726   3.039   6.084  17.168 -0.3404  0.1591  0.2508
 2104TIP3    H127727   3.055   6.177  17.184 -1.1184  0.3565 -0.0512
 2104TIP3    H227728   2.976   6.059  17.235 -1.9683  0.4582 -1.0950
 2105TIP3   OH227729   4.288   0.941   2.748  0.2190  0.1819 -0.1730
 2105TIP3    H127730   4.316   0.897   2.668 -0.4464 -1.7833  0.6130
 2105TIP3    H227731   4.198   0.912   2.762 -0.5396  2.4305  0.0165
 2106TIP3   OH227732   1.371   5.620   4.805  0.4579 -0.2059 -0.2089
 2106TIP3    H127733   1.276   5.632   4.797  0.1954 -2.5796 -1.5842
 2106TIP3    H227734   1.402   5.702   4.843 -2.3185  0.0538  1.8454
 2107TIP3   OH227735   2.045   2.275  11.569  0.0354 -0.2929 -0.5501
 2107TIP3    H127736   2.112   2.249  11.506  2.0908  0.5074  1.1720
 2107TIP3    H227737   2.090   2.335  11.628 -2.3315  0.5533  0.5073
 2108TIP3   OH227738   0.670   0.218  16.239 -0.4691  0.4979  0.0861
 2108TIP3    H127739   0.642   0.245  16.151  1.8565 -0.1194 -0.9142
 2108TIP3    H227740   0.665   0.298  16.291 -0.4488  1.2143 -0.9865
 2109TIP3   OH227741   2.169   1.815   4.401  0.5959  0.3180  0.2322
 2109TIP3    H127742   2.235   1.799   4.468  0.3274  2.3316  1.0572
 2109TIP3    H227743   2.130   1.729   4.384  1.3429 -0.4025  1.9406
 2110TIP3   OH227744   3.427   3.902   3.839 -0.1545 -0.0050  0.0039
 2110TIP3    H127745   3.455   3.909   3.747  2.0994  1.2518  0.7151
 2110TIP3    H227746   3.337   3.936   3.839 -0.5190 -0.8186 -1.8306
 2111TIP3   OH227747   0.692   4.358  12.690  0.7560 -0.5740  0.0996
 2111TIP3    H127748   0.677   4.270  12.654 -1.8781 -0.4470  0.6328
 2111TIP3    H227749   0.653   4.417  12.625 -2.0202 -0.2080  1.8990
 2112TIP3   OH227750   1.792   2.171  17.046  1.4400 -0.1717  0.0316
 2112TIP3    H127751   1.815   2.084  17.014  2.9592  0.0367  0.4466
 2112TIP3    H227752   1.802   2.165  17.141  3.3032  0.8798 -0.0485
 2113TIP3   OH227753   3.567   2.194   1.314  0.0396  0.2391 -0.6472
 2113TIP3    H127754   3.552   2.200   1.220 -0.6289  1.3103 -0.4953
 2113TIP3    H227755   3.542   2.280   1.348 -1.0210 -0.5386  0.6767
 2114TIP3   OH227756   1.343   1.744   3.257  0.5909 -0.2593  0.1002
 2114TIP3    H127757   1.288   1.672   3.226 -1.6574  0.8161  1.3346
 2114TIP3    H227758   1.322   1.817   3.199  4.4209 -0.9447 -2.5243
 2115TIP3   OH227759   3.726   0.455  15.340 -0.1995 -0.1381  0.2106
 2115TIP3    H127760   3.632   0.440  15.336 -0.4280  1.1791  0.0604
 2115TIP3    H227761   3.734   0.547  15.366  1.0557 -0.4052  0.8515
 2116TIP3   OH227762   1.983   4.624   0.472  0.1671 -0.0125  0.4479
 2116TIP3    H127763   2.076   4.647   0.471  0.4352 -0.9854  1.2579
 2116TIP3    H227764   1.952   4.647   0.384  1.9666 -2.6547 -1.0362
 2117TIP3   OH227765   4.486   4.908  16.816  0.2887  0.3720 -0.3147
 2117TIP3    H127766   4.499   4.990  16.769  1.7328 -0.5239 -1.6240
 2117TIP3    H227767   4.538   4.918  16.896 -1.0018  1.3685  0.4330
 2118TIP3   OH227768   0.536   6.003   0.832 -0.1390  0.0483 -0.2293
 2118TIP3    H127769   0.505   5.912   0.833  0.4013 -0.1519 -0.9120
 2118TIP3    H227770   0.576   6.014   0.746  0.9252  0.5479  0.3003
 2119TIP3   OH227771   2.252   5.566  11.096 -0.2255 -0.0828  0.0754
 2119TIP3    H127772   2.216   5.599  11.179 -0.3632  0.4619 -0.1921
 2119TIP3    H227773   2.186   5.504  11.065 -0.5108  0.2397  0.0282
 2120TIP3   OH227774   5.655   0.560  12.575 -0.4206  0.1209  0.1192
 2120TIP3    H127775   5.611   0.615  12.639 -0.0734 -1.7274  2.0515
 2120TIP3    H227776   5.668   0.617  12.499  1.3443  3.2057  2.5142
 2121TIP3   OH227777   4.682   0.921   0.398  0.1628 -0.2172  0.0550
 2121TIP3    H127778   4.720   0.850   0.347 -1.3229 -1.1785  0.2175
 2121TIP3    H227779   4.596   0.937   0.358 -0.5898 -0.2766  1.5653
 2122TIP3   OH227780   6.079   5.412  13.638  0.8043  0.5639  0.0612
 2122TIP3    H127781   6.002   5.464  13.658  0.2561 -0.6011  1.0844
 2122TIP3    H227782   6.147   5.477  13.617  0.0654  1.6630  0.9909
 2123TIP3   OH227783   1.708   4.636   4.553 -0.4496  0.8002 -0.1486
 2123TIP3    H127784   1.719   4.575   4.480  0.5295 -0.6229  1.1117
 2123TIP3    H227785   1.749   4.717   4.523 -0.3105  0.3353 -1.2639
 2124TIP3   OH227786   4.466   4.791   3.935 -0.0824 -0.3563  0.1835
 2124TIP3    H127787   4.487   4.702   3.963 -2.1153 -0.7298  0.6673
 2124TIP3    H227788   4.388   4.814   3.985  1.0264  2.1603  0.9304
 2125TIP3   OH227789   1.583   3.698   6.080 -1.0700  0.0374  0.4626
 2125TIP3    H127790   1.503   3.740   6.111 -2.5024 -1.5552 -0.8744
 2125TIP3    H227791   1.618   3.652   6.156 -1.0408  1.2502  1.2138
 2126TIP3   OH227792   6.236   4.904  14.565 -0.5645  0.4364  0.0144
 2126TIP3    H127793   6.307   4.899  14.501 -0.4695  1.3315  0.0322
 2126TIP3    H227794   6.258   4.840  14.631  0.1973  0.6574 -0.0167
 2127TIP3   OH227795   0.893   4.700  15.536 -0.4205  0.2262 -0.0007
 2127TIP3    H127796   0.932   4.679  15.621 -0.2932 -0.8346 -0.3139
 2127TIP3    H227797   0.823   4.762  15.556  0.6409  1.2267  0.7000
 2128TIP3   OH227798   5.175   4.636   4.717 -0.0224  0.5935 -0.5390
 2128TIP3    H127799   5.267   4.651   4.695 -0.1178  0.5009 -1.0081
 2128TIP3    H227800   5.126   4.691   4.656 -0.2517  1.6964  0.5846
 2129TIP3   OH227801   5.395   0.795   4.334  0.1014  0.1318  1.2193
 2129TIP3    H127802   5.478   0.828   4.369  1.6049 -2.2660  0.1404
 2129TIP3    H227803   5.378   0.715   4.383 -0.4210 -0.5569 -0.0312
 2130TIP3   OH227804   1.621   5.311  16.689 -0.4177 -0.3376  0.7200
 2130TIP3    H127805   1.671   5.329  16.609 -1.8660  0.6801  0.0137
 2130TIP3    H227806   1.681   5.337  16.760 -0.3290  2.0349 -0.1352
 2131TIP3   OH227807   1.021   3.976  13.081 -0.4260  0.5527  0.2070
 2131TIP3    H127808   1.051   4.064  13.106 -0.3086  0.1346  1.6137
 2131TIP3    H227809   1.102   3.927  13.065 -0.4818  0.5916 -0.2011
 2132TIP3   OH227810   3.951   2.819  12.173  0.6382 -0.5873  0.0947
 2132TIP3    H127811   3.924   2.817  12.081 -2.7677 -0.0757  0.9564
 2132TIP3    H227812   3.989   2.906  12.184 -2.0141  0.7095 -0.1743
 2133TIP3   OH227813   2.993   5.770  11.744  0.0966  0.0997 -0.0991
 2133TIP3    H127814   3.084   5.796  11.756 -0.3138  0.8377  1.7038
 2133TIP3    H227815   2.988   5.683  11.784 -0.4255  0.9388  1.7252
 2134TIP3   OH227816   4.285   6.350   1.261  0.2136  0.1089  0.9881
 2134TIP3    H127817   4.250   6.389   1.342 -1.0804  0.4131  0.3083
 2134TIP3    H227818   4.261   6.412   1.192 -0.9494 -1.3429  0.0308
 2135TIP3   OH227819   5.788   1.901   3.175 -0.1084  0.1271 -0.3524
 2135TIP3    H127820   5.821   1.821   3.136 -0.8047  0.4965 -1.7569
 2135TIP3    H227821   5.846   1.970   3.143 -1.5070  0.6292 -1.9742
 2136TIP3   OH227822   4.941   6.686  15.945 -0.0980 -0.0830  0.2298
 2136TIP3    H127823   4.967   6.594  15.943 -0.4241 -0.1703 -0.9010
 2136TIP3    H227824   4.883   6.693  16.021  1.6889 -0.2857  1.6780
 2137TIP3   OH227825   3.416   3.975  16.550  0.4327 -0.0265 -0.1922
 2137TIP3    H127826   3.410   4.067  16.525 -0.9743  0.4079  1.4947
 2137TIP3    H227827   3.343   3.963  16.612 -0.4615 -2.6983 -1.6157
 2138TIP3   OH227828   5.425   2.563   4.328  0.0299 -0.9006 -0.3008
 2138TIP3    H127829   5.472   2.644   4.349 -0.0396 -1.2390  1.2271
 2138TIP3    H227830   5.422   2.514   4.410 -1.7351 -1.5480 -0.6997
 2139TIP3   OH227831   3.642   2.251  13.272  0.3588 -0.1997  0.1652
 2139TIP3    H127832   3.649   2.297  13.188  0.3860  0.4033  0.4922
 2139TIP3    H227833   3.585   2.177  13.254 -0.1822  0.3046 -0.2305
 2140TIP3   OH227834   4.093   0.210  12.496 -0.1969  0.5106  0.1898
 2140TIP3    H127835   4.029   0.198  12.425 -0.5158  0.2708  0.5161
 2140TIP3    H227836   4.079   0.135  12.554  1.9072 -0.7763 -0.8652
 2141TIP3   OH227837   0.727   4.643   0.696  0.6079  0.3164  0.2920
 2141TIP3    H127838   0.759   4.620   0.609  1.2835 -0.0676  0.6314
 2141TIP3    H227839   0.678   4.724   0.683 -0.5267 -0.4867 -0.6775
 2142TIP3   OH227840   1.977   0.925  11.758 -0.0108 -0.3497  0.0864
 2142TIP3    H127841   2.046   0.951  11.820  1.4889 -0.2094 -1.5586
 2142TIP3    H227842   1.904   0.898  11.814  0.7657  1.0604  1.9052
 2143TIP3   OH227843   1.410   4.777   6.626 -0.4258  0.1036  0.3688
 2143TIP3    H127844   1.470   4.705   6.643 -0.4479 -0.5781 -2.0218
 2143TIP3    H227845   1.453   4.854   6.663  1.7813 -0.4261 -0.9448
 2144TIP3   OH227846   3.815   2.987   5.183  0.5868 -0.3043 -0.0171
 2144TIP3    H127847   3.792   2.895   5.193  0.1682 -0.0629  1.5365
 2144TIP3    H227848   3.750   3.034   5.235  1.5204  0.7811  0.2163
 2145TIP3   OH227849   2.025   0.431  16.462  0.6867  0.2091  0.1122
 2145TIP3    H127850   2.092   0.363  16.473 -1.1184 -1.6760 -0.1267
 2145TIP3    H227851   2.065   0.494  16.401  2.3638 -0.6846  0.2353
 2146TIP3   OH227852   3.505   1.249  11.200  0.4355  0.0774 -0.3208
 2146TIP3    H127853   3.429   1.224  11.252  0.8371 -0.6288 -0.0505
 2146TIP3    H227854   3.476   1.238  11.109  0.2693 -0.3890 -0.2186
 2147TIP3   OH227855   1.996   0.535  12.255  0.1054  0.4116  0.4894
 2147TIP3    H127856   2.004   0.623  12.293 -0.1889  1.0501 -0.8852
 2147TIP3    H227857   1.907   0.530  12.222  0.2110 -0.2956  0.2845
 2148TIP3   OH227858   1.007   3.487  16.676 -0.1276 -0.0653  0.1935
 2148TIP3    H127859   1.004   3.431  16.754 -1.7806 -0.1005  0.1383
 2148TIP3    H227860   1.012   3.427  16.603  2.6730 -0.0204  0.2466
 2149TIP3   OH227861   4.740   4.082   3.976 -0.1853  0.3732 -0.1236
 2149TIP3    H127862   4.718   4.009   4.034  1.2819  0.0841  0.1217
 2149TIP3    H227863   4.779   4.148   4.034 -0.1175  0.7216 -0.5574
 2150TIP3   OH227864   1.940   2.953  15.942  0.3454  0.0385 -0.0073
 2150TIP3    H127865   1.887   3.030  15.921 -0.5800 -1.1061 -2.2388
 2150TIP3    H227866   1.911   2.927  16.030 -0.6076  1.1872  0.0422
 2151TIP3   OH227867   4.888   1.040  13.184  0.3605  0.5223 -0.7533
 2151TIP3    H127868   4.838   1.016  13.106  0.8459 -0.3669 -0.8091
 2151TIP3    H227869   4.931   0.958  13.210  1.6782  1.2332 -0.6327
 2152TIP3   OH227870   3.624   0.371  14.141  0.2936 -0.3268 -0.0159
 2152TIP3    H127871   3.552   0.396  14.083 -1.0227  0.4736  1.8386
 2152TIP3    H227872   3.582   0.363  14.227  1.6334 -3.9413  0.4531
 2153TIP3   OH227873   1.809   3.755  14.724  0.2342  0.3883 -0.2496
 2153TIP3    H127874   1.748   3.689  14.758  2.8061 -1.2208  1.6954
 2153TIP3    H227875   1.857   3.709  14.655  0.8969  0.7671 -0.0472
 2154TIP3   OH227876   2.496   6.020   0.051  0.3172 -0.4869 -0.1946
 2154TIP3    H127877   2.551   5.947   0.021  0.5389 -1.1821  1.7758
 2154TIP3    H227878   2.543   6.056   0.126 -0.4952  0.7998 -0.2776
 2155TIP3   OH227879   2.889   5.063  16.509  0.2164 -0.5394  0.0322
 2155TIP3    H127880   2.909   4.986  16.563  0.0018 -0.8091 -0.2663
 2155TIP3    H227881   2.856   5.128  16.571  0.4491 -0.6675  0.2954
 2156TIP3   OH227882   6.333   2.898   0.171 -0.1775 -0.5757  0.1043
 2156TIP3    H127883   6.362   2.987   0.192 -1.8865 -0.0569  0.4920
 2156TIP3    H227884   6.337   2.894   0.076 -2.7539  0.9898 -0.1678
 2157TIP3   OH227885   5.068   2.836   4.283 -0.6160  0.0339 -0.1834
 2157TIP3    H127886   5.089   2.922   4.246 -1.1206  0.7029  0.9959
 2157TIP3    H227887   5.134   2.777   4.247 -0.2310  0.9335 -0.9808
 2158TIP3   OH227888   0.562   4.546   5.354 -0.0638 -0.6765 -0.2206
 2158TIP3    H127889   0.551   4.639   5.334 -2.9874 -0.6662  1.0208
 2158TIP3    H227890   0.606   4.544   5.439 -1.8288 -0.3262  0.7352
 2159TIP3   OH227891   4.457   1.633   3.553  0.7337 -0.6239  0.5330
 2159TIP3    H127892   4.412   1.717   3.546 -0.2660 -0.9744  2.1209
 2159TIP3    H227893   4.546   1.650   3.523 -0.0954  0.3850 -1.5240
 2160TIP3   OH227894   3.675   6.238  11.386  0.4205  0.6647  0.0997
 2160TIP3    H127895   3.619   6.309  11.419  0.2430 -0.2506  1.9297
 2160TIP3    H227896   3.738   6.282  11.329 -0.6230  2.0752 -0.0150
 2161TIP3   OH227897   6.638   5.312   2.727 -0.0714  0.0913  0.1113
 2161TIP3    H127898   6.667   5.341   2.641  2.2383 -0.1613  0.7393
 2161TIP3    H227899   6.609   5.392   2.771 -0.3154  0.3697 -0.5490
 2162TIP3   OH227900   5.769   0.965   2.262  0.1082  0.5520  0.1173
 2162TIP3    H127901   5.821   1.000   2.335  0.1180  0.5544  0.1090
 2162TIP3    H227902   5.697   0.917   2.305  0.1907  0.4379  0.1300
 2163TIP3   OH227903   5.921   2.784  11.317 -0.7714  0.1233  0.7679
 2163TIP3    H127904   5.981   2.748  11.382 -0.9051 -1.0151  0.2910
 2163TIP3    H227905   5.962   2.865  11.289 -0.1072  0.0166  1.3840
 2164TIP3   OH227906   1.132   3.515   3.702 -0.1146 -0.1453 -0.3527
 2164TIP3    H127907   1.084   3.434   3.717 -0.7544  0.4369  0.9279
 2164TIP3    H227908   1.107   3.543   3.614 -0.6655 -0.8155 -0.4149
 2165TIP3   OH227909   1.887   1.256   4.947 -0.5081  0.1574  0.3974
 2165TIP3    H127910   1.857   1.335   4.992  0.4848  1.3069 -0.8660
 2165TIP3    H227911   1.976   1.276   4.920 -0.5400 -1.0612 -0.7320
 2166TIP3   OH227912   3.829   1.316   5.709 -0.7169 -0.2173  0.1296
 2166TIP3    H127913   3.877   1.339   5.629  1.5150  0.8411  1.6784
 2166TIP3    H227914   3.897   1.285   5.769 -2.3052 -0.7252  1.7175
 2167TIP3   OH227915   2.716   2.662  12.958 -0.4727 -0.1707  0.3383
 2167TIP3    H127916   2.717   2.752  12.924 -1.7088 -0.5560 -0.8027
 2167TIP3    H227917   2.633   2.655  13.005 -1.8066 -1.5209 -2.0279
 2168TIP3   OH227918   3.483   2.016   5.524 -0.2696 -0.3042  0.2126
 2168TIP3    H127919   3.511   1.947   5.584 -0.1393  1.0299  1.7322
 2168TIP3    H227920   3.563   2.063   5.502 -0.5519  0.2422  0.3346
 2169TIP3   OH227921   3.384   6.047  12.610  0.1407 -0.2947  0.1096
 2169TIP3    H127922   3.415   6.122  12.558 -1.9970  1.2853  0.9975
 2169TIP3    H227923   3.430   5.972  12.572  1.6287  1.3082 -1.4658
 2170TIP3   OH227924   6.323   3.364   3.280  0.0257 -0.3083  0.0446
 2170TIP3    H127925   6.354   3.453   3.264  0.1768 -0.0845  1.4683
 2170TIP3    H227926   6.262   3.347   3.209  0.6939  0.5859 -0.7647
 2171TIP3   OH227927   3.381   0.911   6.033 -0.0777  0.5941 -0.2416
 2171TIP3    H127928   3.466   0.915   6.077 -0.7166  1.3891  0.9814
 2171TIP3    H227929   3.322   0.959   6.091 -1.6571 -1.0855 -0.3730
 2172TIP3   OH227930   4.081   1.298   5.865 -0.2526 -0.3090  0.5017
 2172TIP3    H127931   4.089   1.225   5.802  0.1705 -0.2008  0.4241
 2172TIP3    H227932   4.072   1.255   5.950  1.2514 -0.4687  0.6093
 2173TIP3   OH227933   6.087   3.175  16.323 -0.2937  0.0335 -0.4759
 2173TIP3    H127934   6.149   3.153  16.254 -1.0904 -0.6265 -0.9934
 2173TIP3    H227935   6.001   3.163  16.283 -0.7725 -0.9123  0.7915
 2174TIP3   OH227936   2.202   0.673  16.327  0.0775 -0.2526 -0.5634
 2174TIP3    H127937   2.179   0.733  16.398  1.4601 -0.5420  0.1512
 2174TIP3    H227938   2.146   0.701  16.254 -2.6620 -1.0529  1.1000
 2175TIP3   OH227939   0.590   6.087   2.143  0.8605  0.2869 -0.1875
 2175TIP3    H127940   0.680   6.111   2.122  0.2955  0.9940 -1.9903
 2175TIP3    H227941   0.561   6.036   2.068 -0.8927  1.8804 -0.6638
 2176TIP3   OH227942   2.701   4.957   5.835 -0.0655 -0.1780  0.3910
 2176TIP3    H127943   2.716   4.981   5.744  0.9426 -0.2295  0.5306
 2176TIP3    H227944   2.608   4.976   5.850  0.2271  1.8175 -0.0324
 2177TIP3   OH227945   2.691   2.504  12.597  0.5853  0.0532 -0.3604
 2177TIP3    H127946   2.758   2.560  12.637  0.3373 -0.3801  0.6893
 2177TIP3    H227947   2.613   2.558  12.594  0.7310  0.2459 -0.7024
 2178TIP3   OH227948   5.803   1.421   5.818  0.9110 -0.2538  0.3865
 2178TIP3    H127949   5.866   1.465   5.875 -1.7137  0.7677  2.6866
 2178TIP3    H227950   5.844   1.423   5.731  3.3015  1.8073  1.4432
 2179TIP3   OH227951   5.556   6.273   6.505 -0.5868 -0.1229  0.1422
 2179TIP3    H127952   5.566   6.252   6.597 -2.4952 -2.0968 -0.0222
 2179TIP3    H227953   5.582   6.365   6.498  1.2970 -0.4197  2.2860
 2180TIP3   OH227954   2.257   4.725  11.518  0.1114  0.0718 -0.1090
 2180TIP3    H127955   2.213   4.810  11.516 -0.1091  0.0061  1.0080
 2180TIP3    H227956   2.192   4.666  11.558 -0.1162 -0.8632 -1.7736
 2181TIP3   OH227957   6.111   0.495  12.027  0.1853  0.4989 -0.5556
 2181TIP3    H127958   6.190   0.548  12.041  0.1735  0.2565  0.4742
 2181TIP3    H227959   6.058   0.547  11.966  1.5573  0.2202 -2.0664
 2182TIP3   OH227960   3.138   1.768  10.832 -0.1390  0.2212 -0.3843
 2182TIP3    H127961   3.099   1.681  10.834 -0.7528  0.4993  0.8259
 2182TIP3    H227962   3.232   1.753  10.848 -0.5989 -0.0877  2.6634
 2183TIP3   OH227963   5.567   5.602   3.098  0.2427 -0.2857 -0.2653
 2183TIP3    H127964   5.648   5.558   3.121 -0.4619 -0.1113  3.2079
 2183TIP3    H227965   5.589   5.695   3.099  0.1764 -0.2701  0.0173
 2184TIP3   OH227966   0.725   2.419  12.612  0.8494  0.3961 -0.2114
 2184TIP3    H127967   0.656   2.378  12.560 -0.8650  1.3926  1.1577
 2184TIP3    H227968   0.802   2.365  12.596 -0.5223 -1.4758 -0.9138
 2185TIP3   OH227969   0.764   0.753   0.971  1.0672  0.4156  0.2572
 2185TIP3    H127970   0.672   0.737   0.993  1.7009 -1.1567  1.9714
 2185TIP3    H227971   0.776   0.847   0.985 -0.1063  0.5212  0.6945
 2186TIP3   OH227972   4.844   0.200   2.704  0.8045  0.7716  0.0560
 2186TIP3    H127973   4.790   0.279   2.711  1.3608  1.2903 -1.2142
 2186TIP3    H227974   4.859   0.189   2.610  1.1479 -0.5761  0.2482
 2187TIP3   OH227975   2.003   3.718   4.645  0.4262  0.0345  0.2994
 2187TIP3    H127976   1.947   3.771   4.702  0.6664  0.1870  0.3941
 2187TIP3    H227977   1.950   3.704   4.567  0.9378  1.7725 -0.4093
 2188TIP3   OH227978   4.382   2.412  12.220  0.1213  0.8085 -0.2362
 2188TIP3    H127979   4.321   2.473  12.179  1.4133  1.2420 -1.5895
 2188TIP3    H227980   4.326   2.349  12.265 -1.3255  1.1402 -1.4873
 2189TIP3   OH227981   4.787   3.337  11.692  0.1464  0.3737  0.5101
 2189TIP3    H127982   4.815   3.429  11.697 -1.3687  0.8190  1.3142
 2189TIP3    H227983   4.718   3.337  11.625 -0.6287  0.0407  1.3012
 2190TIP3   OH227984   0.511   0.398   1.804  0.0119  0.4732 -0.0180
 2190TIP3    H127985   0.528   0.357   1.888 -0.1781 -1.0069 -0.6538
 2190TIP3    H227986   0.438   0.347   1.767 -0.1391  1.3045 -0.9279
 2191TIP3   OH227987   2.496   2.304  14.333  0.0113 -0.3619  0.2065
 2191TIP3    H127988   2.546   2.227  14.362 -0.8259 -1.3020 -0.7850
 2191TIP3    H227989   2.559   2.355  14.283  0.2447 -1.0676 -0.2358
 2192TIP3   OH227990   6.404   4.872  16.780  0.2199 -0.3587 -0.3697
 2192TIP3    H127991   6.320   4.832  16.801 -0.5462  0.7629 -1.2054
 2192TIP3    H227992   6.396   4.962  16.811  2.3018 -0.9851  2.4810
 2193TIP3   OH227993   0.860   2.118   5.141  0.0650  0.0232  0.1200
 2193TIP3    H127994   0.850   2.183   5.072 -0.8798 -0.1015  0.1258
 2193TIP3    H227995   0.782   2.129   5.196  0.2007 -0.6965  0.4732
 2194TIP3   OH227996   2.319   1.822  12.923 -0.1483 -0.5657  0.4764
 2194TIP3    H127997   2.326   1.735  12.884  1.2496 -0.8452  1.2588
 2194TIP3    H227998   2.242   1.860  12.883  0.4317 -1.3402 -1.5212
 2195TIP3   OH227999   1.810   1.788   3.766 -0.5574 -0.1422 -0.3599
 2195TIP3    H128000   1.776   1.765   3.680 -0.6053 -0.4655 -0.2559
 2195TIP3    H228001   1.884   1.846   3.748  0.0259 -0.9637 -0.6545
 2196TIP3   OH228002   2.311   1.438  12.418 -0.3919 -0.5174 -0.3345
 2196TIP3    H128003   2.296   1.532  12.405  2.3613 -0.0100 -0.3471
 2196TIP3    H228004   2.378   1.415  12.354 -0.7078 -2.4331 -0.0441
 2197TIP3   OH228005   1.513   3.447  16.143  0.5039 -0.4540 -0.9961
 2197TIP3    H128006   1.606   3.429  16.153  0.5368 -0.6990 -1.7118
 2197TIP3    H228007   1.472   3.406  16.219  1.0247  0.0678 -0.4207
 2198TIP3   OH228008   1.361   0.530  15.790  0.2905 -0.0774  0.1952
 2198TIP3    H128009   1.340   0.512  15.698 -0.3906 -0.7754  0.4660
 2198TIP3    H228010   1.409   0.453  15.819  1.0761  0.4283  0.2579
 2199TIP3   OH228011   2.868   5.737  15.545 -0.3265 -0.3188 -0.2793
 2199TIP3    H128012   2.805   5.664  15.543 -0.3412 -0.3130 -0.0871
 2199TIP3    H228013   2.940   5.705  15.600  0.0732 -0.5131 -0.9117
 2200TIP3   OH228014   5.587   3.920   5.717  0.4343 -0.0870  0.6041
 2200TIP3    H128015   5.645   3.909   5.793  2.5293 -0.9565 -1.0235
 2200TIP3    H228016   5.645   3.950   5.647 -1.4239  0.6441 -0.7031
 2201TIP3   OH228017   0.251   1.136  17.017  0.1407 -0.1301 -0.2933
 2201TIP3    H128018   0.312   1.062  17.008 -1.1334 -1.3613  0.7812
 2201TIP3    H228019   0.289   1.205  16.963  1.6265 -1.4087 -0.9517
 2202TIP3   OH228020   5.551   6.075   5.819 -0.4625 -0.6251 -0.2070
 2202TIP3    H128021   5.560   6.146   5.883  1.7359  0.1357 -1.2461
 2202TIP3    H228022   5.597   6.001   5.858  1.3560 -0.0000 -1.0246
 2203TIP3   OH228023   5.793   5.494   0.307 -0.3196  0.5945  0.1079
 2203TIP3    H128024   5.889   5.494   0.301 -0.3782 -0.7109 -1.6182
 2203TIP3    H228025   5.764   5.533   0.225 -1.2404 -2.2719 -1.0382
 2204TIP3   OH228026   2.314   2.613   2.734  0.0915  0.2090 -0.5120
 2204TIP3    H128027   2.399   2.608   2.778 -0.7199  1.9377  1.4240
 2204TIP3    H228028   2.319   2.694   2.683 -0.7553  0.9634  0.5534
 2205TIP3   OH228029   5.255   6.144  16.706  0.0394 -0.1668  0.0121
 2205TIP3    H128030   5.315   6.173  16.774  1.4804 -0.1035 -1.2516
 2205TIP3    H228031   5.202   6.221  16.686  1.2336  0.5301 -0.5976
 2206TIP3   OH228032   6.662   6.033   1.810  0.6472  0.2387 -0.1897
 2206TIP3    H128033   6.577   6.033   1.853  1.1751 -1.3651  0.9658
 2206TIP3    H228034   6.686   6.126   1.804  0.0377  0.5978  2.0020
 2207TIP3   OH228035   2.675   3.754  16.019 -0.4430  0.5423  0.1195
 2207TIP3    H128036   2.743   3.773  16.084  1.2286 -0.1609 -1.3509
 2207TIP3    H228037   2.717   3.773  15.935 -1.3594 -1.8346 -0.9576
 2208TIP3   OH228038   5.653   1.195  11.913 -0.2666 -0.0706 -0.8231
 2208TIP3    H128039   5.654   1.100  11.923 -0.5095  0.0550  0.6075
 2208TIP3    H228040   5.577   1.212  11.858 -0.1460 -0.6994 -1.2010
 2209TIP3   OH228041   1.141   2.032  11.218  0.3216 -0.2285  0.3211
 2209TIP3    H128042   1.191   2.112  11.204  1.2947 -1.0328 -1.0291
 2209TIP3    H228043   1.101   2.013  11.133 -0.4930 -0.7888  0.8083
 2210TIP3   OH228044   3.751   3.638   1.369  0.0392  0.3638 -0.0937
 2210TIP3    H128045   3.714   3.708   1.315  1.5077  0.9373 -0.4069
 2210TIP3    H228046   3.716   3.557   1.331  1.1745  0.7289 -2.0825
 2211TIP3   OH228047   4.336   2.763  15.083  0.8400 -0.5073  0.2226
 2211TIP3    H128048   4.415   2.738  15.036  0.7589 -0.4367  0.0468
 2211TIP3    H228049   4.335   2.859  15.080  0.5578 -0.5162 -0.0989
 2212TIP3   OH228050   5.500   1.497  14.551 -0.5329  0.5939 -0.0263
 2212TIP3    H128051   5.587   1.518  14.586  0.0995  2.0732 -2.2922
 2212TIP3    H228052   5.460   1.582  14.534 -0.9917 -0.0187 -2.3210
 2213TIP3   OH228053   5.991   3.448  13.744 -0.0780 -0.6598  0.4768
 2213TIP3    H128054   5.910   3.499  13.754  1.0980  1.8359 -1.5972
 2213TIP3    H228055   5.970   3.362  13.781 -3.2328  0.2906  1.1913
 2214TIP3   OH228056   3.167   3.954  12.593 -0.1052  0.1194 -0.8638
 2214TIP3    H128057   3.084   3.996  12.613 -0.0335  0.1475 -0.6271
 2214TIP3    H228058   3.147   3.860  12.590 -0.1634  0.1329 -0.8948
 2215TIP3   OH228059   0.949   2.380   3.780  0.1678 -0.0778  0.2378
 2215TIP3    H128060   0.938   2.289   3.806 -0.6207 -0.0460  0.0615
 2215TIP3    H228061   0.993   2.421   3.855 -0.3855 -0.3902  0.7452
 2216TIP3   OH228062   5.579   3.539  14.920  0.0253 -0.2005  0.0333
 2216TIP3    H128063   5.617   3.576  14.999  0.6416  1.3420 -0.9439
 2216TIP3    H228064   5.645   3.476  14.889  0.5874  0.4732 -0.1767
 2217TIP3   OH228065   0.774   5.853  16.245  0.5600  0.2840 -0.0626
 2217TIP3    H128066   0.693   5.903  16.251  0.6021  0.7411 -2.3175
 2217TIP3    H228067   0.746   5.762  16.242  0.4162  0.1404  2.8329
 2218TIP3   OH228068   0.825   5.476   4.269 -0.0907 -0.2876  0.6985
 2218TIP3    H128069   0.905   5.491   4.218 -0.5506  0.5139  0.1947
 2218TIP3    H228070   0.758   5.526   4.223 -0.7499 -0.4449  1.4758
 2219TIP3   OH228071   1.397   4.479   5.164  0.4768  0.2572  0.4221
 2219TIP3    H128072   1.313   4.526   5.159 -0.7667 -1.6967  1.7148
 2219TIP3    H228073   1.452   4.535   5.219 -0.1268  1.3313 -0.0337
 2220TIP3   OH228074   4.432   5.504  14.021  0.1096 -0.3603  0.0423
 2220TIP3    H128075   4.416   5.477  14.111 -1.5584 -0.4797 -0.2434
 2220TIP3    H228076   4.373   5.579  14.008  0.2286 -0.4323 -0.9858
 2221TIP3   OH228077   1.489   3.379   2.925 -0.1012 -0.1984 -0.2935
 2221TIP3    H128078   1.569   3.330   2.944 -1.5095 -2.3940  0.4069
 2221TIP3    H228079   1.513   3.470   2.939  2.2784 -0.7571 -0.1835
 2222TIP3   OH228080   5.195   0.245  14.012 -0.1598  0.1473 -0.4978
 2222TIP3    H128081   5.195   0.193  13.931 -0.3963 -0.0097 -0.3989
 2222TIP3    H228082   5.164   0.184  14.079  0.5265  0.1365 -0.1938
 2223TIP3   OH228083   5.344   1.655   4.405  0.3449  0.6804  0.7077
 2223TIP3    H128084   5.249   1.667   4.405  0.2710  0.2347 -0.3864
 2223TIP3    H228085   5.379   1.744   4.407 -0.1151  0.8833  0.0780
 2224TIP3   OH228086   3.911   4.954   5.878  0.3883 -0.3353 -0.4172
 2224TIP3    H128087   3.841   5.020   5.876 -0.8027 -1.4708  1.0420
 2224TIP3    H228088   3.934   4.940   5.787 -0.2957  1.0906 -0.8423
 2225TIP3   OH228089   4.070   0.199   2.938  0.6308 -1.0386 -0.6788
 2225TIP3    H128090   4.022   0.223   2.859 -1.5168 -0.5766  0.6903
 2225TIP3    H228091   4.160   0.184   2.908 -0.1268 -0.9495 -3.1863
 2226TIP3   OH228092   0.037   5.142   0.472  0.0812 -0.1323  0.0725
 2226TIP3    H128093  -0.026   5.188   0.528 -0.1622  0.5559 -0.7393
 2226TIP3    H228094   0.119   5.190   0.484  0.5770 -1.2738  1.4376
 2227TIP3   OH228095   2.545   4.318  13.525  0.4847  0.0625  0.5604
 2227TIP3    H128096   2.513   4.375  13.594  0.8176  0.2027  0.6055
 2227TIP3    H228097   2.484   4.330  13.453  0.1232 -0.1027  0.8393
 2228TIP3   OH228098   1.823   0.960  12.340 -0.5395  0.0884  0.9332
 2228TIP3    H128099   1.854   1.050  12.329 -0.2092 -0.0830  0.4266
 2228TIP3    H228100   1.788   0.957  12.429 -1.6388  1.0403  0.5632
 2229TIP3   OH228101   6.050   2.803  12.271 -0.2057  0.1079  0.7886
 2229TIP3    H128102   6.110   2.866  12.310 -1.4137  1.3703  0.6522
 2229TIP3    H228103   6.038   2.832  12.181 -1.4496  0.2122  0.9705
 2230TIP3   OH228104   1.196   3.968   0.200 -0.7409  0.0069  0.4444
 2230TIP3    H128105   1.218   3.875   0.191 -0.9560  0.0470 -0.6776
 2230TIP3    H228106   1.266   4.014   0.154  0.0674  0.4930  2.1151
 2231TIP3   OH228107   1.057   3.323   1.610  0.2757 -0.8230  0.1017
 2231TIP3    H128108   1.119   3.250   1.605  1.1441 -0.4040  2.8813
 2231TIP3    H228109   0.979   3.285   1.650  0.1072 -0.5985 -0.0154
 2232TIP3   OH228110   2.830   3.450  16.627  0.2170 -0.1425 -0.6796
 2232TIP3    H128111   2.773   3.525  16.642  2.6700  1.5555  0.8854
 2232TIP3    H228112   2.876   3.471  16.546  1.8182  0.7541  0.4071
 2233TIP3   OH228113   0.269   4.630   6.085  0.9126  0.0568 -0.6011
 2233TIP3    H128114   0.331   4.570   6.044 -0.3010 -1.8060  0.1135
 2233TIP3    H228115   0.218   4.574   6.144 -0.4517  1.7720 -0.0754
 2234TIP3   OH228116   4.693   4.393  12.878 -0.1175 -0.1297 -0.6578
 2234TIP3    H128117   4.623   4.347  12.923 -0.9322  1.4742 -0.2240
 2234TIP3    H228118   4.653   4.421  12.795  0.8525 -1.5516 -1.6555
 2235TIP3   OH228119   1.305   1.831  14.297 -0.0496  0.4028 -0.6580
 2235TIP3    H128120   1.311   1.845  14.202 -0.6917 -2.8018 -1.2685
 2235TIP3    H228121   1.386   1.786  14.320  0.9954  2.8201  0.7699
 2236TIP3   OH228122   2.664   0.081   0.698 -0.3402  0.1246 -0.5725
 2236TIP3    H128123   2.658   0.173   0.673 -0.1076 -0.3257 -2.4739
 2236TIP3    H228124   2.608   0.035   0.636 -0.9824 -0.9858  0.7581
 2237TIP3   OH228125   3.368   4.959   1.331 -0.0733 -0.2908 -0.3766
 2237TIP3    H128126   3.380   5.051   1.355 -0.7413 -0.3521  0.2383
 2237TIP3    H228127   3.281   4.955   1.292 -0.9258 -0.9781  1.4486
 2238TIP3   OH228128   5.798   1.759  16.495 -0.0009  0.0639  0.4009
 2238TIP3    H128129   5.779   1.670  16.466 -1.7092  0.0863  1.3022
 2238TIP3    H228130   5.820   1.750  16.588  0.5488  0.5093  0.3189
 2239TIP3   OH228131   3.765   1.768  15.072 -0.9340 -0.1411 -0.1498
 2239TIP3    H128132   3.853   1.729  15.069 -1.9227 -2.4559 -0.6619
 2239TIP3    H228133   3.715   1.710  15.128 -2.3184  0.8425 -0.3240
 2240TIP3   OH228134   2.715   6.638  14.721 -0.1477  0.2691 -0.8547
 2240TIP3    H128135   2.676   6.725  14.714 -0.2264  0.5019  1.6369
 2240TIP3    H228136   2.647   6.585  14.763  0.8581 -0.2663  0.1467
 2241TIP3   OH228137   4.495   4.037   3.778  0.1271 -0.0567  0.7225
 2241TIP3    H128138   4.569   4.062   3.833  1.3344 -0.4035 -0.6830
 2241TIP3    H228139   4.443   3.978   3.833  0.5395  0.6715  1.9393
 2242TIP3   OH228140   4.683   5.581  13.620 -0.1229 -0.2447  0.5296
 2242TIP3    H128141   4.670   5.591  13.525 -1.1659 -0.2809  0.6514
 2242TIP3    H228142   4.641   5.497  13.641 -0.2334 -0.0534  1.0807
 2243TIP3   OH228143   1.929   1.648  15.412 -0.3575  0.6873 -0.3455
 2243TIP3    H128144   1.873   1.724  15.426 -1.8651 -0.0189 -2.1155
 2243TIP3    H228145   1.869   1.578  15.387  1.2775 -0.1367 -2.2539
 2244TIP3   OH228146   3.134   1.657   5.029 -0.4360  0.2228  0.0526
 2244TIP3    H128147   3.070   1.724   5.052 -0.1606  0.0882  1.2820
 2244TIP3    H228148   3.081   1.580   5.008 -0.9074  1.3655 -3.7387
 2245TIP3   OH228149   3.583   2.753   6.633  0.2001 -0.5783  0.2209
 2245TIP3    H128150   3.530   2.753   6.553 -1.2084 -2.3324  1.0817
 2245TIP3    H228151   3.590   2.660   6.657  1.4104 -0.1650  1.6202
 2246TIP3   OH228152   1.311   3.335  16.342 -0.2741 -0.1673  0.0830
 2246TIP3    H128153   1.329   3.241  16.346 -0.3199 -0.1788  0.0242
 2246TIP3    H228154   1.228   3.345  16.388 -0.2671 -0.1550  0.0924
 2247TIP3   OH228155   6.768   3.509   0.163  0.3248  0.3629  0.4190
 2247TIP3    H128156   6.680   3.471   0.153  0.6473  0.1237 -2.1368
 2247TIP3    H228157   6.753   3.592   0.208 -1.2298  0.3574 -0.0327
 2248TIP3   OH228158   5.188   6.053  15.155  0.1734 -0.3566 -0.4253
 2248TIP3    H128159   5.232   6.001  15.222 -0.1766  0.0744  0.1401
 2248TIP3    H228160   5.096   6.025  15.159  0.0484  0.0601 -0.3488
 2249TIP3   OH228161   0.374   5.768  12.370  0.1312  0.2052 -0.2201
 2249TIP3    H128162   0.408   5.697  12.315  2.1303  0.2666  0.8311
 2249TIP3    H228163   0.287   5.739  12.395  0.1584 -0.9807 -1.3773
 2250TIP3   OH228164   6.656   1.808  15.027 -0.2747  0.4162 -0.0067
 2250TIP3    H128165   6.734   1.771  14.985 -1.0948 -0.9935 -0.3339
 2250TIP3    H228166   6.657   1.773  15.115  0.3423  1.7602  0.5564
 2251TIP3   OH228167   0.179   1.741   0.419 -0.2256 -0.0481 -0.2409
 2251TIP3    H128168   0.261   1.690   0.423  0.9377  1.8116  1.6323
 2251TIP3    H228169   0.198   1.811   0.357 -0.3934  0.4143  0.2295
 2252TIP3   OH228170   6.376   1.624   2.095 -0.1364  0.4769  0.1112
 2252TIP3    H128171   6.453   1.626   2.038 -0.7029 -2.7002 -0.9507
 2252TIP3    H228172   6.339   1.712   2.088  2.8298  1.8159 -0.0636
 2253TIP3   OH228173   4.045   6.380  15.761 -0.3082 -0.3098  0.6651
 2253TIP3    H128174   3.975   6.319  15.784 -0.3769 -1.1429 -1.5173
 2253TIP3    H228175   4.125   6.339  15.795 -0.5895 -0.5958  0.9913
 2254TIP3   OH228176   4.306   5.126   0.049  0.2582 -0.1154 -0.1872
 2254TIP3    H128177   4.240   5.185   0.012  0.8152  0.4302 -0.3182
 2254TIP3    H228178   4.279   5.039   0.020 -2.0443 -0.2978  2.1025
 2255TIP3   OH228179   3.995   5.135   2.664 -0.0865  0.2584  0.7917
 2255TIP3    H128180   3.971   5.201   2.599 -0.7090  1.3284  2.0591
 2255TIP3    H228181   4.053   5.182   2.725  0.3416 -0.6726  1.1137
 2256TIP3   OH228182   0.736   0.014   4.184  0.1440 -0.0923  0.3660
 2256TIP3    H128183   0.766  -0.055   4.125 -1.8550  0.5937 -1.5890
 2256TIP3    H228184   0.802   0.083   4.176  1.2939 -1.0608  1.0853
 2257TIP3   OH228185   3.524   5.922  15.591  0.4562  0.0523 -0.4506
 2257TIP3    H128186   3.532   6.016  15.573  1.9528 -0.0004 -0.2235
 2257TIP3    H228187   3.564   5.911  15.677  0.4363 -0.8150 -0.5473
 2258TIP3   OH228188   1.151   2.755  11.251 -0.3890 -0.3627 -0.4925
 2258TIP3    H128189   1.176   2.670  11.287 -0.6375 -0.4149 -0.4404
 2258TIP3    H228190   1.059   2.766  11.276  0.3442  1.1323  1.8375
 2259TIP3   OH228191   2.058   5.903   2.608  0.1916 -0.8013 -0.4864
 2259TIP3    H128192   2.139   5.857   2.583  0.7461  0.4269 -1.0544
 2259TIP3    H228193   2.049   5.972   2.543 -0.0128  0.5819  0.9473
 2260TIP3   OH228194   0.792   6.541   5.850  0.1763 -0.1868 -0.7916
 2260TIP3    H128195   0.778   6.597   5.774  0.2048  1.2539  0.2288
 2260TIP3    H228196   0.886   6.524   5.850  0.5098  1.4414 -0.0230
 2261TIP3   OH228197   0.214   0.294  14.904 -0.1406 -0.4079 -0.0365
 2261TIP3    H128198   0.266   0.309  14.983  0.5556  2.2555 -0.9057
 2261TIP3    H228199   0.134   0.345  14.918 -0.5023 -0.7944 -0.6248
 2262TIP3   OH228200   5.840   5.033   3.162  0.2516  0.1989  0.4225
 2262TIP3    H128201   5.817   5.049   3.254  0.9868  0.4744  0.5660
 2262TIP3    H228202   5.774   4.972   3.131 -0.3374  0.5427  0.9769
 2263TIP3   OH228203   4.409   6.631   4.499 -0.1805 -0.3512  0.1543
 2263TIP3    H128204   4.504   6.636   4.483 -0.4248 -1.2292 -1.8526
 2263TIP3    H228205   4.373   6.708   4.455 -0.7901 -2.3976 -3.2669
 2264TIP3   OH228206   1.371   6.665  16.222  0.4280  0.4022  0.2816
 2264TIP3    H128207   1.281   6.697  16.215  0.6499  0.8627 -0.8719
 2264TIP3    H228208   1.370   6.603  16.294 -1.1232 -0.6144 -0.5709
 2265TIP3   OH228209   6.281   3.832  15.278  0.3625  0.3430  0.1546
 2265TIP3    H128210   6.221   3.905  15.259 -0.3934 -0.4313 -0.4848
 2265TIP3    H228211   6.367   3.866  15.254  0.3926  1.8811  2.1618
 2266TIP3   OH228212   4.796   2.125   1.092  0.3816 -0.6135  0.2994
 2266TIP3    H128213   4.799   2.151   1.000  0.4031  0.3728  0.5689
 2266TIP3    H228214   4.870   2.065   1.103 -0.7771 -2.3093 -0.7713
 2267TIP3   OH228215   3.524   4.127   5.467  0.7731  0.0220 -0.0871
 2267TIP3    H128216   3.510   4.033   5.475 -1.2752  0.3677  0.9997
 2267TIP3    H228217   3.557   4.153   5.554  1.0741  0.3469 -0.2963
 2268TIP3   OH228218   1.113   5.104   2.825  0.2696 -0.3493 -0.6890
 2268TIP3    H128219   1.032   5.152   2.808  0.5863  0.7521  0.7456
 2268TIP3    H228220   1.140   5.071   2.739 -2.3484 -1.8725 -1.0553
 2269TIP3   OH228221   6.035   4.140   0.499 -0.8071 -0.2663  0.0591
 2269TIP3    H128222   6.050   4.218   0.553 -1.9724 -0.1233  0.1984
 2269TIP3    H228223   6.120   4.122   0.459  0.4235 -1.0614  2.8192
 2270TIP3   OH228224   1.403   5.510   1.421 -0.0755  0.4032  0.3718
 2270TIP3    H128225   1.313   5.490   1.447 -0.4078 -0.4413 -1.2993
 2270TIP3    H228226   1.394   5.580   1.357  0.5006  0.6131  0.5176
 2271TIP3   OH228227   0.737   4.725  12.371 -0.0665  0.2065 -0.6765
 2271TIP3    H128228   0.692   4.698  12.291  0.1123 -0.6069 -0.5195
 2271TIP3    H228229   0.827   4.697  12.359  0.0176  0.3017 -0.2953
 2272TIP3   OH228230   1.582   3.412   5.111 -0.3278 -0.6678  0.0230
 2272TIP3    H128231   1.501   3.418   5.059  0.6786 -0.4370 -1.5972
 2272TIP3    H228232   1.646   3.375   5.050  1.2564  0.8745  0.6919
 2273TIP3   OH228233   4.126   5.318  16.515  0.4309 -0.3831 -0.1288
 2273TIP3    H128234   4.188   5.248  16.537  1.4939  0.9369  1.2702
 2273TIP3    H228235   4.180   5.392  16.491 -0.5388  0.8923  1.3773
 2274TIP3   OH228236   0.238   3.261   3.713  0.3566 -0.1223  0.6350
 2274TIP3    H128237   0.167   3.317   3.742  1.5015  1.7534 -0.0009
 2274TIP3    H228238   0.254   3.203   3.788 -1.9476 -0.7806  0.6981
 2275TIP3   OH228239   6.175   1.941   4.010 -0.1060 -0.4735 -0.6161
 2275TIP3    H128240   6.209   1.891   3.937 -1.6924 -1.3812 -0.7868
 2275TIP3    H228241   6.135   2.018   3.970  1.7572  0.6621 -0.4062
 2276TIP3   OH228242   0.781   3.509  17.177 -0.3529 -0.0229  0.1484
 2276TIP3    H128243   0.720   3.466  17.117  0.6409 -1.0700 -0.1302
 2276TIP3    H228244   0.816   3.439  17.231  0.0788  0.6697  0.7947
 2277TIP3   OH228245   4.044   4.908  12.826  0.1764 -0.1309 -0.1912
 2277TIP3    H128246   4.053   4.941  12.736  0.2542 -0.4296 -0.2930
 2277TIP3    H228247   4.031   4.987  12.879 -0.3912  0.0082 -0.5303
 2278TIP3   OH228248   5.321   6.043  11.212  0.1610 -0.2664 -0.4122
 2278TIP3    H128249   5.410   6.026  11.181 -0.7724 -0.6821 -3.1608
 2278TIP3    H228250   5.306   6.135  11.193 -0.3828 -0.4947 -1.1655
 2279TIP3   OH228251   6.379   4.090  11.924  0.5990  0.0251  0.4742
 2279TIP3    H128252   6.370   4.181  11.953  0.4561 -0.2716  1.4111
 2279TIP3    H228253   6.302   4.074  11.869  0.9891  0.6709 -0.2711
 2280TIP3   OH228254   5.790   0.370  12.678  0.6243  0.1506  0.4035
 2280TIP3    H128255   5.753   0.448  12.637  1.3831  0.0045 -0.5999
 2280TIP3    H228256   5.728   0.347  12.747 -1.2902 -0.2510 -1.3784
 2281TIP3   OH228257   3.034   1.226  14.729 -0.3581 -0.2426  0.1469
 2281TIP3    H128258   2.998   1.315  14.738  1.1608  0.4655 -0.5097
 2281TIP3    H228259   2.968   1.170  14.770 -0.9649  1.2698  1.3656
 2282TIP3   OH228260   2.212   4.301  11.450 -0.7178 -0.4123  0.4720
 2282TIP3    H128261   2.164   4.260  11.378 -0.4872 -1.8373  1.0906
 2282TIP3    H228262   2.263   4.370  11.408 -0.6408 -1.1615 -0.7318
 2283TIP3   OH228263   5.371   1.367  12.343 -0.0950 -0.1641  0.6189
 2283TIP3    H128264   5.463   1.385  12.324 -0.0147  1.0236  1.9452
 2283TIP3    H228265   5.348   1.295  12.284  1.4050  0.1455 -0.4104
 2284TIP3   OH228266   5.419   1.398   2.074  0.2163 -0.1374 -0.4736
 2284TIP3    H128267   5.453   1.370   2.159 -3.0186 -1.0516  0.6696
 2284TIP3    H228268   5.449   1.331   2.013  2.1544  0.2584 -0.0374
 2285TIP3   OH228269   0.931   3.051   0.873 -0.2285  0.2893 -0.3281
 2285TIP3    H128270   0.893   3.134   0.903  2.0135  1.2161  0.1094
 2285TIP3    H228271   0.960   3.069   0.784  1.3577  0.3922  0.1847
 2286TIP3   OH228272   2.216   2.750  15.776  0.2410  0.0010  0.1211
 2286TIP3    H128273   2.185   2.805  15.704  0.7629 -0.7003 -0.6586
 2286TIP3    H228274   2.165   2.670  15.768 -0.9157  0.5428  1.5947
 2287TIP3   OH228275   2.749   2.584   2.222  0.0712 -0.2201  0.5078
 2287TIP3    H128276   2.809   2.635   2.167  1.3126 -2.2335 -0.0964
 2287TIP3    H228277   2.778   2.493   2.212 -3.1518 -1.3462  0.0931
 2288TIP3   OH228278   5.063   3.512   0.200 -0.4046 -0.2273 -0.2686
 2288TIP3    H128279   5.000   3.554   0.141 -0.1071  0.5563 -0.0413
 2288TIP3    H228280   5.033   3.536   0.288 -0.4249 -0.7808 -0.1202
 2289TIP3   OH228281   2.530   6.566   2.072 -0.2911 -0.2827  0.0868
 2289TIP3    H128282   2.564   6.614   1.997  0.0434  0.0410  0.4418
 2289TIP3    H228283   2.516   6.632   2.140  0.6344 -0.7367  0.7449
 2290TIP3   OH228284   2.089   0.847   3.581  0.2191  0.0180 -0.2306
 2290TIP3    H128285   2.143   0.770   3.561 -0.2248 -1.3092  3.0953
 2290TIP3    H228286   2.001   0.822   3.553  0.0031 -0.9330  1.1800
 2291TIP3   OH228287   2.551   3.851   2.090  0.5153 -0.4936  0.3179
 2291TIP3    H128288   2.570   3.884   2.178  0.2895 -0.0286  0.1952
 2291TIP3    H228289   2.538   3.757   2.102 -0.4084 -0.2987  0.9333
 2292TIP3   OH228290   0.645   3.439   5.632  0.0348  0.2471 -0.2099
 2292TIP3    H128291   0.551   3.439   5.614  0.0929  1.8839 -0.6135
 2292TIP3    H228292   0.680   3.369   5.577 -0.5933  1.4164 -2.2053
 2293TIP3   OH228293   0.269   3.103   1.924 -0.3469  0.1356 -0.0571
 2293TIP3    H128294   0.354   3.144   1.906  1.0839 -2.0004  1.3955
 2293TIP3    H228295   0.237   3.148   2.003 -0.6930  1.0389 -0.6863
 2294TIP3   OH228296   1.662   1.327   2.142  0.6004 -0.2897  0.0125
 2294TIP3    H128297   1.621   1.384   2.077  0.9116  1.3486  1.1776
 2294TIP3    H228298   1.633   1.239   2.118  0.1781  0.3175 -1.9248
 2295TIP3   OH228299   0.992   4.140   0.996 -0.0654  0.2533  0.2941
 2295TIP3    H128300   1.060   4.165   0.932 -0.5197  0.3592 -0.1537
 2295TIP3    H228301   1.039   4.087   1.060  0.6011  0.9391  0.3967
 2296TIP3   OH228302   4.287   5.555  15.360 -0.3942 -0.1369  0.8737
 2296TIP3    H128303   4.299   5.644  15.391 -0.3413 -0.0817  0.6966
 2296TIP3    H228304   4.207   5.525  15.403  0.1547 -0.3708  1.7486
 2297TIP3   OH228305   1.922   1.248  11.767  0.2173 -0.3781  0.5263
 2297TIP3    H128306   1.962   1.177  11.817 -1.6115 -0.8610  1.3951
 2297TIP3    H228307   1.848   1.276  11.821 -1.0604 -0.0481 -1.3326
 2298TIP3   OH228308   3.918   3.480  14.071  0.3191 -0.5072 -0.0223
 2298TIP3    H128309   3.940   3.459  13.980 -2.6392  1.5466 -1.3568
 2298TIP3    H228310   3.961   3.564  14.087  1.0769 -1.0007  0.6522
 2299TIP3   OH228311   1.367   3.867   5.102 -0.3112  0.5875  0.3468
 2299TIP3    H128312   1.412   3.782   5.096 -0.9164  0.2399  0.6649
 2299TIP3    H228313   1.419   3.917   5.165  0.4914  0.7446 -0.4086
 2300TIP3   OH228314   4.137   0.590  14.150  0.1215 -0.2985  0.1761
 2300TIP3    H128315   4.151   0.587  14.056  0.0785 -3.1371  0.1826
 2300TIP3    H228316   4.051   0.550  14.163  0.3565 -0.4260  1.4577
 2301TIP3   OH228317   1.428   1.688  13.579  0.9289  0.3014 -0.2332
 2301TIP3    H128318   1.434   1.600  13.616  0.0151 -0.3066 -1.4425
 2301TIP3    H228319   1.336   1.697  13.552  1.0290  1.5883 -0.2435
 2302TIP3   OH228320   0.873   2.096  17.097  0.2603 -0.5335  0.0006
 2302TIP3    H128321   0.895   2.085  17.004  2.5754 -0.9570  0.5328
 2302TIP3    H228322   0.893   2.187  17.116 -0.2855 -0.4271  0.0774
 2303TIP3   OH228323   1.874   1.834   1.710  0.0736 -0.0881 -0.2322
 2303TIP3    H128324   1.800   1.893   1.699 -1.9140 -2.3330  0.2361
 2303TIP3    H228325   1.902   1.813   1.621 -1.1597 -0.7221 -0.4880
 2304TIP3   OH228326   2.893   4.132   3.176 -0.4665 -0.0520 -0.1128
 2304TIP3    H128327   2.963   4.072   3.152  1.2423  1.8715 -0.2251
 2304TIP3    H228328   2.871   4.110   3.266  1.9873  0.7826  0.7585
 2305TIP3   OH228329   0.765   4.721  13.348  0.3192 -0.2653 -0.1716
 2305TIP3    H128330   0.700   4.675  13.402 -1.6281  1.9975 -0.3879
 2305TIP3    H228331   0.800   4.654  13.289 -1.2892 -1.7583  0.4911
 2306TIP3   OH228332   4.719   2.896  10.504  0.1644 -0.2865 -0.0929
 2306TIP3    H128333   4.799   2.911  10.556  1.0195  1.1741 -1.7207
 2306TIP3    H228334   4.751   2.858  10.423 -1.0102 -1.2307 -0.1257
 2307TIP3   OH228335   0.991   2.680  14.095  0.5168 -0.3552 -0.0584
 2307TIP3    H128336   0.967   2.772  14.103 -0.9166 -0.7216  0.1231
 2307TIP3    H228337   1.049   2.677  14.019  0.8048  0.7296  0.1006
 2308TIP3   OH228338   1.092   1.095   5.259 -0.1815  0.6326  0.1533
 2308TIP3    H128339   1.123   1.040   5.331 -1.1543  0.3096  0.3338
 2308TIP3    H228340   1.169   1.147   5.234  1.1009 -1.5763 -0.7746
 2309TIP3   OH228341   0.882   4.898  11.955 -0.7773  0.0815 -0.6695
 2309TIP3    H128342   0.869   4.934  12.043 -1.4695 -0.9743 -0.3377
 2309TIP3    H228343   0.865   4.805  11.964  0.6895 -0.3112 -1.5958
 2310TIP3   OH228344   6.229   6.183  14.565  0.0010  0.0307 -0.2423
 2310TIP3    H128345   6.154   6.147  14.518 -0.9083  0.0950  1.1216
 2310TIP3    H228346   6.236   6.273  14.533 -0.6638  0.0988 -0.2082
 2311TIP3   OH228347   2.977   4.110  11.509 -0.0901 -0.5078  0.2243
 2311TIP3    H128348   2.931   4.185  11.546  0.3676 -0.5262  0.8388
 2311TIP3    H228349   2.919   4.035  11.529 -0.4393 -0.3521 -0.1957
 2312TIP3   OH228350   1.112   5.497  11.648 -0.4821  0.0019 -0.1506
 2312TIP3    H128351   1.017   5.507  11.658 -0.3114  0.3827  1.1822
 2312TIP3    H228352   1.149   5.539  11.725  0.6301 -3.1408  1.2070
 2313TIP3   OH228353   4.180   5.005   0.512 -0.6593 -0.3025  0.1317
 2313TIP3    H128354   4.095   5.044   0.532 -1.3703 -0.8787 -1.6096
 2313TIP3    H228355   4.218   5.063   0.446 -1.2902 -1.8970 -1.7291
 2314TIP3   OH228356   4.281   1.264   3.383  0.7037  0.6459  0.2896
 2314TIP3    H128357   4.316   1.269   3.294  1.4375 -0.8963  0.4486
 2314TIP3    H228358   4.186   1.269   3.372  0.8475  2.3597 -0.3921
 2315TIP3   OH228359   1.663   0.128  11.720  0.0008 -0.6364 -0.6882
 2315TIP3    H128360   1.735   0.084  11.676 -0.2234  0.0647 -1.7938
 2315TIP3    H228361   1.688   0.220  11.722 -0.0761 -0.6328  0.5049
 2316TIP3   OH228362   2.644   3.196  11.516 -0.0941 -0.2109 -0.4428
 2316TIP3    H128363   2.682   3.240  11.440  1.0017 -0.3782 -0.0146
 2316TIP3    H228364   2.681   3.242  11.591  0.0693 -1.0425 -0.0039
 2317TIP3   OH228365   0.256   6.220  11.668  0.5013 -0.4084 -0.2552
 2317TIP3    H128366   0.178   6.266  11.639  1.6747  0.7505 -1.7369
 2317TIP3    H228367   0.234   6.187  11.756 -1.1447  1.0754 -0.0672
 2318TIP3   OH228368   5.972   1.883   5.354  0.4842 -0.8783  0.0434
 2318TIP3    H128369   5.973   1.865   5.260  0.3079  1.5919 -0.4947
 2318TIP3    H228370   5.882   1.910   5.372  0.6350 -0.8981  0.8496
 2319TIP3   OH228371   6.174   0.746  10.633  0.2763 -0.0908 -0.3289
 2319TIP3    H128372   6.114   0.772  10.563  0.8808  0.0773 -0.7919
 2319TIP3    H228373   6.252   0.714  10.587  1.0048  0.7895  0.2565
 2320TIP3   OH228374   2.740   4.337  11.029  0.3257 -0.8077  0.2258
 2320TIP3    H128375   2.765   4.317  11.119  1.3694 -4.5420 -0.7282
 2320TIP3    H228376   2.822   4.354  10.983 -0.1438  0.4202 -0.2245
 2321TIP3   OH228377   6.078   0.005   1.927  0.0912  0.1791  0.5312
 2321TIP3    H128378   6.115   0.087   1.894  0.0640 -0.0781 -0.1709
 2321TIP3    H228379   6.126  -0.063   1.880  1.3111 -0.2883  2.3549
 2322TIP3   OH228380   0.627   2.888   5.557 -0.7010 -0.0597  0.0931
 2322TIP3    H128381   0.556   2.905   5.618  0.8326 -0.8851  2.2202
 2322TIP3    H228382   0.623   2.794   5.540 -0.9170  0.1073 -0.8970
 2323TIP3   OH228383   3.831   3.284  16.460  0.5866 -0.5594 -0.4303
 2323TIP3    H128384   3.866   3.354  16.516 -1.5947 -0.2936  0.7240
 2323TIP3    H228385   3.808   3.214  16.521  0.0902 -1.1325 -1.2612
 2324TIP3   OH228386   3.608   3.806   5.995  0.9385  0.5662 -0.0367
 2324TIP3    H128387   3.584   3.743   6.062  1.2740 -0.2455 -0.6669
 2324TIP3    H228388   3.645   3.880   6.044 -2.6957  1.9066  1.0080
 2325TIP3   OH228389   4.863   6.001   3.229  0.8480 -0.5069 -0.1111
 2325TIP3    H128390   4.914   6.064   3.179  0.2785 -0.8059 -1.1232
 2325TIP3    H228391   4.777   6.042   3.237  0.7937 -0.6810  0.1816
 2326TIP3   OH228392   5.741   6.456   3.623 -0.0349  0.1082 -0.4114
 2326TIP3    H128393   5.669   6.449   3.685  0.7459  0.9747  0.6347
 2326TIP3    H228394   5.705   6.422   3.541 -0.7008 -2.2572  0.7795
 2327TIP3   OH228395   1.123   1.337   0.963  0.1712  0.6568  0.1816
 2327TIP3    H128396   1.217   1.342   0.945  0.3794  1.1713  1.3316
 2327TIP3    H228397   1.082   1.337   0.876  1.2711 -0.8125 -0.3767
 2328TIP3   OH228398   4.507   5.746  11.769 -0.0426  0.1216 -0.3399
 2328TIP3    H128399   4.587   5.760  11.820  0.5203  1.5849 -1.5597
 2328TIP3    H228400   4.524   5.665  11.720 -0.1722 -0.7139  0.9273
 2329TIP3   OH228401   0.853   6.314   0.733  0.2961 -0.2356  0.2346
 2329TIP3    H128402   0.901   6.269   0.802 -1.1784 -1.1799  0.6850
 2329TIP3    H228403   0.883   6.405   0.738  0.6867 -0.4247  1.6795
 2330TIP3   OH228404   0.875   3.570   5.691  0.1739  0.0608 -0.2978
 2330TIP3    H128405   0.810   3.501   5.680 -0.1651  0.0358  1.4604
 2330TIP3    H228406   0.958   3.523   5.701  0.1299 -0.0310 -0.3601
 2331TIP3   OH228407   4.299   0.661  13.365 -0.5648 -0.1617  0.0494
 2331TIP3    H128408   4.259   0.613  13.293 -0.1169 -1.6733  0.7595
 2331TIP3    H228409   4.383   0.618  13.379 -0.5801  0.1838  1.3791
 2332TIP3   OH228410   5.157   0.834  12.272 -0.2526 -0.1101 -0.4437
 2332TIP3    H128411   5.068   0.822  12.240  0.3140 -1.6273 -1.5490
 2332TIP3    H228412   5.197   0.747  12.266  0.1449 -0.4241  3.7586
 2333TIP3   OH228413   2.892   4.927  13.755  0.2334 -0.2386  0.6664
 2333TIP3    H128414   2.830   4.855  13.760  0.8403 -0.7436  1.0007
 2333TIP3    H228415   2.880   4.974  13.838  2.2145 -1.9577  2.0516
 2334TIP3   OH228416   2.138   3.488   1.327  0.1378 -0.5042  0.3118
 2334TIP3    H128417   2.101   3.520   1.244 -1.2523  0.8087  1.3847
 2334TIP3    H228418   2.217   3.539   1.339 -0.6253  0.6359  0.6576
 2335TIP3   OH228419   3.752   2.487  10.927  0.0096 -0.3506  0.0697
 2335TIP3    H128420   3.748   2.433  10.848 -2.0433  1.2830 -1.0393
 2335TIP3    H228421   3.844   2.513  10.933  0.1199  0.0199 -2.2036
 2336TIP3   OH228422   3.173   1.272  15.927 -0.1985  0.2384 -0.3018
 2336TIP3    H128423   3.079   1.275  15.945 -0.4644  0.5432 -1.6770
 2336TIP3    H228424   3.202   1.188  15.963 -1.5031 -1.0631 -2.1796
 2337TIP3   OH228425   0.175   0.774   5.847 -0.5170  0.2474  0.4520
 2337TIP3    H128426   0.210   0.839   5.908  1.6616 -2.0095  1.7995
 2337TIP3    H228427   0.102   0.733   5.894 -0.2570  0.0049  0.6452
 2338TIP3   OH228428   2.678   0.825  17.259  0.4455  0.1640 -0.1575
 2338TIP3    H128429   2.698   0.776  17.180 -2.2846 -0.6646 -0.4436
 2338TIP3    H228430   2.587   0.852  17.248 -0.1568 -0.2897  2.8123
 2339TIP3   OH228431   2.159   1.076  15.326 -0.1732 -0.0609 -0.3981
 2339TIP3    H128432   2.119   0.993  15.299 -1.1206  0.2084  0.1218
 2339TIP3    H228433   2.097   1.113  15.389  0.1897  1.0881 -0.6927
 2340TIP3   OH228434   2.009   4.239   0.455  0.2136  0.0440  0.4235
 2340TIP3    H128435   1.982   4.204   0.370 -0.3310 -0.8709  0.9437
 2340TIP3    H228436   2.104   4.249   0.449  0.4151 -1.6691  0.2643
 2341TIP3   OH228437   1.506   1.553   0.657 -0.0454 -0.1613 -0.3573
 2341TIP3    H128438   1.521   1.641   0.692 -0.9061 -0.0714 -0.1749
 2341TIP3    H228439   1.522   1.561   0.563  0.4203  0.0577 -0.2610
 2342TIP3   OH228440   5.510   1.700  13.497  0.2199  0.7381 -0.4269
 2342TIP3    H128441   5.441   1.748  13.451 -1.9961 -0.3985  1.4956
 2342TIP3    H228442   5.464   1.648  13.562  2.8822 -0.6510  0.5070
 2343TIP3   OH228443   1.876   4.904  17.156 -0.0288 -0.3782  0.2951
 2343TIP3    H128444   1.786   4.932  17.169  0.0039  0.0206 -0.3117
 2343TIP3    H228445   1.898   4.933  17.068  0.6115 -0.6980  0.3434
 2344TIP3   OH228446   3.775   5.097   4.195  0.9164 -0.0191 -0.0786
 2344TIP3    H128447   3.769   5.072   4.102 -0.6627 -0.5969  0.1525
 2344TIP3    H228448   3.691   5.072   4.232  0.5721  2.5054  0.9866
 2345TIP3   OH228449   6.366   0.244   4.850 -0.2558  0.1167 -0.4652
 2345TIP3    H128450   6.363   0.186   4.926  0.2802  0.3358 -0.2735
 2345TIP3    H228451   6.274   0.264   4.832 -0.4645 -0.8689 -0.6016
 2346TIP3   OH228452   5.119   1.799   2.968  0.1057  0.0694  0.1931
 2346TIP3    H128453   5.178   1.872   2.986  0.1354 -0.4662  2.5747
 2346TIP3    H228454   5.156   1.726   3.017 -0.5719 -1.2599 -1.1955
 2347TIP3   OH228455   3.478   2.195  10.888 -0.2305  0.1721  0.8062
 2347TIP3    H128456   3.519   2.259  10.946 -0.4124  0.5226  0.5429
 2347TIP3    H228457   3.407   2.242  10.845  1.1586  0.5051 -1.2571
 2348TIP3   OH228458   5.538   2.134  11.377  0.0713  0.2932 -0.2229
 2348TIP3    H128459   5.628   2.102  11.374  0.1937  0.7200 -1.4008
 2348TIP3    H228460   5.489   2.074  11.321  0.0870  1.4327 -1.5033
 2349TIP3   OH228461   5.327   3.682  15.686 -0.3641 -0.6194  0.3088
 2349TIP3    H128462   5.319   3.588  15.669  1.6533 -1.1354  1.8640
 2349TIP3    H228463   5.285   3.696  15.771  0.4903 -0.3689  0.6992
 2350TIP3   OH228464   5.647   1.949  14.784  1.1791 -0.4100 -0.1539
 2350TIP3    H128465   5.623   2.039  14.804 -0.4340 -0.8645  0.1246
 2350TIP3    H228466   5.618   1.936  14.693 -1.6388 -1.5483  0.8010
 2351TIP3   OH228467   2.173   0.395   3.397 -0.0072  0.6796 -0.4976
 2351TIP3    H128468   2.237   0.407   3.328  1.0194 -1.0191  0.1149
 2351TIP3    H228469   2.099   0.351   3.354  0.1573  0.6272 -0.7278
 2352TIP3   OH228470   1.251   3.899   4.372 -0.2823 -0.6817 -0.3136
 2352TIP3    H128471   1.227   3.934   4.458  1.1818 -1.0199  0.2637
 2352TIP3    H228472   1.337   3.937   4.354  1.6796 -4.2260  0.6053
 2353TIP3   OH228473   0.262   0.556  15.816  0.3030  0.1066  0.1168
 2353TIP3    H128474   0.255   0.502  15.737  1.2535  1.6985 -1.1362
 2353TIP3    H228475   0.293   0.641  15.784 -1.1928  1.4431  1.9745
 2354TIP3   OH228476   3.174   6.597  15.449 -0.0672  0.5743  0.1584
 2354TIP3    H128477   3.192   6.567  15.360 -1.0775 -0.0132  0.1354
 2354TIP3    H228478   3.123   6.526  15.488  2.2277 -0.2159  1.9633
 2355TIP3   OH228479   4.249   0.726  15.628 -0.2975 -0.1911 -0.2484
 2355TIP3    H128480   4.201   0.804  15.657  0.5905  0.1901  0.2591
 2355TIP3    H228481   4.246   0.666  15.702  1.3673  0.4968  0.4278
 2356TIP3   OH228482   1.304   1.185   3.099  0.3153 -0.3300  0.1805
 2356TIP3    H128483   1.354   1.155   3.023 -0.0017  0.4709 -0.3642
 2356TIP3    H228484   1.231   1.123   3.106  1.4042 -1.5699  1.0476
 2357TIP3   OH228485   0.107   4.729   3.989 -0.5534  0.3734  0.1674
 2357TIP3    H128486   0.119   4.656   3.928 -0.5456  1.3008 -0.9542
 2357TIP3    H228487   0.113   4.807   3.935  1.5015  1.3249  1.6311
 2358TIP3   OH228488   0.999   3.352  14.119 -0.3548 -0.0215 -0.7079
 2358TIP3    H128489   0.991   3.340  14.024  0.5583  1.7429 -1.0403
 2358TIP3    H228490   1.076   3.407  14.130 -0.5258 -0.0887  1.0716
 2359TIP3   OH228491   0.662   1.928   1.366  0.1612  0.4375 -0.2457
 2359TIP3    H128492   0.585   1.969   1.327  0.1623  0.6569 -0.0153
 2359TIP3    H228493   0.635   1.906   1.456  0.4093  0.6400 -0.1184
 2360TIP3   OH228494   3.455   4.274   2.269  0.1860  0.5410  0.1284
 2360TIP3    H128495   3.378   4.291   2.216  0.1488  1.2749  0.4087
 2360TIP3    H228496   3.436   4.314   2.353  1.3230  1.7542 -0.1571
 2361TIP3   OH228497   3.945   0.388   1.885  0.0944 -0.1699 -0.2978
 2361TIP3    H128498   3.850   0.399   1.897 -0.5151 -4.1004 -0.4043
 2361TIP3    H228499   3.984   0.439   1.956 -2.2013 -0.0245  0.9584
 2362TIP3   OH228500   0.479   2.278   4.477 -0.6020 -0.1324 -0.5849
 2362TIP3    H128501   0.467   2.185   4.495  1.5194  0.0922  2.9914
 2362TIP3    H228502   0.424   2.322   4.542 -0.4466  1.0823 -1.2565
 2363TIP3   OH228503   4.662   5.738  16.594 -0.4146  0.5907 -0.0082
 2363TIP3    H128504   4.679   5.648  16.621 -0.1318  0.4448 -0.6688
 2363TIP3    H228505   4.613   5.776  16.668  1.6221  0.6411  1.4073
 2364TIP3   OH228506   3.875   3.603  14.838 -0.5430 -0.6680  0.1932
 2364TIP3    H128507   3.910   3.549  14.910  0.3190  0.7668  0.8893
 2364TIP3    H228508   3.891   3.693  14.866 -0.1077 -0.0700 -1.8449
 2365TIP3   OH228509   2.304   1.866  13.615  0.1524 -0.1080 -0.4501
 2365TIP3    H128510   2.367   1.872  13.687  1.1574  1.0589 -1.3950
 2365TIP3    H228511   2.294   1.772  13.601  0.8265 -0.3348  0.4423
 2366TIP3   OH228512   0.620   2.244   0.456 -0.1718 -0.1035 -0.3054
 2366TIP3    H128513   0.714   2.253   0.440 -0.2580 -0.2547 -0.9255
 2366TIP3    H228514   0.614   2.184   0.530  0.2852  1.8900  1.4302
 2367TIP3   OH228515   0.313   3.575  15.030  0.3627 -0.8502  0.0613
 2367TIP3    H128516   0.396   3.569  15.077  1.0022  1.0674 -0.7181
 2367TIP3    H228517   0.330   3.637  14.959 -1.5758 -0.8725 -0.4802
 2368TIP3   OH228518   6.746   4.337   4.353 -0.5363 -0.4397 -0.0957
 2368TIP3    H128519   6.740   4.432   4.348 -1.9391 -0.5264 -0.5195
 2368TIP3    H228520   6.712   4.316   4.440 -0.5439 -0.5660 -0.1294
 2369TIP3   OH228521   5.007   1.025  14.665 -0.0787  0.2627 -0.0633
 2369TIP3    H128522   5.065   0.962  14.706 -0.4877  0.0140  0.1352
 2369TIP3    H228523   4.919   0.999  14.693 -0.4000 -0.1155 -1.3487
 2370TIP3   OH228524   6.643   1.021   0.576 -0.3053  0.1800  0.0072
 2370TIP3    H128525   6.603   0.993   0.658 -0.5874  1.3144  0.2772
 2370TIP3    H228526   6.726   1.061   0.601  0.1905 -0.5784 -0.3887
 2371TIP3   OH228527   2.732   5.731  16.622  0.0709 -0.5482 -0.2769
 2371TIP3    H128528   2.757   5.721  16.713  0.9266  1.4746 -0.2415
 2371TIP3    H228529   2.786   5.667  16.575  1.8493  0.4610  0.3366
 2372TIP3   OH228530   4.199   0.727  15.216  0.5109  0.2520 -0.5183
 2372TIP3    H128531   4.114   0.771  15.207 -0.6412 -1.8576 -0.6699
 2372TIP3    H228532   4.232   0.755  15.301 -1.9273 -1.3233  1.0845
 2373TIP3   OH228533   5.276   5.393  14.146 -0.0471  0.2525 -0.7513
 2373TIP3    H128534   5.351   5.350  14.106  0.1513 -0.0353 -0.0825
 2373TIP3    H228535   5.305   5.484  14.161 -0.0694  0.3200 -1.1074
 2374TIP3   OH228536   0.471   2.836   1.098 -0.7771  0.0156  0.1806
 2374TIP3    H128537   0.542   2.897   1.120 -1.9113  0.8899  1.5759
 2374TIP3    H228538   0.475   2.829   1.003  1.2795 -0.1006  0.2212
 2375TIP3   OH228539   0.123   0.883  12.359 -0.2283 -0.2813  0.3681
 2375TIP3    H128540   0.044   0.846  12.320  0.2030 -0.5808 -0.2268
 2375TIP3    H228541   0.184   0.892  12.287  1.0282 -1.9913  1.1482
 2376TIP3   OH228542   6.115   1.654   3.436  0.1576 -0.0582  0.4745
 2376TIP3    H128543   6.102   1.736   3.484 -0.4696  0.1841 -0.0912
 2376TIP3    H228544   6.067   1.666   3.354 -0.9444 -1.4197  0.8621
 2377TIP3   OH228545   1.647   5.808  11.194 -0.1832 -0.1754  0.6433
 2377TIP3    H128546   1.682   5.897  11.191 -0.6421  0.0292  1.1929
 2377TIP3    H228547   1.610   5.799  11.282  0.8332 -1.2857  0.9981
 2378TIP3   OH228548   5.999   6.236   3.070  0.4616 -0.0930 -0.3272
 2378TIP3    H128549   5.945   6.270   3.141 -2.0522 -0.5703 -1.8898
 2378TIP3    H228550   6.021   6.313   3.017  1.0728  0.0534  0.1250
 2379TIP3   OH228551   4.981   0.151  16.902  0.6862 -0.1625  0.6982
 2379TIP3    H128552   5.032   0.150  16.821 -1.3009 -0.6704 -0.6009
 2379TIP3    H228553   5.005   0.070  16.946  2.3031  0.4428  1.0134
 2380TIP3   OH228554   1.639   1.631   1.415 -0.2827 -0.1747  0.1901
 2380TIP3    H128555   1.567   1.656   1.472 -0.8979 -2.4800  0.5064
 2380TIP3    H228556   1.621   1.677   1.332 -1.2731  0.4473  0.7266
 2381TIP3   OH228557   2.876   0.592   0.593  0.3484 -0.2039 -0.2217
 2381TIP3    H128558   2.847   0.587   0.502  0.8829  0.0960 -0.4141
 2381TIP3    H228559   2.944   0.525   0.601 -0.1232 -0.6519  0.1272
 2382TIP3   OH228560   2.265   6.695   6.596 -0.1771 -0.0305  0.6532
 2382TIP3    H128561   2.190   6.717   6.541  1.2110 -0.1582 -1.4002
 2382TIP3    H228562   2.285   6.775   6.644  1.0772  1.4633 -2.1553
 2383TIP3   OH228563   0.362   4.728   3.709  0.0491 -0.0655  0.2165
 2383TIP3    H128564   0.324   4.691   3.630  2.0852  1.7107 -1.7664
 2383TIP3    H228565   0.440   4.675   3.725  0.5271  0.5613  0.0264
 2384TIP3   OH228566   3.939   3.307   4.908 -0.4375 -0.3707 -0.2522
 2384TIP3    H128567   3.988   3.306   4.826 -0.5916 -1.0500 -0.3431
 2384TIP3    H228568   3.951   3.219   4.945 -0.1287  0.0164  0.5980
 2385TIP3   OH228569   1.353   0.676   3.509  0.2342 -0.5736  0.8624
 2385TIP3    H128570   1.307   0.596   3.483  0.6801 -1.0216  1.4433
 2385TIP3    H228571   1.416   0.648   3.574  0.0088  0.3469  1.4988
 2386TIP3   OH228572   3.402   2.794   1.920 -0.2506  0.0899 -0.0947
 2386TIP3    H128573   3.318   2.838   1.932 -0.3328 -0.4859  1.6885
 2386TIP3    H228574   3.384   2.702   1.940  0.9358  0.0855  1.0488
 2387TIP3   OH228575   4.227   1.148  14.437 -0.5422 -0.1821  0.0781
 2387TIP3    H128576   4.158   1.157  14.371 -0.8855 -0.0935  0.4427
 2387TIP3    H228577   4.205   1.215  14.502  0.5145  0.6206 -0.3463
 2388TIP3   OH228578   5.076   2.811   3.479  0.4623 -0.2034 -0.4171
 2388TIP3    H128579   5.137   2.740   3.461  1.0341  0.5663 -1.6604
 2388TIP3    H228580   5.113   2.857   3.554 -0.5233 -1.8633  1.1577
 2389TIP3   OH228581   3.532   1.935  11.450  0.1325  0.0190 -0.2082
 2389TIP3    H128582   3.615   1.901  11.418 -0.1178  1.1503 -2.2251
 2389TIP3    H228583   3.474   1.934  11.374 -1.3881  0.2573  0.8855
 2390TIP3   OH228584   0.937   6.622   4.111  0.8157 -0.0693 -0.1755
 2390TIP3    H128585   0.969   6.533   4.125  0.6370 -0.1084 -0.0179
 2390TIP3    H228586   1.011   6.668   4.071  1.1229 -0.1172  0.3396
 2391TIP3   OH228587   1.004   6.473   2.207 -0.1866  0.4756 -0.0698
 2391TIP3    H128588   0.958   6.418   2.271  1.4378  0.6284  1.3097
 2391TIP3    H228589   0.941   6.485   2.136 -1.1422 -1.8536  0.2962
 2392TIP3   OH228590   5.410   2.801   2.121 -0.7282 -0.2226 -0.2674
 2392TIP3    H128591   5.318   2.809   2.098 -1.0440  1.4732  1.3297
 2392TIP3    H228592   5.411   2.741   2.195 -0.3157 -1.5914 -1.3464
 2393TIP3   OH228593   0.569   3.178  16.915  0.1869 -0.0766 -0.3640
 2393TIP3    H128594   0.474   3.168  16.905  0.1689 -1.9785  1.2047
 2393TIP3    H228595   0.579   3.252  16.976 -0.1875  1.0518 -1.6126
 2394TIP3   OH228596   0.366   4.199   3.718  0.4499  0.2854 -0.4309
 2394TIP3    H128597   0.287   4.170   3.764  2.0094 -1.6561  1.2036
 2394TIP3    H228598   0.432   4.208   3.787  2.1543 -0.0270 -1.9569
 2395TIP3   OH228599   0.284   5.148   1.872  0.0250  0.6652  0.3988
 2395TIP3    H128600   0.341   5.166   1.797  0.9536  1.6357  1.3012
 2395TIP3    H228601   0.342   5.156   1.948 -0.9410 -0.0975  1.2459
 2396TIP3   OH228602   3.850   3.702  15.729 -0.3311  0.4964 -0.1932
 2396TIP3    H128603   3.780   3.767  15.733  0.3378  1.2577 -0.5757
 2396TIP3    H228604   3.931   3.753  15.722  0.4756 -0.2898  2.2174
 2397TIP3   OH228605   1.778   2.068   5.004 -0.1332 -0.8322  0.6268
 2397TIP3    H128606   1.768   1.995   4.943  0.4045  1.0118 -1.8322
 2397TIP3    H228607   1.755   2.145   4.953  1.4711  0.9578  2.4135
 2398TIP3   OH228608   3.787   3.154   0.406 -0.2155 -0.6512 -0.6474
 2398TIP3    H128609   3.868   3.103   0.404  1.2839  1.5522 -0.0469
 2398TIP3    H228610   3.750   3.144   0.319  0.8887 -1.4238 -1.0550
 2399TIP3   OH228611   3.601   1.920  12.273  0.3907  0.2343  0.3551
 2399TIP3    H128612   3.640   1.947  12.190  2.1672 -0.8888  0.7724
 2399TIP3    H228613   3.538   1.990  12.293 -1.3033 -0.2511 -2.6721
 2400TIP3   OH228614   5.815   2.821  14.408  0.7784 -0.0385  0.6200
 2400TIP3    H128615   5.855   2.770  14.338 -1.8321 -1.8007  0.2431
 2400TIP3    H228616   5.793   2.756  14.475  0.1374  1.0897  1.5302
 2401TIP3   OH228617   4.055   6.728   4.709  0.4971 -0.0777  0.5655
 2401TIP3    H128618   4.141   6.708   4.674 -0.0201 -1.9571  0.2572
 2401TIP3    H228619   4.026   6.806   4.661  1.7034  0.1342  0.1632
 2402TIP3   OH228620   3.279   0.843   3.374 -0.0414  0.0853 -0.3206
 2402TIP3    H128621   3.372   0.858   3.362 -0.5090  1.8643 -2.3224
 2402TIP3    H228622   3.238   0.882   3.297 -2.5388  0.4121  1.0568
 2403TIP3   OH228623   2.648   3.039   2.927  0.2425  0.3760  0.4424
 2403TIP3    H128624   2.677   2.964   2.876  0.7122  0.1342  1.0557
 2403TIP3    H228625   2.619   3.103   2.862 -2.2962 -1.1484 -0.0661
 2404TIP3   OH228626   6.216   4.410   1.703 -0.0836  0.8556  0.0710
 2404TIP3    H128627   6.175   4.356   1.770  1.1438  0.0979  0.2538
 2404TIP3    H228628   6.147   4.469   1.674 -1.5541 -0.9476 -0.2858
 2405TIP3   OH228629   2.837   0.975  14.533 -0.5544  0.2038 -0.3251
 2405TIP3    H128630   2.830   0.889  14.576  0.8567  0.3116  0.1741
 2405TIP3    H228631   2.813   1.038  14.601 -1.9348  0.2148 -0.7926
 2406TIP3   OH228632   6.545   2.305  16.518 -0.5793 -0.4060  0.3849
 2406TIP3    H128633   6.562   2.289  16.425 -2.1088 -0.7430  0.1412
 2406TIP3    H228634   6.612   2.254  16.563 -1.1941 -2.0929 -0.5168
 2407TIP3   OH228635   4.952   3.791  14.637 -0.1195 -0.1940 -0.4046
 2407TIP3    H128636   4.998   3.745  14.706  0.6638 -0.0353 -0.8082
 2407TIP3    H228637   4.895   3.725  14.597 -2.3132  0.2118  1.8103
 2408TIP3   OH228638   5.724   4.331  14.529  0.2311  0.1828 -0.3089
 2408TIP3    H128639   5.655   4.324  14.595  0.6386  0.4497  0.1549
 2408TIP3    H228640   5.764   4.244  14.527  1.2801  0.6042  0.9932
 2409TIP3   OH228641   4.348   4.233   3.357  0.4586  0.8347  0.3826
 2409TIP3    H128642   4.402   4.166   3.398 -0.9059  0.2712  1.3214
 2409TIP3    H228643   4.408   4.280   3.299  1.8768  0.0570  1.1673
 2410TIP3   OH228644   1.459   2.461  16.428  0.1687  0.7867 -0.3182
 2410TIP3    H128645   1.480   2.434  16.339  0.9013  0.5500 -0.0814
 2410TIP3    H228646   1.543   2.490  16.464 -0.4165  2.6314 -0.2972
 2411TIP3   OH228647   0.428   4.093   2.052  0.1388  0.0605  0.1036
 2411TIP3    H128648   0.420   3.998   2.064  1.6140 -0.2288 -0.8693
 2411TIP3    H228649   0.508   4.104   2.000  0.4769  1.9038  0.9235
 2412TIP3   OH228650   2.155   0.202   4.506  0.0705 -0.4509  0.1277
 2412TIP3    H128651   2.235   0.252   4.521  0.4466 -0.7437 -0.8141
 2412TIP3    H228652   2.098   0.262   4.458  0.1709 -0.6131 -0.2000
 2413TIP3   OH228653   2.886   3.440  11.527  0.1793 -0.3670 -0.4789
 2413TIP3    H128654   2.824   3.505  11.493  0.2207  1.2360  2.2040
 2413TIP3    H228655   2.965   3.490  11.547  0.0411 -1.0395  2.1550
 2414TIP3   OH228656   6.579   5.808   1.087 -0.1832 -0.2434 -0.6375
 2414TIP3    H128657   6.620   5.846   1.010  1.8757  0.1737  0.5969
 2414TIP3    H228658   6.632   5.731   1.107 -0.8807 -0.5243  0.1809
 2415TIP3   OH228659   4.579   0.174   3.027 -0.0916  0.2147  0.0020
 2415TIP3    H128660   4.569   0.181   2.932  0.4672  1.3447  0.0110
 2415TIP3    H228661   4.666   0.210   3.045 -1.0868  2.2446  1.1496
 2416TIP3   OH228662   5.159   0.077  12.142 -0.1498  0.7608  0.5590
 2416TIP3    H128663   5.216   0.143  12.102 -1.5262  1.2299 -0.7354
 2416TIP3    H228664   5.219   0.017  12.187  1.2536  1.9240  0.3219
 2417TIP3   OH228665   1.710   4.384  15.979  0.3028  0.8689 -0.2592
 2417TIP3    H128666   1.765   4.427  16.045 -0.4590  0.5546  0.6072
 2417TIP3    H228667   1.635   4.443  15.969 -0.7201 -0.1908  0.8913
 2418TIP3   OH228668   5.681   6.302   3.047  0.1587 -0.3433 -0.0257
 2418TIP3    H128669   5.644   6.263   3.126 -0.0203 -1.9601 -0.8814
 2418TIP3    H228670   5.769   6.330   3.074 -0.7509  1.3926  1.3780
 2419TIP3   OH228671   1.000   6.215   1.183  0.5368  0.6359 -0.0256
 2419TIP3    H128672   0.913   6.192   1.151  0.2096  0.8780  0.6776
 2419TIP3    H228673   1.051   6.134   1.174  0.7705  0.9668 -2.1362
 2420TIP3   OH228674   4.515   6.469   4.264  0.1777 -0.0083  0.0256
 2420TIP3    H128675   4.461   6.408   4.314 -0.0231  0.8156  0.8377
 2420TIP3    H228676   4.604   6.436   4.273  0.0496 -0.2741  0.3227
 2421TIP3   OH228677   2.710   0.723  12.011  0.2463  0.3101 -0.0029
 2421TIP3    H128678   2.748   0.767  11.935 -0.3402  1.0693  0.1309
 2421TIP3    H228679   2.785   0.706  12.069  0.5679  0.5316 -0.3481
 2422TIP3   OH228680   3.328   5.065   4.247 -0.3318 -0.2176 -0.0226
 2422TIP3    H128681   3.278   4.990   4.279 -1.0079 -0.4348 -1.5195
 2422TIP3    H228682   3.420   5.041   4.264 -0.5903 -0.9257  0.4432
 2423TIP3   OH228683   4.830   5.609   2.797 -0.4416  0.6358 -0.2198
 2423TIP3    H128684   4.793   5.582   2.713  0.9856  3.3191 -1.8545
 2423TIP3    H228685   4.906   5.552   2.809 -0.3992  0.5231 -0.9939
 2424TIP3   OH228686   3.361   5.119   3.364  0.0698  0.6077  0.5337
 2424TIP3    H128687   3.282   5.135   3.415  0.6971 -0.8458  2.0623
 2424TIP3    H228688   3.332   5.062   3.292 -0.5965  1.6550 -0.0434
 2425TIP3   OH228689   3.606   0.750  10.843  0.4910 -0.1524 -0.4969
 2425TIP3    H128690   3.644   0.831  10.808  0.7294 -1.0827 -2.4986
 2425TIP3    H228691   3.511   0.764  10.837  0.5261  0.1702 -0.3458
 2426TIP3   OH228692   0.397   2.129  17.133 -0.2018  0.1444 -0.0899
 2426TIP3    H128693   0.433   2.073  17.201 -1.9464 -0.8162  0.1147
 2426TIP3    H228694   0.450   2.209  17.136 -0.4835  0.3195  2.6992
 2427TIP3   OH228695   3.613   4.519   6.413 -0.3835 -0.4202 -0.0678
 2427TIP3    H128696   3.666   4.439   6.413  0.6551  0.2542  0.6541
 2427TIP3    H228697   3.664   4.582   6.363 -0.7397  0.0773  0.1875
 2428TIP3   OH228698   2.405   3.473  15.590 -0.4742 -0.1627 -0.6959
 2428TIP3    H128699   2.373   3.523  15.665 -1.3938 -0.0778 -1.1300
 2428TIP3    H228700   2.337   3.408  15.574  0.4463 -1.1983 -0.4948
 2429TIP3   OH228701   0.488   2.009   2.876  0.5039 -0.6903 -0.0681
 2429TIP3    H128702   0.426   2.064   2.924 -0.6459 -1.5924 -0.4518
 2429TIP3    H228703   0.560   2.067   2.854 -0.6991  0.6895 -0.5376
 2430TIP3   OH228704   5.145   0.939  16.195 -0.4178  0.1269  0.1239
 2430TIP3    H128705   5.090   0.925  16.118 -2.7340  0.2574  1.6716
 2430TIP3    H228706   5.094   0.997  16.251  0.6706 -0.8841  2.2851
 2431TIP3   OH228707   1.391   2.401   5.131 -0.3912  0.6844 -0.5888
 2431TIP3    H128708   1.467   2.345   5.115  0.7803  1.4497  1.7847
 2431TIP3    H228709   1.317   2.354   5.092  1.1887 -0.3189 -2.5600
 2432TIP3   OH228710   4.666   4.175   5.704 -0.2090  0.1594 -1.0142
 2432TIP3    H128711   4.684   4.248   5.763 -1.5397  0.8862 -1.4524
 2432TIP3    H228712   4.737   4.178   5.640  1.2191 -0.6013  0.4590
 2433TIP3   OH228713   1.042   1.404  14.523 -0.0248 -0.2421 -0.0059
 2433TIP3    H128714   1.097   1.481  14.510 -0.6723  0.4114  1.0233
 2433TIP3    H228715   1.066   1.372  14.610 -0.9229 -0.2225  0.2600
 2434TIP3   OH228716   0.427   1.762  14.285  0.1533 -0.0099  0.1841
 2434TIP3    H128717   0.440   1.856  14.295 -1.1354  0.6289 -2.9231
 2434TIP3    H228718   0.512   1.724  14.307  0.7034  1.8365  1.5361
 2435TIP3   OH228719   2.443   4.877  13.552 -0.3323  0.1686 -0.4222
 2435TIP3    H128720   2.504   4.891  13.479 -0.1188  1.8265  0.0343
 2435TIP3    H228721   2.364   4.841  13.511 -0.0814  0.7204 -1.4199
 2436TIP3   OH228722   0.442   5.069  16.259  0.0530  0.4740  0.1625
 2436TIP3    H128723   0.461   4.978  16.283 -0.6358 -0.4137 -2.3311
 2436TIP3    H228724   0.374   5.096  16.321  0.5763 -0.5346  1.2318
 2437TIP3   OH228725   4.577   0.353  14.583 -0.5058  0.0589  0.1825
 2437TIP3    H128726   4.505   0.410  14.611  0.4396  0.6720  1.4878
 2437TIP3    H228727   4.652   0.413  14.574  0.4534 -0.9123  1.3629
 2438TIP3   OH228728   0.717   5.580  17.127 -0.0466 -0.4779 -0.8587
 2438TIP3    H128729   0.706   5.489  17.153 -0.4868 -0.7111 -1.8208
 2438TIP3    H228730   0.810   5.597  17.139 -0.2067 -0.5822  0.7582
 2439TIP3   OH228731   0.078   1.854  13.052 -0.2135  0.6891  0.0878
 2439TIP3    H128732   0.169   1.845  13.079 -0.2633  2.0830  0.7422
 2439TIP3    H228733   0.027   1.827  13.128 -0.3565  1.1699  0.1599
 2440TIP3   OH228734   5.117   4.982   4.795  0.1700 -0.2947  0.2049
 2440TIP3    H128735   5.083   4.945   4.713 -0.7912  0.5915  0.1782
 2440TIP3    H228736   5.099   4.915   4.861 -0.1551 -0.5203 -0.1090
 2441TIP3   OH228737   1.349   5.843  12.392  0.4634  0.3517 -1.0063
 2441TIP3    H128738   1.286   5.791  12.342  0.0247  0.3486 -0.4627
 2441TIP3    H228739   1.353   5.927  12.345 -1.6158  1.1676  0.1453
 2442TIP3   OH228740   4.554   2.207  14.119 -0.3199 -0.1617  0.2730
 2442TIP3    H128741   4.531   2.231  14.029 -1.3729  2.2796  1.1015
 2442TIP3    H228742   4.470   2.204  14.165  0.3416  0.6108  1.5856
 2443TIP3   OH228743   2.521   6.514  12.760 -0.4084 -0.4042 -1.0831
 2443TIP3    H128744   2.535   6.515  12.666 -1.0520 -0.7808 -1.1854
 2443TIP3    H228745   2.474   6.433  12.777 -0.2945 -0.3413 -0.4347
 2444TIP3   OH228746   6.113   0.984  12.546 -0.6649 -0.3982 -0.0324
 2444TIP3    H128747   6.027   0.997  12.587 -0.7709 -0.7902 -0.1329
 2444TIP3    H228748   6.095   0.931  12.469 -0.5910  1.0083 -1.0709
 2445TIP3   OH228749   4.714   4.146   1.257 -0.2381 -0.1344 -0.0126
 2445TIP3    H128750   4.790   4.103   1.295  0.3862  0.8070 -0.1578
 2445TIP3    H228751   4.643   4.083   1.267  0.5518 -1.0189  0.1513
 2446TIP3   OH228752   4.903   4.853  14.995 -0.1476 -0.1926 -0.4471
 2446TIP3    H128753   4.953   4.932  15.019 -0.8730 -0.3823  1.8376
 2446TIP3    H228754   4.816   4.867  15.032 -0.0360 -2.4347  0.8126
 2447TIP3   OH228755   0.101   6.118   5.520 -0.1545  0.0849  0.3033
 2447TIP3    H128756   0.139   6.175   5.586  1.9949  0.3277 -1.0284
 2447TIP3    H228757   0.012   6.100   5.551  0.2908  1.3175  2.4890
 2448TIP3   OH228758   0.360   3.937  13.139  0.4241  0.0977  0.6598
 2448TIP3    H128759   0.307   3.923  13.218  0.2919 -0.8504  0.4216
 2448TIP3    H228760   0.370   3.849  13.102  0.7666  0.4926 -0.1993
 2449TIP3   OH228761   0.912   2.968  11.755 -0.2619  0.1617 -0.1401
 2449TIP3    H128762   0.984   2.958  11.692 -1.4293  1.0834 -1.6944
 2449TIP3    H228763   0.842   3.008  11.704 -1.7679 -0.4016  1.4187
 2450TIP3   OH228764   1.853   1.206  16.487 -0.2887 -0.2328 -0.7816
 2450TIP3    H128765   1.760   1.194  16.469 -0.5810  1.7552 -0.8426
 2450TIP3    H228766   1.879   1.280  16.432  0.6855  0.9141  1.1134
 2451TIP3   OH228767   0.053   3.667  16.610  0.4558 -0.2810  0.4059
 2451TIP3    H128768   0.099   3.583  16.616  2.9793  0.9463 -0.4050
 2451TIP3    H228769   0.098   3.723  16.672 -0.7027  0.7230  0.3770
 2452TIP3   OH228770   1.155   3.182   2.215 -0.1956  0.5273  0.1240
 2452TIP3    H128771   1.120   3.099   2.245  0.2410  0.2685 -0.0808
 2452TIP3    H228772   1.246   3.183   2.246 -0.0080  0.6450 -0.4118
 2453TIP3   OH228773   4.678   6.285   2.029  0.3689 -0.1878 -0.0128
 2453TIP3    H128774   4.763   6.241   2.036 -0.0948 -0.9156  1.5902
 2453TIP3    H228775   4.698   6.378   2.031  1.1127 -0.3519  1.0151
 2454TIP3   OH228776   2.160   0.225  15.983  0.2810  0.3408 -0.4632
 2454TIP3    H128777   2.228   0.290  15.996  1.2752 -1.0669  2.0097
 2454TIP3    H228778   2.078   0.271  15.999  0.9993  0.8973  1.9948
 2455TIP3   OH228779   5.000   0.258   3.923  0.1173  0.1898 -0.1077
 2455TIP3    H128780   5.049   0.333   3.887  1.4910 -0.7740 -0.3393
 2455TIP3    H228781   4.987   0.281   4.015  0.9163  0.5341 -0.0659
 2456TIP3   OH228782   5.396   5.004  15.082 -0.0303  0.4692  0.1769
 2456TIP3    H128783   5.438   4.919  15.098 -0.3581 -0.1586 -1.9223
 2456TIP3    H228784   5.426   5.060  15.153  1.5666 -0.9364  0.6663
 2457TIP3   OH228785   2.351   0.558   1.118  0.0948 -0.0402  0.0251
 2457TIP3    H128786   2.402   0.636   1.138  0.5096 -0.6857  1.6144
 2457TIP3    H228787   2.415   0.495   1.085  0.4802 -0.9774  2.3660
 2458TIP3   OH228788   2.728   4.670  12.088 -0.1897  0.1439  0.0081
 2458TIP3    H128789   2.665   4.738  12.063 -1.1921 -0.9136 -0.4409
 2458TIP3    H228790   2.812   4.714  12.087 -0.8587  1.4758  0.0975
 2459TIP3   OH228791   3.738   0.475  16.150 -0.6612  0.1111 -0.0640
 2459TIP3    H128792   3.812   0.427  16.114 -0.7292  1.0052 -1.4463
 2459TIP3    H228793   3.771   0.512  16.232  1.8916  3.9580 -2.5084
 2460TIP3   OH228794   0.469   5.668   0.179 -0.2753  0.3852 -0.5847
 2460TIP3    H128795   0.448   5.590   0.128  1.3400  0.3231 -1.1909
 2460TIP3    H228796   0.489   5.634   0.266  1.5211 -0.0437 -1.1255
 2461TIP3   OH228797   3.845   4.892   0.119 -0.2405  0.6872  0.1258
 2461TIP3    H128798   3.788   4.916   0.047  0.7844  1.1060 -0.5763
 2461TIP3    H228799   3.915   4.840   0.078 -0.2166  0.0122  0.9861
 2462TIP3   OH228800   0.928   4.909  13.246 -0.1173  0.1821  0.3840
 2462TIP3    H128801   0.863   4.848  13.280 -1.6501  1.7612  0.4479
 2462TIP3    H228802   0.897   4.929  13.157  0.8140  0.2520  0.0681
 2463TIP3   OH228803   6.202   5.585  17.068  0.2663 -0.2790  0.1530
 2463TIP3    H128804   6.185   5.675  17.099 -0.6628 -0.5218  0.3746
 2463TIP3    H228805   6.248   5.543  17.141 -0.0328 -0.2235  0.3757
 2464TIP3   OH228806   1.060   5.738  12.238 -0.0801 -0.3619  0.2189
 2464TIP3    H128807   1.082   5.779  12.154  2.1977  0.5590  1.1905
 2464TIP3    H228808   1.129   5.674  12.252 -1.6958 -2.1543  0.3836
 2465TIP3   OH228809   2.794   0.466  13.623  0.2884 -0.1442  0.0634
 2465TIP3    H128810   2.721   0.413  13.590  0.6644 -0.5662 -0.1075
 2465TIP3    H228811   2.862   0.402  13.645  1.9080  0.3467 -2.9417
 2466TIP3   OH228812   2.554   4.819  15.524 -0.0614 -0.2828 -0.0760
 2466TIP3    H128813   2.529   4.851  15.611  0.1104 -1.7773  0.5614
 2466TIP3    H228814   2.596   4.893  15.482 -2.0326  1.1306  0.2962
 2467TIP3   OH228815   3.717   0.558   0.461 -0.2107 -0.0564 -0.0614
 2467TIP3    H128816   3.680   0.491   0.520  0.0141  0.6802  0.9374
 2467TIP3    H228817   3.694   0.527   0.373 -1.0640 -0.8876  0.4296
 2468TIP3   OH228818   1.443   5.551   4.336 -0.2900 -0.2691 -0.1909
 2468TIP3    H128819   1.470   5.643   4.341 -0.5683 -0.1987  0.0605
 2468TIP3    H228820   1.513   5.503   4.379  0.0558 -0.2189 -0.6823
 2469TIP3   OH228821   5.219   6.559  16.055  0.1566 -0.2412 -0.3699
 2469TIP3    H128822   5.234   6.553  16.150  0.0275 -0.9626 -0.3926
 2469TIP3    H228823   5.301   6.593  16.021  0.9176 -1.7908 -0.1980
 2470TIP3   OH228824   4.629   2.526  11.561 -0.0393  0.0800 -0.6251
 2470TIP3    H128825   4.545   2.518  11.515 -0.8013 -0.9179  0.8357
 2470TIP3    H228826   4.609   2.580  11.638  0.3607 -1.1100  0.3441
 2471TIP3   OH228827   4.093   5.335   0.855  0.1017  0.0337  0.3671
 2471TIP3    H128828   4.054   5.249   0.867  0.9535 -0.1787  1.8627
 2471TIP3    H228829   4.034   5.381   0.795 -0.6855 -1.3622  0.0388
 2472TIP3   OH228830   0.345   0.669   4.705 -0.0865  0.0266  0.3209
 2472TIP3    H128831   0.429   0.638   4.672 -1.2073 -2.6364 -0.3614
 2472TIP3    H228832   0.354   0.763   4.713  3.1846 -0.2519  0.9749
 2473TIP3   OH228833   0.871   5.158  14.228 -0.0524  0.1108 -0.3349
 2473TIP3    H128834   0.847   5.231  14.172  0.5848  0.3126 -0.3578
 2473TIP3    H228835   0.814   5.165  14.304 -1.7852 -0.8716 -1.4813
 2474TIP3   OH228836   5.700   3.233  11.426 -0.1173  0.9305  0.4895
 2474TIP3    H128837   5.707   3.263  11.336 -0.9985 -0.9273 -0.2407
 2474TIP3    H228838   5.663   3.308  11.473  0.8608  2.1078 -0.5566
 2475TIP3   OH228839   3.027   1.605  12.823  1.1118  0.4637  0.3262
 2475TIP3    H128840   3.116   1.572  12.816  1.0551  0.3923 -0.0802
 2475TIP3    H228841   3.008   1.642  12.737  0.6823  0.3077  0.3509
 2476TIP3   OH228842   2.377   1.386   1.845 -0.3042  0.7682  0.7057
 2476TIP3    H128843   2.316   1.342   1.785 -0.1850  0.4782  0.7959
 2476TIP3    H228844   2.321   1.442   1.898 -0.7733 -0.9616  2.1363
 2477TIP3   OH228845   0.833   4.761   3.424  0.4495  0.2572  0.3043
 2477TIP3    H128846   0.854   4.749   3.331 -0.2366  0.8632  0.0561
 2477TIP3    H228847   0.759   4.821   3.424  1.2017  1.2326  1.2905
 2478TIP3   OH228848   0.150   5.753   0.637 -0.2223 -0.3513 -0.5101
 2478TIP3    H128849   0.056   5.734   0.640 -0.2584 -0.0673  0.7555
 2478TIP3    H228850   0.192   5.676   0.675 -0.0478  0.0797  0.1948
 2479TIP3   OH228851   6.729   5.759   3.587 -0.4722 -0.1606 -0.8358
 2479TIP3    H128852   6.801   5.742   3.647 -0.3635  2.1078 -0.2062
 2479TIP3    H228853   6.727   5.684   3.529  3.3029  0.2563 -1.7645
 2480TIP3   OH228854   4.280   6.726   5.044 -0.2868 -0.2114 -0.5124
 2480TIP3    H128855   4.191   6.743   5.013 -0.0265 -2.1853 -2.6287
 2480TIP3    H228856   4.271   6.656   5.108 -0.2671 -0.3298 -0.6391
 2481TIP3   OH228857   1.497   2.469   1.158  0.2393 -0.1698 -0.7644
 2481TIP3    H128858   1.492   2.449   1.064  0.6567  0.9666 -1.0435
 2481TIP3    H228859   1.560   2.540   1.164  0.4068 -0.4020  0.4206
 2482TIP3   OH228860   3.704   2.447   5.582  0.1710 -0.7802 -0.4073
 2482TIP3    H128861   3.696   2.365   5.631 -0.8669 -0.2419  0.3764
 2482TIP3    H228862   3.641   2.505   5.624  0.0146  0.0407 -1.7339
 2483TIP3   OH228863   6.697   2.226   0.216 -0.2365  0.7252  0.3939
 2483TIP3    H128864   6.760   2.204   0.285 -0.6065  0.6538  0.7107
 2483TIP3    H228865   6.620   2.172   0.236  0.3389 -0.7489 -1.1743
 2484TIP3   OH228866   5.265   5.618   2.220  0.1513 -0.4416  0.2971
 2484TIP3    H128867   5.319   5.543   2.246 -1.1843 -1.5617 -0.0297
 2484TIP3    H228868   5.196   5.580   2.165  0.7011  1.3274 -1.7441
 2485TIP3   OH228869   3.917   5.840   5.359 -0.2321 -0.0527 -0.5029
 2485TIP3    H128870   3.839   5.855   5.411 -0.8595 -0.9556 -1.1587
 2485TIP3    H228871   3.917   5.910   5.294 -0.4221  0.0177 -0.4262
 2486TIP3   OH228872   1.741   1.827  12.834 -0.1676 -0.1986  0.0046
 2486TIP3    H128873   1.779   1.864  12.914 -2.6637  1.2252  0.6414
 2486TIP3    H228874   1.703   1.903  12.789 -3.0060 -1.5412 -0.0757
 2487TIP3   OH228875   0.520   1.188  13.211  0.0997  0.1407  0.0142
 2487TIP3    H128876   0.604   1.154  13.179 -0.8618 -0.7561 -1.7078
 2487TIP3    H228877   0.531   1.283  13.211  0.3763  0.1891 -2.5881
 2488TIP3   OH228878   2.541   5.404  11.299 -0.2084  0.3169 -0.1020
 2488TIP3    H128879   2.514   5.492  11.326 -1.0089  0.0669 -0.0566
 2488TIP3    H228880   2.459   5.359  11.281  0.2347 -0.1761 -0.9103
 2489TIP3   OH228881   0.069   1.608  14.937 -0.6373 -0.2969  0.0839
 2489TIP3    H128882  -0.004   1.546  14.936 -0.7711 -0.1297 -1.1328
 2489TIP3    H228883   0.147   1.553  14.935 -0.7521 -0.4317 -0.7177
 2490TIP3   OH228884   1.590   3.968  14.050 -0.5007 -0.3594 -0.2705
 2490TIP3    H128885   1.589   3.911  13.973  1.2869  2.0873 -2.2882
 2490TIP3    H228886   1.679   3.960  14.085 -0.2275  1.0397 -0.5606
 2491TIP3   OH228887   3.696   5.856  13.140  0.0197  0.1649  0.2868
 2491TIP3    H128888   3.755   5.908  13.085 -1.3054  1.9543  0.4896
 2491TIP3    H228889   3.720   5.765  13.121  2.1239  0.7986 -0.3998
 2492TIP3   OH228890   0.612   3.619   2.421  0.6900  0.0044 -0.1622
 2492TIP3    H128891   0.663   3.551   2.375  0.5067  0.1245 -0.5409
 2492TIP3    H228892   0.538   3.572   2.458  0.4171  0.0439 -0.6553
 2493TIP3   OH228893   4.784   5.460  15.540  0.5414 -0.0220  0.5384
 2493TIP3    H128894   4.869   5.504  15.528  0.3421 -0.3276 -3.2116
 2493TIP3    H228895   4.721   5.532  15.542  0.6450  0.0829  0.1176
 2494TIP3   OH228896   5.641   1.745   0.422 -0.4860  0.5674 -0.7316
 2494TIP3    H128897   5.679   1.711   0.341 -0.3387  0.2545 -0.5301
 2494TIP3    H228898   5.684   1.696   0.492  0.4931  1.8798 -0.3720
 2495TIP3   OH228899   1.806   4.733  11.771 -0.0952  0.2449  0.1280
 2495TIP3    H128900   1.758   4.764  11.694  1.2746  1.3651 -0.3071
 2495TIP3    H228901   1.888   4.783  11.771 -0.9668  1.9817  3.5990
 2496TIP3   OH228902   0.297   4.821  14.250  0.0505  0.3364 -0.8742
 2496TIP3    H128903   0.390   4.825  14.274 -0.4765  0.2924  1.3544
 2496TIP3    H228904   0.264   4.910  14.267 -0.6526 -0.0648 -0.0899
 2497TIP3   OH228905   1.874   4.636   4.020 -0.1905  0.1842  0.0154
 2497TIP3    H128906   1.933   4.630   4.095 -0.0355  1.5653  0.0258
 2497TIP3    H228907   1.870   4.546   3.986  0.5008 -0.2748  1.0772
 2498TIP3   OH228908   5.009   0.676  12.065  0.3388  0.0317  0.0819
 2498TIP3    H128909   4.975   0.630  11.988  2.0552  0.4245 -0.9778
 2498TIP3    H228910   4.939   0.735  12.092 -1.2901 -1.9514  0.4590
 2499TIP3   OH228911   5.937   4.041   3.335  0.1667  0.6698  0.3195
 2499TIP3    H128912   5.951   4.023   3.428  0.3514  1.8233  0.5387
 2499TIP3    H228913   5.955   3.958   3.291 -0.0729  0.0680  1.3221
 2500TIP3   OH228914   5.272   5.873   5.525 -0.4550 -0.3175  0.2149
 2500TIP3    H128915   5.272   5.904   5.434 -0.4837  0.9020  0.6134
 2500TIP3    H228916   5.364   5.882   5.553 -0.6065  0.1741  0.5742
 2501TIP3   OH228917   6.596   2.814   4.006  0.2293 -0.1973 -0.2525
 2501TIP3    H128918   6.633   2.728   3.987  1.0949 -0.5904  2.6699
 2501TIP3    H228919   6.517   2.819   3.953  0.2801 -2.7065 -0.6670
 2502TIP3   OH228920   4.008   3.309  13.037 -0.5178  1.1122 -0.4854
 2502TIP3    H128921   4.023   3.334  13.128 -1.9381  0.7676 -0.1277
 2502TIP3    H228922   3.932   3.361  13.011 -0.0388  1.3090 -1.5272
 2503TIP3   OH228923   2.919   4.493  13.178  0.0694 -0.6742 -0.0125
 2503TIP3    H128924   2.848   4.457  13.231  0.8099 -1.5745  0.3840
 2503TIP3    H228925   2.890   4.582  13.157 -0.5174 -0.5140  1.3733
 2504TIP3   OH228926   0.723   1.194   0.306 -0.4807  1.0275  0.1184
 2504TIP3    H128927   0.793   1.236   0.256 -1.8460  0.6249 -2.2629
 2504TIP3    H228928   0.687   1.128   0.247 -2.3499  0.6688  1.5531
 2505TIP3   OH228929   3.210   1.972  14.575 -0.3012  0.3121 -0.1887
 2505TIP3    H128930   3.248   2.032  14.510  0.2530  1.9035  1.5344
 2505TIP3    H228931   3.134   2.019  14.609 -0.0625 -0.1050  0.9450
 2506TIP3   OH228932   1.654   4.395  12.265  0.4665  0.0603  0.0690
 2506TIP3    H128933   1.628   4.484  12.239 -1.7612 -1.6001 -4.3097
 2506TIP3    H228934   1.742   4.384  12.229  0.1269  0.0039 -0.7521
 2507TIP3   OH228935   2.402   0.318   4.561 -0.7021  0.1455 -0.1453
 2507TIP3    H128936   2.398   0.402   4.607 -0.0743 -1.1715  2.4711
 2507TIP3    H228937   2.473   0.329   4.498 -0.1857  1.3608  0.6140
 2508TIP3   OH228938   4.742   3.580   6.776  0.1237 -0.0308 -0.5941
 2508TIP3    H128939   4.659   3.557   6.734  0.2027 -0.2069 -0.6554
 2508TIP3    H228940   4.717   3.610   6.863  0.0932 -1.5043 -0.0602
 2509TIP3   OH228941   4.894   2.877   4.652 -0.4741 -0.4894 -0.1035
 2509TIP3    H128942   4.831   2.937   4.691 -1.6080 -1.5833 -0.1675
 2509TIP3    H228943   4.878   2.885   4.557  0.7849  0.5823 -0.2491
 2510TIP3   OH228944   5.042   0.402  11.919  0.5784  0.4382 -0.6693
 2510TIP3    H128945   5.052   0.324  11.865  0.2044  0.3583 -0.6265
 2510TIP3    H228946   4.971   0.452  11.877  0.3306  0.4072 -0.2962
 2511TIP3   OH228947   1.533   3.999   5.299 -0.9108 -0.0560  0.1532
 2511TIP3    H128948   1.508   4.071   5.242 -0.9923 -0.4321 -0.2943
 2511TIP3    H228949   1.620   4.023   5.333 -0.4820 -0.2163 -0.8073
 2512TIP3   OH228950   6.217   3.605  15.744  0.4800 -0.2162  0.3264
 2512TIP3    H128951   6.197   3.614  15.651  2.0047  0.4243  0.0367
 2512TIP3    H228952   6.150   3.545  15.777 -0.4071 -0.0376 -1.0586
 2513TIP3   OH228953   5.577   0.991   3.177 -0.4266 -0.2074  0.3455
 2513TIP3    H128954   5.525   0.951   3.246  0.1661 -1.3505  0.1676
 2513TIP3    H228955   5.580   0.925   3.108  1.5569 -0.3647  0.5113
 2514TIP3   OH228956   1.525   3.064   2.821  0.7446 -0.3411  0.0371
 2514TIP3    H128957   1.611   3.072   2.779  0.3703  0.7450 -0.5715
 2514TIP3    H228958   1.543   3.071   2.915  1.2778  0.4811 -0.1107
 2515TIP3   OH228959   5.803   1.006   3.447  0.4669  0.1015  0.1777
 2515TIP3    H128960   5.759   0.922   3.459 -0.3947  0.4850 -0.1918
 2515TIP3    H228961   5.816   1.040   3.535  0.0674 -0.0389  0.2897
 2516TIP3   OH228962   4.038   1.868  11.510  0.0781 -0.1480 -0.2301
 2516TIP3    H128963   3.976   1.848  11.440 -0.1526  1.5495 -0.5607
 2516TIP3    H228964   4.070   1.956  11.490  1.8006 -0.5636  0.5273
 2517TIP3   OH228965   5.551   6.590  13.127  0.4649 -0.0357  0.1334
 2517TIP3    H128966   5.489   6.624  13.062  0.0482 -0.4811  0.2891
 2517TIP3    H228967   5.635   6.591  13.082 -0.2730 -3.5541 -1.7284
 2518TIP3   OH228968   5.433   0.417   1.496  0.6224 -0.3130  0.2326
 2518TIP3    H128969   5.471   0.356   1.559  1.5044 -0.5547 -0.5137
 2518TIP3    H228970   5.400   0.361   1.425 -2.4992 -0.2450  1.4811
 2519TIP3   OH228971   1.213   6.501  15.270 -0.1869  1.2653 -0.0088
 2519TIP3    H128972   1.187   6.588  15.300 -0.7342  0.7789  0.9326
 2519TIP3    H228973   1.146   6.477  15.206 -1.2251  0.6578  1.2862
 2520TIP3   OH228974   0.620   4.377  11.019 -0.1318  0.7219 -0.2791
 2520TIP3    H128975   0.637   4.454  10.965 -3.3633  0.0650 -2.5391
 2520TIP3    H228976   0.596   4.309  10.956  0.2696 -1.4745  1.7987
 2521TIP3   OH228977   1.744   4.613  14.341 -0.6351 -0.9860 -0.1107
 2521TIP3    H128978   1.731   4.708  14.341 -0.4854 -0.9126 -2.2869
 2521TIP3    H228979   1.825   4.600  14.391  0.7503  0.3284 -1.8622
 2522TIP3   OH228980   3.390   5.759  13.629 -0.4046 -0.1490  0.1075
 2522TIP3    H128981   3.348   5.839  13.599 -0.4301  0.0015  0.5418
 2522TIP3    H228982   3.483   5.771  13.607 -0.3581  0.1337  0.4606
 2523TIP3   OH228983   5.485   1.737   1.942 -0.0368 -0.3408 -0.3979
 2523TIP3    H128984   5.396   1.718   1.913 -0.1035 -0.2939 -0.2263
 2523TIP3    H228985   5.482   1.723   2.037  0.1879 -0.5294 -0.4178
 2524TIP3   OH228986   1.825   4.468   4.347 -0.6200 -0.2370  0.0820
 2524TIP3    H128987   1.899   4.519   4.312 -2.2169  0.4483 -2.5958
 2524TIP3    H228988   1.842   4.378   4.319 -1.0060  0.0084 -0.9932
 2525TIP3   OH228989   2.253   3.182  13.035 -0.5329  0.1720  0.1226
 2525TIP3    H128990   2.159   3.201  13.042 -0.6845 -0.1316 -0.9102
 2525TIP3    H228991   2.293   3.268  13.018 -0.8767  0.0536 -1.4889
 2526TIP3   OH228992   6.728   6.646   1.673 -0.1055  0.0593  0.2183
 2526TIP3    H128993   6.768   6.559   1.670  0.0281  0.1338 -0.1518
 2526TIP3    H228994   6.722   6.673   1.582  2.5168  1.6708  0.4199
 2527TIP3   OH228995   3.507   1.409  15.147 -0.6455  0.3493  0.3726
 2527TIP3    H128996   3.460   1.361  15.215 -1.6489  0.0843 -0.4897
 2527TIP3    H228997   3.439   1.449  15.094  0.1146  0.2862 -0.6846
 2528TIP3   OH228998   0.696   6.665   6.091  0.1561  0.3383  0.3679
 2528TIP3    H128999   0.765   6.654   6.157  0.8031 -0.5687 -0.4408
 2528TIP3    H229000   0.733   6.628   6.011 -1.2238 -0.0444 -0.1193
 2529TIP3   OH229001   3.372   6.701   3.029  0.1058 -0.3416  0.5528
 2529TIP3    H129002   3.429   6.778   3.025 -1.1933  0.6958  1.1938
 2529TIP3    H229003   3.390   6.662   3.114 -1.2649  0.9400  1.4805
 2530TIP3   OH229004   6.138   0.897  11.112 -0.4094 -0.0506 -0.1357
 2530TIP3    H129005   6.226   0.860  11.101 -1.4077 -3.3061  1.5264
 2530TIP3    H229006   6.090   0.869  11.035 -0.0841  1.5886 -0.9636
 2531TIP3   OH229007   5.645   0.457   4.288 -0.0162 -0.1415 -0.0507
 2531TIP3    H129008   5.606   0.463   4.201  1.1372 -0.0907 -0.5745
 2531TIP3    H229009   5.570   0.466   4.348 -1.2663 -2.9680 -1.0057
 2532TIP3   OH229010   5.193   5.263   1.428  0.3174  0.0128 -0.3195
 2532TIP3    H129011   5.169   5.224   1.344 -1.6617 -0.9062  0.5977
 2532TIP3    H229012   5.249   5.198   1.470  0.7658  0.1839 -0.6479
 2533TIP3   OH229013   2.996   3.666   0.645  0.0858  0.6487 -0.4787
 2533TIP3    H129014   2.973   3.633   0.558  0.4798 -0.0428 -0.3281
 2533TIP3    H229015   2.941   3.743   0.657 -1.8361 -0.6696 -0.3300
 2534TIP3   OH229016   2.533   6.535  16.249  0.0886 -0.1530  0.4906
 2534TIP3    H129017   2.524   6.623  16.286 -1.2167  1.0113 -2.2767
 2534TIP3    H229018   2.451   6.520  16.203  0.4524 -2.6949  0.5306
 2535TIP3   OH229019   2.514   4.195   1.427 -0.2475 -0.5529  0.5107
 2535TIP3    H129020   2.533   4.106   1.396 -2.4175 -0.5262 -1.1854
 2535TIP3    H229021   2.427   4.188   1.466  0.2693  0.5263  1.9163
 2536TIP3   OH229022   5.260   6.068   4.314  0.4073 -0.5415  0.1556
 2536TIP3    H129023   5.345   6.111   4.302  0.6163 -1.0627 -0.3124
 2536TIP3    H229024   5.277   5.976   4.293 -0.4434 -0.5199 -0.7084
 2537TIP3   OH229025   3.381   5.764   2.419 -0.3569 -0.1510 -0.1682
 2537TIP3    H129026   3.321   5.830   2.455 -0.2150  0.4533 -1.0010
 2537TIP3    H229027   3.424   5.809   2.346  0.8882 -0.6781  0.2246
 2538TIP3   OH229028   1.741   1.228  17.132 -0.0693 -0.0545 -0.3146
 2538TIP3    H129029   1.778   1.316  17.131  0.2786 -0.1346  1.4867
 2538TIP3    H229030   1.656   1.236  17.089  0.9232  0.6566 -2.2597
 2539TIP3   OH229031   0.356   6.110   4.145  0.4812  0.1328 -0.2425
 2539TIP3    H129032   0.294   6.146   4.082 -2.6402 -0.9510  1.9811
 2539TIP3    H229033   0.388   6.186   4.193 -1.4029  0.5475  0.4467
 2540TIP3   OH229034   4.099   3.394   2.296  1.1244  0.4197  0.1944
 2540TIP3    H129035   4.014   3.400   2.341  1.1495 -1.6663  0.6532
 2540TIP3    H229036   4.155   3.347   2.357  1.6939 -0.9068 -1.2631
 2541TIP3   OH229037   3.225   3.392   1.540 -0.2421  0.0237  0.0955
 2541TIP3    H129038   3.267   3.476   1.558  0.7996 -0.3415 -0.5429
 2541TIP3    H229039   3.195   3.361   1.626 -0.1594  0.7983  0.4060
 2542TIP3   OH229040   6.332   4.179   0.820 -0.4640 -0.0550 -0.3294
 2542TIP3    H129041   6.291   4.138   0.744 -0.5164  0.4623 -0.5843
 2542TIP3    H229042   6.424   4.189   0.794 -0.2704 -0.7443  0.0457
 2543TIP3   OH229043   1.251   5.384   3.395  0.1620 -0.2315 -0.0000
 2543TIP3    H129044   1.346   5.374   3.387  0.7918  3.2944  1.2579
 2543TIP3    H229045   1.234   5.374   3.489 -0.6044 -0.0487 -0.1163
 2544TIP3   OH229046   5.221   0.688   0.372 -0.0492  0.4927 -0.1719
 2544TIP3    H129047   5.186   0.721   0.455 -0.8378  1.1595 -0.7503
 2544TIP3    H229048   5.277   0.759   0.340 -0.0571  0.4023 -0.3908
 2545TIP3   OH229049   3.215   6.228  13.836 -0.3911 -0.0210  0.2162
 2545TIP3    H129050   3.300   6.186  13.833  0.1079  1.0023 -0.8513
 2545TIP3    H229051   3.202   6.249  13.929 -0.0297 -1.2397  0.5511
 2546TIP3   OH229052   3.743   5.215   4.929 -0.7548 -0.1526  0.0653
 2546TIP3    H129053   3.751   5.301   4.972  0.0205  0.3977 -1.1170
 2546TIP3    H229054   3.700   5.234   4.846 -1.3827 -1.0554  0.1851
 2547TIP3   OH229055   2.200   2.569   5.508  0.4785  0.7133  0.0492
 2547TIP3    H129056   2.109   2.541   5.514  0.6390  0.3483  1.0013
 2547TIP3    H229057   2.225   2.552   5.417 -0.3524  0.6575 -0.1693
 2548TIP3   OH229058   2.420   4.428  17.176  0.1471 -0.1263  0.1486
 2548TIP3    H129059   2.393   4.336  17.172  1.1611 -0.4227 -0.2034
 2548TIP3    H229060   2.481   4.433  17.249  2.0560 -0.3025 -1.3515
 2549TIP3   OH229061   2.707   1.207   4.398 -0.1550  0.0276  0.4920
 2549TIP3    H129062   2.759   1.269   4.448  0.8530 -0.2378 -0.1919
 2549TIP3    H229063   2.749   1.122   4.414  1.6780  0.1925 -2.5189
 2550TIP3   OH229064   0.769   5.335  17.288  0.2778  0.1199  0.5597
 2550TIP3    H129065   0.863   5.322  17.280  0.1066 -0.5747 -0.4434
 2550TIP3    H229066   0.753   5.337  17.383  1.1637 -0.8187  0.7441
 2551TIP3   OH229067   4.028   4.687   6.173 -0.0958 -0.2766 -0.4879
 2551TIP3    H129068   4.110   4.715   6.133 -0.4265  2.9290  0.7849
 2551TIP3    H229069   4.043   4.693   6.267 -2.1259  2.0426 -0.1874
 2552TIP3   OH229070   6.718   2.781  13.296  1.0566 -0.3060  0.1790
 2552TIP3    H129071   6.795   2.736  13.263  0.0717 -2.6639  0.8937
 2552TIP3    H229072   6.654   2.712  13.311 -0.4216  1.2895  1.7456
 2553TIP3   OH229073   6.459   0.686   1.977 -0.0249 -0.7930  0.8943
 2553TIP3    H129074   6.477   0.764   2.030 -1.1636 -1.2317  1.9741
 2553TIP3    H229075   6.542   0.666   1.935  0.5054  0.5119  1.2634
 2554TIP3   OH229076   0.757   6.388  15.476 -0.1624 -0.2021  0.4724
 2554TIP3    H129077   0.695   6.381  15.403  0.5634  0.7219 -0.2578
 2554TIP3    H229078   0.801   6.303  15.479 -0.4268 -0.3581  0.0408
 2555TIP3   OH229079   5.447   3.461   2.770  1.0127  0.0072 -0.2697
 2555TIP3    H129080   5.365   3.415   2.782  0.4967  1.0248  0.2223
 2555TIP3    H229081   5.440   3.500   2.682  1.2656 -0.4740 -0.5073
 2556TIP3   OH229082   2.671   1.549  12.394 -0.2636 -0.3087  0.1971
 2556TIP3    H129083   2.677   1.560  12.488 -2.0266 -0.6410  0.3774
 2556TIP3    H229084   2.696   1.634  12.358 -1.9964  0.6307  1.0862
 2557TIP3   OH229085   6.328   4.626   6.498  0.3976 -0.5874 -0.2863
 2557TIP3    H129086   6.338   4.693   6.565  0.9984  0.1558 -1.0853
 2557TIP3    H229087   6.295   4.674   6.422  0.7666 -1.2067 -0.8459
 2558TIP3   OH229088   4.460   3.932  11.014  0.7248 -0.0881 -0.2111
 2558TIP3    H129089   4.415   3.855  10.978  0.4725  0.3807 -0.9231
 2558TIP3    H229090   4.391   3.998  11.022  1.2526  0.6260 -1.2756
 2559TIP3   OH229091   2.488   3.777   4.632 -0.2756 -0.0216 -0.3237
 2559TIP3    H129092   2.522   3.693   4.661  0.0822  0.6228  1.2011
 2559TIP3    H229093   2.500   3.835   4.707  0.3062  1.6229 -1.6333
 2560TIP3   OH229094   3.587   3.566   6.719 -0.4385 -0.0985  0.3367
 2560TIP3    H129095   3.653   3.603   6.777 -0.8527 -0.1183  0.8283
 2560TIP3    H229096   3.608   3.473   6.714 -1.0402 -0.3016  1.3394
 2561TIP3   OH229097   4.689   2.677  16.808 -0.5731  0.0700 -0.0497
 2561TIP3    H129098   4.775   2.633  16.807 -0.2023  0.7855 -0.4995
 2561TIP3    H229099   4.642   2.635  16.880  0.1789 -0.2912  0.2457
 2562TIP3   OH229100   0.893   3.134  15.501 -0.1948 -0.8662  0.0269
 2562TIP3    H129101   0.861   3.079  15.572 -0.5279 -0.2531  0.3682
 2562TIP3    H229102   0.822   3.132  15.436 -1.1262  0.7365  0.9157
 2563TIP3   OH229103   4.919   2.128  13.886 -0.0783 -0.4894  0.7291
 2563TIP3    H129104   4.940   2.050  13.834  0.5944 -0.4269  0.9039
 2563TIP3    H229105   4.827   2.144  13.867  0.0380 -0.7346 -0.1042
 2564TIP3   OH229106   5.718   5.220   3.379 -0.3196  0.0436  0.0553
 2564TIP3    H129107   5.784   5.211   3.447 -0.1912 -2.5953 -0.3381
 2564TIP3    H229108   5.637   5.240   3.427  0.3944  1.7204  0.6457
 2565TIP3   OH229109   3.139   0.479  16.107 -0.0114 -0.3168 -0.3093
 2565TIP3    H129110   3.205   0.533  16.064  0.3485  0.7998  1.5523
 2565TIP3    H229111   3.183   0.396  16.124  0.2299 -0.3260 -0.9590
 2566TIP3   OH229112   3.522   0.283  13.033 -0.7688 -0.1805 -0.2831
 2566TIP3    H129113   3.525   0.191  13.060  1.4450  0.5683  2.4517
 2566TIP3    H229114   3.570   0.284  12.950  0.1147 -1.3530  0.1799
 2567TIP3   OH229115   1.439   3.783   0.291 -0.0829  0.2516 -0.3786
 2567TIP3    H129116   1.502   3.828   0.235 -0.2326  1.0177  0.0630
 2567TIP3    H229117   1.371   3.752   0.231  0.4404 -0.1331 -0.7897
 2568TIP3   OH229118   0.382   0.208  11.253 -0.1394  0.2517  0.1184
 2568TIP3    H129119   0.463   0.255  11.275  0.0682 -0.3714  0.7120
 2568TIP3    H229120   0.363   0.155  11.331 -0.2227 -0.8544 -0.6403
 2569TIP3   OH229121   1.678   0.675  14.901 -0.3797 -0.0559 -0.4014
 2569TIP3    H129122   1.701   0.687  14.809 -0.5895  1.8306 -0.2526
 2569TIP3    H229123   1.627   0.753  14.923  1.7798  0.8582  1.9586
 2570TIP3   OH229124   5.331   6.251  13.990 -0.0231 -0.0391  0.3105
 2570TIP3    H129125   5.247   6.209  14.008 -0.8228  1.1754 -0.4341
 2570TIP3    H229126   5.388   6.225  14.063 -1.2104 -0.4220  1.1191
 2571TIP3   OH229127   2.899   6.507   6.364 -0.4547  0.4202 -0.0168
 2571TIP3    H129128   2.959   6.549   6.303 -1.6691  1.6184 -0.4129
 2571TIP3    H229129   2.925   6.541   6.450  1.0232 -1.0020  0.1765
 2572TIP3   OH229130   3.589   6.650  15.248 -0.0032 -0.1785  0.2195
 2572TIP3    H129131   3.615   6.694  15.329  1.6833 -0.7423  0.0340
 2572TIP3    H229132   3.517   6.592  15.273 -0.3380  0.5752  1.0425
 2573TIP3   OH229133   4.103   3.196   3.312 -0.0499  0.2068 -0.0121
 2573TIP3    H129134   4.095   3.107   3.347  0.1284  0.7331  1.4478
 2573TIP3    H229135   4.152   3.186   3.230  0.1192 -1.0133  0.2208
 2574TIP3   OH229136   6.750   0.087  11.643 -0.0037 -0.3539 -0.5150
 2574TIP3    H129137   6.711   0.003  11.667  0.4456 -0.0317  1.5599
 2574TIP3    H229138   6.680   0.151  11.658  0.5595 -0.0393  1.0530
 2575TIP3   OH229139   0.038   1.782   3.331 -0.1751  0.5430  0.2742
 2575TIP3    H129140  -0.013   1.701   3.336 -0.4583  0.7437  0.7431
 2575TIP3    H229141   0.129   1.754   3.344 -0.2001  0.2190 -0.2641
 2576TIP3   OH229142   1.450   5.223   1.672  0.3907 -0.1458 -0.1828
 2576TIP3    H129143   1.534   5.232   1.628 -0.6065  0.6282 -2.0140
 2576TIP3    H229144   1.423   5.133   1.655  0.6113 -0.2465 -0.0064
 2577TIP3   OH229145   4.755   5.463  14.020  0.1913  0.4084 -0.7459
 2577TIP3    H129146   4.680   5.521  14.010 -0.2043 -0.1602 -1.0700
 2577TIP3    H229147   4.736   5.412  14.099 -0.2164 -0.4150 -1.3745
 2578TIP3   OH229148   0.361   2.905  14.969  0.2330  0.0039 -0.1129
 2578TIP3    H129149   0.326   2.817  14.951  0.2594 -0.3281  1.3153
 2578TIP3    H229150   0.286   2.964  14.955 -0.7096 -0.6014  2.0093
 2579TIP3   OH229151   0.949   6.435  16.631 -0.0850 -0.4411  0.6197
 2579TIP3    H129152   1.044   6.430  16.636 -0.0731 -0.8527  0.0975
 2579TIP3    H229153   0.920   6.446  16.721  0.5966  2.1548  0.6030
 2580TIP3   OH229154   2.633   2.358  12.335  0.3296  0.5449 -0.0106
 2580TIP3    H129155   2.634   2.386  12.427 -3.6526 -0.4969  0.5260
 2580TIP3    H229156   2.648   2.263  12.339  0.2638  0.5153 -0.4646
 2581TIP3   OH229157   5.040   4.751  14.561 -0.0445 -0.5962 -0.1763
 2581TIP3    H129158   5.000   4.789  14.639  2.1643  1.9898 -0.1301
 2581TIP3    H229159   5.016   4.811  14.490  1.5110 -0.4277 -0.6111
 2582TIP3   OH229160   0.267   2.981  12.553  0.9713  0.1671 -0.2388
 2582TIP3    H129161   0.287   2.915  12.487 -0.4025 -0.0015 -0.5079
 2582TIP3    H229162   0.328   2.963  12.624  0.1336 -1.9096  0.0388
 2583TIP3   OH229163   3.399   4.459  11.668  0.5558 -0.7894  0.0141
 2583TIP3    H129164   3.312   4.494  11.686  0.1381 -0.6648 -2.0167
 2583TIP3    H229165   3.454   4.537  11.658  0.7495 -0.8538  0.5343
 2584TIP3   OH229166   4.943   6.595   1.926  0.1309 -0.1729 -0.7591
 2584TIP3    H129167   4.992   6.544   1.991  0.5984  1.4311  0.2012
 2584TIP3    H229168   4.938   6.537   1.850  3.9532 -0.3406 -1.0968
 2585TIP3   OH229169   4.778   6.730  17.278  0.9494  0.3055  0.2003
 2585TIP3    H129170   4.730   6.653  17.247  0.5187 -0.1030  1.7990
 2585TIP3    H229171   4.866   6.697  17.297  0.8589  0.2770  0.5729
 2586TIP3   OH229172   4.164   6.303  14.583 -0.6379 -0.1203  0.1934
 2586TIP3    H129173   4.114   6.381  14.560 -2.1797 -1.4904 -1.3618
 2586TIP3    H229174   4.213   6.328  14.661  0.0533  2.8422 -1.0546
 2587TIP3   OH229175   3.318   3.687  16.075 -0.1712 -0.1868 -0.2278
 2587TIP3    H129176   3.392   3.626  16.074  0.6022  0.7257 -1.1212
 2587TIP3    H229177   3.295   3.694  16.168  0.5635 -0.8586  0.0175
 2588TIP3   OH229178   2.640   1.794   1.851 -0.5553 -0.1701  0.0845
 2588TIP3    H129179   2.555   1.769   1.815  0.5226 -1.3787 -1.7967
 2588TIP3    H229180   2.701   1.729   1.816  0.9786 -0.0939  2.3888
 2589TIP3   OH229181   0.516   2.809  17.174  0.5826  0.3227 -0.6769
 2589TIP3    H129182   0.582   2.787  17.240 -0.9102 -0.6869  0.5557
 2589TIP3    H229183   0.566   2.843  17.100  2.4620 -0.2870  0.2531
 2590TIP3   OH229184   2.256   1.851   2.719  0.4709 -0.6716 -0.7384
 2590TIP3    H129185   2.212   1.915   2.663 -1.3732 -0.6653  0.6514
 2590TIP3    H229186   2.340   1.893   2.741  0.0162  0.5271 -1.2101
 2591TIP3   OH229187   4.666   4.570  14.511 -0.0069 -0.5255 -0.2914
 2591TIP3    H129188   4.693   4.632  14.579 -1.5796 -0.3127  0.1977
 2591TIP3    H229189   4.720   4.591  14.436 -1.2641  2.3121 -0.5473
 2592TIP3   OH229190   6.227   5.406  11.532  0.5253 -0.0435 -0.3205
 2592TIP3    H129191   6.234   5.328  11.587  0.5416  0.4151  0.3443
 2592TIP3    H229192   6.317   5.423  11.505  0.5919  0.0127 -0.0731
 2593TIP3   OH229193   1.713   2.663   1.157  0.1531 -0.0756  0.0536
 2593TIP3    H129194   1.654   2.704   1.094 -0.7583  1.1680  1.6107
 2593TIP3    H229195   1.791   2.719   1.158 -0.0780  0.2486  0.4241
 2594TIP3   OH229196   0.490   2.956   4.013  0.3847  0.0050 -0.6040
 2594TIP3    H129197   0.543   2.925   3.940 -0.3678 -0.7236 -0.8415
 2594TIP3    H229198   0.549   3.014   4.062  1.6321 -1.3103 -0.4891
 2595TIP3   OH229199   3.477   3.747  14.754  0.4818 -0.2837 -0.0637
 2595TIP3    H129200   3.548   3.808  14.740  0.7066 -0.5719 -0.1873
 2595TIP3    H229201   3.472   3.696  14.673 -0.3228  0.2012 -0.3335
 2596TIP3   OH229202   0.325   0.480   2.022  0.4190 -0.2591 -0.1422
 2596TIP3    H129203   0.269   0.558   2.020  3.0109  1.7377 -0.6682
 2596TIP3    H229204   0.290   0.423   1.955 -2.9831 -0.7109  1.7941
 2597TIP3   OH229205   4.182   1.956  16.027  0.1420 -0.1564 -0.1056
 2597TIP3    H129206   4.245   2.022  16.058  1.5552 -1.1869 -0.6772
 2597TIP3    H229207   4.118   2.006  15.976 -0.1497  1.0678  1.3760
 2598TIP3   OH229208   4.312   0.404  16.820 -0.0047  0.0273  0.2291
 2598TIP3    H129209   4.370   0.395  16.897 -0.7441 -0.2751  0.7621
 2598TIP3    H229210   4.310   0.316  16.782 -1.4621 -0.4104  1.2222
 2599TIP3   OH229211   5.444   1.164  15.150 -0.0631  0.0068  0.6242
 2599TIP3    H129212   5.506   1.103  15.192 -2.1269 -0.8850  2.5458
 2599TIP3    H229213   5.363   1.154  15.199 -1.2916  2.3801 -0.7456
 2600TIP3   OH229214   0.051   6.554   1.032  0.1013 -0.1431 -0.8136
 2600TIP3    H129215  -0.033   6.508   1.027  0.3130 -0.9662  1.6848
 2600TIP3    H229216   0.030   6.646   1.014 -0.9511 -0.6393 -2.2622
 2601TIP3   OH229217   1.528   4.072  12.801  0.1353  0.3600  0.5509
 2601TIP3    H129218   1.563   4.063  12.889 -0.7082  0.8816  0.9524
 2601TIP3    H229219   1.433   4.076  12.813  0.0967  2.8293 -0.1473
 2602TIP3   OH229220   2.589   0.099  14.885 -0.1273 -0.3621 -0.1952
 2602TIP3    H129221   2.683   0.103  14.903 -0.4231 -0.5427  1.5857
 2602TIP3    H229222   2.552   0.174  14.931 -1.3539 -2.7169  3.1109
 2603TIP3   OH229223   2.096   4.244  11.204 -0.3248  0.3427  0.4965
 2603TIP3    H129224   2.116   4.155  11.177 -1.6845 -0.3381  1.5792
 2603TIP3    H229225   2.012   4.264  11.162 -1.3450  0.0943  2.3134
 2604TIP3   OH229226   1.497   3.677  14.077 -0.1068  0.2086 -0.6285
 2604TIP3    H129227   1.508   3.688  13.983 -0.4307  0.4464 -0.6411
 2604TIP3    H229228   1.437   3.747  14.102 -0.3010 -0.0700 -0.3043
 2605TIP3   OH229229   6.300   1.029   3.838  0.3440  0.3237  0.5957
 2605TIP3    H129230   6.381   0.984   3.861  0.7476 -0.2404 -1.7004
 2605TIP3    H229231   6.233   0.961   3.842  0.4248  0.2111  0.0859
 2606TIP3   OH229232   1.531   0.228  12.206  0.1693  0.3114  0.0508
 2606TIP3    H129233   1.507   0.228  12.298 -1.2145 -2.5661 -0.1805
 2606TIP3    H229234   1.485   0.152  12.170  1.7444  0.5531 -2.7293
 2607TIP3   OH229235   2.051   1.927  13.531 -0.3106 -0.4499  0.3850
 2607TIP3    H129236   2.053   1.892  13.442 -0.7043  0.3735  0.0352
 2607TIP3    H229237   2.137   1.908  13.567 -0.2749 -1.1157 -0.0457
 2608TIP3   OH229238   6.271   1.231   1.897  0.1747 -0.3609  0.2332
 2608TIP3    H129239   6.231   1.157   1.942  1.2629 -1.0857  0.0278
 2608TIP3    H229240   6.344   1.257   1.954  0.9974 -0.7020 -0.6580
 2609TIP3   OH229241   1.026   4.885  15.384 -0.3587 -0.0500  0.4577
 2609TIP3    H129242   0.993   4.835  15.459  0.4367  0.3884  1.1257
 2609TIP3    H229243   1.110   4.844  15.363  0.7169  1.4552  1.5531
 2610TIP3   OH229244   5.599   2.753  11.522  0.3444 -0.3016  0.3823
 2610TIP3    H129245   5.656   2.680  11.501 -0.0051 -0.5236  0.1922
 2610TIP3    H229246   5.563   2.732  11.608  0.2295 -0.3647  0.3194
 2611TIP3   OH229247   4.449   0.407   1.911  0.0711 -0.1187 -0.2114
 2611TIP3    H129248   4.490   0.337   1.860 -1.6900 -0.3180 -1.4501
 2611TIP3    H229249   4.369   0.429   1.862 -1.7328 -0.3037  2.4344
 2612TIP3   OH229250   1.845   5.655   2.871  0.0443 -0.5794  0.3563
 2612TIP3    H129251   1.931   5.624   2.843 -0.4668 -1.0277 -0.7510
 2612TIP3    H229252   1.812   5.706   2.797 -0.8760 -0.8769  0.5469
 2613TIP3   OH229253   3.972   3.419   3.257  0.3991  0.0663 -0.1425
 2613TIP3    H129254   3.924   3.400   3.177  0.9149  1.8624 -0.9170
 2613TIP3    H229255   4.026   3.341   3.272  0.9578  0.0569 -2.0355
 2614TIP3   OH229256   5.345   1.085   1.342 -0.3976 -0.6183 -0.2282
 2614TIP3    H129257   5.303   1.031   1.274  0.0145 -0.3547 -0.6986
 2614TIP3    H229258   5.275   1.143   1.373 -0.3337 -0.0173 -1.1770
 2615TIP3   OH229259   0.630   0.349   4.162  0.1877  0.5158 -0.1228
 2615TIP3    H129260   0.571   0.411   4.205  0.3509  1.2185 -0.8837
 2615TIP3    H229261   0.716   0.389   4.169  0.3810  0.1084 -0.1403
 2616TIP3   OH229262   6.566   1.075  11.340  0.2698  0.1302  0.5726
 2616TIP3    H129263   6.646   1.124  11.359 -0.7638  1.7917  0.8432
 2616TIP3    H229264   6.596   0.986  11.319  2.3878  1.2889 -1.7388
 2617TIP3   OH229265   1.454   3.827  11.401  0.1519  0.4325  0.4989
 2617TIP3    H129266   1.494   3.885  11.465 -1.1183  1.0807  0.7461
 2617TIP3    H229267   1.469   3.871  11.317 -1.9118  1.8665  0.7975
 2618TIP3   OH229268   5.803   0.933  13.055 -0.4972 -0.5757  0.0077
 2618TIP3    H129269   5.804   1.013  13.108  1.6728 -0.7328  0.2712
 2618TIP3    H229270   5.825   0.863  13.116  3.6359 -0.5802 -1.2018
 2619TIP3   OH229271   2.331   3.968  15.376  0.8163 -0.5499 -0.7689
 2619TIP3    H129272   2.270   4.019  15.429 -1.2334 -2.7928 -0.8040
 2619TIP3    H229273   2.343   4.020  15.296 -0.8205  0.0918 -0.6315
 2620TIP3   OH229274   0.061   0.229   0.261  0.2337 -0.3626 -0.1175
 2620TIP3    H129275   0.000   0.189   0.324  0.7491 -0.5975  0.2401
 2620TIP3    H229276   0.014   0.306   0.229  0.2595  0.2138  1.1525
 2621TIP3   OH229277   0.214   6.481   5.569 -0.3691 -0.1554 -0.4536
 2621TIP3    H129278   0.261   6.508   5.648 -0.8173 -1.0633  0.1280
 2621TIP3    H229279   0.271   6.416   5.528 -0.1127  0.3524 -0.9119
 2622TIP3   OH229280   4.627   3.171  12.321 -0.2641 -0.2752  0.0407
 2622TIP3    H129281   4.570   3.094  12.318 -0.4402 -0.1279 -3.2982
 2622TIP3    H229282   4.715   3.136  12.337 -0.7013 -0.8216  1.4924
 2623TIP3   OH229283   1.852   6.390   0.367  0.3173 -0.2948  0.3023
 2623TIP3    H129284   1.863   6.337   0.447  1.0961  1.5221  1.4509
 2623TIP3    H229285   1.758   6.404   0.361  0.2406 -0.5197  0.8590
 2624TIP3   OH229286   4.335   2.707  11.875 -0.3476  0.3542  0.2807
 2624TIP3    H129287   4.423   2.746  11.875  0.0047 -0.4125 -0.4421
 2624TIP3    H229288   4.304   2.717  11.785 -1.3305  1.3099  0.7059
 2625TIP3   OH229289   4.471   4.411  11.350 -0.7414  0.1057 -0.5570
 2625TIP3    H129290   4.518   4.493  11.365 -0.1687 -0.3309  0.1152
 2625TIP3    H229291   4.415   4.401  11.427 -0.1430 -0.5728 -0.1951
 2626TIP3   OH229292   4.551   1.813   3.851 -0.5359  0.0291  0.4364
 2626TIP3    H129293   4.466   1.787   3.814  0.0887 -1.2135 -0.1657
 2626TIP3    H229294   4.615   1.761   3.803  0.6942  1.7858  0.0544
 2627TIP3   OH229295   0.564   0.705  15.407  0.5494  0.0316  0.1014
 2627TIP3    H129296   0.516   0.786  15.422 -1.6235 -1.0171 -0.7105
 2627TIP3    H229297   0.637   0.729  15.350  0.6016  1.5748  0.7858
 2628TIP3   OH229298   3.651   1.495  16.520 -0.6984  0.0386  0.1667
 2628TIP3    H129299   3.620   1.428  16.581 -2.5859 -1.0985 -1.9271
 2628TIP3    H229300   3.587   1.566  16.529  0.0459  0.6586  0.7591
 2629TIP3   OH229301   4.525   1.185  13.323 -0.5571 -0.2507 -0.3348
 2629TIP3    H129302   4.468   1.111  13.343 -1.0623  0.3811  0.6412
 2629TIP3    H229303   4.576   1.157  13.247 -1.0745 -1.4119 -0.2635
 2630TIP3   OH229304   4.146   0.800   1.411  0.5287  0.2158  0.5370
 2630TIP3    H129305   4.146   0.829   1.320 -1.6429  0.3484  0.5410
 2630TIP3    H229306   4.151   0.704   1.405  1.6016  0.2745  0.3358
 2631TIP3   OH229307   6.484   4.387  13.135  0.1457 -0.0709 -0.4196
 2631TIP3    H129308   6.430   4.427  13.204  1.1529  1.3727 -0.4223
 2631TIP3    H229309   6.420   4.350  13.073 -0.8454  1.0854 -0.1303
 2632TIP3   OH229310   3.613   5.604   6.281  0.3466 -0.1214  0.0557
 2632TIP3    H129311   3.657   5.682   6.315  1.4805 -0.2320 -1.0720
 2632TIP3    H229312   3.554   5.577   6.351  0.6556  1.1772  0.8493
 2633TIP3   OH229313   2.167   0.212   3.835 -0.4386  0.0311  0.3587
 2633TIP3    H129314   2.221   0.286   3.863 -1.3284  1.3036 -1.1119
 2633TIP3    H229315   2.132   0.175   3.915 -1.1837  2.1588  1.0673
 2634TIP3   OH229316   2.878   1.190   1.903  0.2262  0.2016 -0.2201
 2634TIP3    H129317   2.936   1.264   1.884 -0.1385  0.3336 -0.8576
 2634TIP3    H229318   2.793   1.215   1.865 -0.1109 -0.2035  0.2556
 2635TIP3   OH229319   0.332   4.905   1.055 -0.0602  0.1768 -0.4202
 2635TIP3    H129320   0.325   4.871   0.966  1.0282  0.5704 -0.6716
 2635TIP3    H229321   0.336   4.827   1.110 -0.7107 -0.0707 -0.7188
 2636TIP3   OH229322   1.051   3.715   2.960 -0.0400  0.2922  0.0356
 2636TIP3    H129323   1.105   3.636   2.972 -0.2720  0.5013  3.5413
 2636TIP3    H229324   0.969   3.682   2.923  0.3527 -0.9233  0.1802
 2637TIP3   OH229325   6.067   4.274  15.436 -0.7422 -0.4499  0.0527
 2637TIP3    H129326   6.012   4.304  15.363 -0.2874  0.9213  0.2442
 2637TIP3    H229327   6.049   4.336  15.506  3.6222  2.4117 -0.9760
 2638TIP3   OH229328   3.869   3.970   3.577  0.2233 -0.9090  0.1512
 2638TIP3    H129329   3.829   4.029   3.514 -0.7555 -1.2278  0.4639
 2638TIP3    H229330   3.900   4.027   3.647 -1.2212 -0.8067  0.7214
 2639TIP3   OH229331   6.251   1.854   5.440  0.4537 -0.1270 -0.2446
 2639TIP3    H129332   6.156   1.865   5.443  0.1131 -1.8897 -2.1801
 2639TIP3    H229333   6.270   1.790   5.509  0.3573  0.7812  0.6388
 2640TIP3   OH229334   3.753   0.061   4.741  0.0639  0.1476 -0.8183
 2640TIP3    H129335   3.754  -0.033   4.722  0.6451 -0.0822  0.2722
 2640TIP3    H229336   3.666   0.090   4.711 -0.6205 -0.9896 -0.0338
 2641TIP3   OH229337   5.148   6.691   4.087  0.0449  0.0081 -0.2098
 2641TIP3    H129338   5.090   6.656   4.019 -1.0819  2.3035 -0.5311
 2641TIP3    H229339   5.195   6.614   4.120 -1.3661 -1.5820 -1.6685
 2642TIP3   OH229340   4.273   5.135   0.986  0.3987 -0.3954 -1.1498
 2642TIP3    H129341   4.187   5.163   1.019 -0.1894 -2.1080 -1.1506
 2642TIP3    H229342   4.252   5.073   0.916  1.6553  0.1213 -2.0159
 2643TIP3   OH229343   3.467   6.761  11.750  0.3453  0.0822 -0.5314
 2643TIP3    H129344   3.437   6.745  11.839 -0.4352  1.2625 -0.5529
 2643TIP3    H229345   3.430   6.689  11.699 -0.1325  0.0009 -0.0775
 2644TIP3   OH229346   0.480   5.064  14.324  0.1875 -0.2796 -0.5189
 2644TIP3    H129347   0.499   5.134  14.262 -3.2301  0.3228 -1.0754
 2644TIP3    H229348   0.389   5.078  14.350 -0.0476 -3.3913  0.8470
 2645TIP3   OH229349   3.508   3.545   3.192  0.1451  0.0329  0.6013
 2645TIP3    H129350   3.449   3.472   3.210 -0.2456  0.2809  0.3277
 2645TIP3    H229351   3.523   3.585   3.277 -0.0659 -0.0447  0.6756
 2646TIP3   OH229352   3.675   3.636  12.288  0.5017  0.3369  0.1790
 2646TIP3    H129353   3.692   3.730  12.279 -1.7524  0.9440  1.5036
 2646TIP3    H229354   3.608   3.618  12.221  1.4975 -0.5371 -0.6115
 2647TIP3   OH229355   2.422   0.551  17.308 -0.4803 -0.0579 -0.0954
 2647TIP3    H129356   2.433   0.646  17.306  2.4381 -0.3004 -0.8320
 2647TIP3    H229357   2.485   0.520  17.373 -0.7704 -1.5245 -0.4613
 2648TIP3   OH229358   3.882   3.569   2.611 -0.1693  0.1876 -0.0054
 2648TIP3    H129359   3.937   3.648   2.614 -0.1480  0.1696  0.1127
 2648TIP3    H229360   3.859   3.559   2.519  1.2374 -0.6398 -0.2912
 2649TIP3   OH229361   5.508   3.195   1.360 -0.3358  0.1138  0.1431
 2649TIP3    H129362   5.512   3.115   1.308  0.6374 -0.8591  1.6415
 2649TIP3    H229363   5.419   3.198   1.394  0.0551 -1.2592  1.4011
 2650TIP3   OH229364   4.347   0.534   6.015 -0.4240 -0.4431 -0.2926
 2650TIP3    H129365   4.400   0.515   6.092  1.7768  3.4322 -0.5937
 2650TIP3    H229366   4.263   0.492   6.033  0.5302 -1.1571  3.4117
 2651TIP3   OH229367   6.657   2.414   3.244  0.1548  0.3880  0.8951
 2651TIP3    H129368   6.563   2.419   3.226  0.0953  1.5933  1.4247
 2651TIP3    H229369   6.663   2.424   3.339  0.6144 -3.3512  1.4212
 2652TIP3   OH229370   5.296   2.325   2.959 -0.4229 -0.2518  0.4747
 2652TIP3    H129371   5.277   2.329   2.865  1.6457  1.1474  0.0583
 2652TIP3    H229372   5.255   2.403   2.995  1.0666  0.6804  0.2293
 2653TIP3   OH229373   0.755   0.186   0.022  0.0265 -0.1984  0.1270
 2653TIP3    H129374   0.670   0.199   0.063  0.7786  1.0327  1.3817
 2653TIP3    H229375   0.741   0.206  -0.071 -1.1313 -0.4726  0.2292
 2654TIP3   OH229376   3.695   1.494  12.254  0.4760  0.1022  0.1757
 2654TIP3    H129377   3.726   1.442  12.329  1.5348 -0.4513 -0.6256
 2654TIP3    H229378   3.695   1.433  12.181  3.7673  1.6332 -1.2970
 2655TIP3   OH229379   3.736   3.081  11.006 -0.1164 -0.4271  0.2096
 2655TIP3    H129380   3.777   3.164  11.032  1.0391 -0.6757 -0.7086
 2655TIP3    H229381   3.703   3.098  10.917 -0.7600 -0.6677  0.3953
 2656TIP3   OH229382   4.679   3.519   5.152 -0.3000  0.5094 -0.0211
 2656TIP3    H129383   4.599   3.562   5.123 -0.4357 -0.1585 -0.6795
 2656TIP3    H229384   4.706   3.467   5.076 -0.1299 -0.5277  0.7420
 2657TIP3   OH229385   6.640   2.438  14.331 -0.4780 -0.1225  0.8563
 2657TIP3    H129386   6.648   2.420  14.425  0.9402 -0.9883  0.5897
 2657TIP3    H229387   6.725   2.415  14.295 -0.8041  0.7981 -0.5634
 2658TIP3   OH229388   3.108   1.520   3.478 -0.0444  0.1287 -0.2197
 2658TIP3    H129389   3.076   1.520   3.568 -0.1192  0.4527 -0.2449
 2658TIP3    H229390   3.196   1.483   3.484 -0.1980 -0.2158 -0.0688
 2659TIP3   OH229391   0.378   0.014   5.687  0.2494  0.0665  0.1246
 2659TIP3    H129392   0.301   0.050   5.731 -1.4976 -0.9741 -1.8637
 2659TIP3    H229393   0.407  -0.057   5.744  0.5347  1.2830  1.5253
 2660TIP3   OH229394   2.308   2.769   6.387 -0.3520  0.2689  0.0547
 2660TIP3    H129395   2.217   2.759   6.359 -0.5312 -0.0682  0.7255
 2660TIP3    H229396   2.330   2.684   6.425  0.4949  0.0909 -0.7926
 2661TIP3   OH229397   1.252   2.511  12.780 -0.1190 -0.1180  0.5606
 2661TIP3    H129398   1.256   2.606  12.769 -0.7495 -0.2094 -0.7365
 2661TIP3    H229399   1.171   2.486  12.737 -0.9339 -1.0642  2.5449
 2662TIP3   OH229400   2.840   2.162  16.942  0.0127 -0.4080  0.2408
 2662TIP3    H129401   2.819   2.134  17.031  0.0208  1.9024  1.0422
 2662TIP3    H229402   2.845   2.257  16.948  0.9865 -0.2604 -2.0439
 2663TIP3   OH229403   5.405   4.860  14.165 -0.2739 -0.2041  0.1597
 2663TIP3    H129404   5.334   4.810  14.205 -0.6252 -1.9340 -2.4129
 2663TIP3    H229405   5.364   4.905  14.091  0.6966  1.4272  0.5684
 2664TIP3   OH229406   4.305   3.432  12.392  0.3092  0.5713 -0.1914
 2664TIP3    H129407   4.345   3.459  12.309  0.1808 -0.2634 -0.5291
 2664TIP3    H229408   4.213   3.457  12.384 -0.0364 -0.8387 -0.9166
 2665TIP3   OH229409   3.696   6.209  14.059  0.4024  0.2396 -0.2057
 2665TIP3    H129410   3.626   6.188  13.997 -0.8897  1.2344  0.8697
 2665TIP3    H229411   3.758   6.262  14.008  0.3099 -0.5079 -1.1177
 2666TIP3   OH229412   3.035   0.249   0.529 -0.0665 -0.3595 -0.4588
 2666TIP3    H129413   2.940   0.263   0.526  0.0418  0.3131 -2.1518
 2666TIP3    H229414   3.046   0.155   0.519 -0.5594 -0.3744 -0.9299
 2667TIP3   OH229415   0.371   4.454   3.951  0.0379 -0.6646 -0.2171
 2667TIP3    H129416   0.447   4.493   3.909  0.3799 -1.0118  0.0638
 2667TIP3    H229417   0.405   4.375   3.993  0.3129  1.0228  3.0285
 2668TIP3   OH229418   6.236   5.216   1.967  0.4463 -0.2675  0.2738
 2668TIP3    H129419   6.218   5.231   2.060  1.1925  0.4373  0.3110
 2668TIP3    H229420   6.266   5.125   1.963  1.1291 -0.0735  0.8293
 2669TIP3   OH229421   3.193   4.078   2.342 -0.1254 -0.2200  0.0824
 2669TIP3    H129422   3.173   4.004   2.285 -1.4387  0.3495 -0.2610
 2669TIP3    H229423   3.151   4.153   2.299 -1.5219  0.1677  1.9788
 2670TIP3   OH229424   1.740   6.141  11.656 -0.7690  0.1624  0.1127
 2670TIP3    H129425   1.648   6.168  11.658 -0.7971  0.0837 -0.0977
 2670TIP3    H229426   1.783   6.207  11.601 -0.2922  1.4325  1.9445
 2671TIP3   OH229427   5.098   3.857  11.364 -0.2385  0.1941 -0.3097
 2671TIP3    H129428   5.017   3.828  11.323 -0.8860 -0.3812  1.3285
 2671TIP3    H229429   5.167   3.815  11.312 -1.0108 -0.2101 -1.0347
 2672TIP3   OH229430   3.604   0.658  11.983 -0.0554 -0.2163 -0.1263
 2672TIP3    H129431   3.510   0.644  11.977 -0.5261  1.1688  2.2666
 2672TIP3    H229432   3.619   0.739  11.935 -0.1161 -0.3801 -0.4197
 2673TIP3   OH229433   6.422   1.594   0.860 -0.4673  0.4589 -0.0750
 2673TIP3    H129434   6.462   1.654   0.797  0.7834  0.1128  0.3556
 2673TIP3    H229435   6.393   1.519   0.808 -1.6021  1.2040 -0.5493
 2674TIP3   OH229436   4.690   4.929  13.786  0.1299  0.4829  0.0495
 2674TIP3    H129437   4.671   4.945  13.878 -1.4414 -0.5290 -0.0616
 2674TIP3    H229438   4.630   4.987  13.738  0.4499  0.5016 -0.3404
 2675TIP3   OH229439   5.122   3.167  14.135  0.4585  0.4501 -0.4878
 2675TIP3    H129440   5.064   3.193  14.206  1.6877  0.9115  0.3939
 2675TIP3    H229441   5.209   3.199  14.163  1.5378 -2.0772 -0.6922
 2676TIP3   OH229442   6.010   2.653   7.122 -0.3136  1.2237  0.1031
 2676TIP3    H129443   6.081   2.637   7.060 -0.2528 -1.5826  0.7781
 2676TIP3    H229444   6.055   2.668   7.206 -0.4401 -0.3549  0.4902
 2677TIP3   OH229445   6.639   4.063   1.029  0.0262 -0.0767  0.0876
 2677TIP3    H129446   6.711   4.000   1.028  1.2508  1.2672 -0.3561
 2677TIP3    H229447   6.574   4.027   0.969  1.1544 -0.4105 -0.9639
 2678TIP3   OH229448   2.543   0.657  11.120  0.1183 -0.0166 -0.3326
 2678TIP3    H129449   2.466   0.675  11.066 -0.2501  1.4134  0.6143
 2678TIP3    H229450   2.587   0.741  11.128  2.4272 -0.9951 -1.7227
 2679TIP3   OH229451   1.509   1.696  17.294  0.3559  0.0737  0.0993
 2679TIP3    H129452   1.441   1.655  17.241 -0.5152  1.2649  0.2506
 2679TIP3    H229453   1.520   1.782  17.255  1.1942  0.1924  0.5898
 2680TIP3   OH229454   1.343   5.571   2.895  0.5896 -0.0407 -0.3413
 2680TIP3    H129455   1.386   5.600   2.975 -0.3320  0.5265 -0.0420
 2680TIP3    H229456   1.413   5.533   2.843  1.4020  0.6136  0.2525
 2681TIP3   OH229457   5.077   3.297  15.811 -0.5487 -0.5188  0.6820
 2681TIP3    H129458   5.017   3.366  15.782 -1.2444 -1.4395 -0.1083
 2681TIP3    H229459   5.148   3.300  15.747 -1.0424 -1.1417  0.0888
 2682TIP3   OH229460   3.363   0.345   5.562  0.1574  0.1287  0.6860
 2682TIP3    H129461   3.358   0.395   5.643  2.6626  2.4208 -0.3880
 2682TIP3    H229462   3.294   0.381   5.507  0.4689  0.8061  0.7322
 2683TIP3   OH229463   2.940   6.523  11.524  0.1935 -0.0419 -0.3193
 2683TIP3    H129464   2.932   6.432  11.494 -0.4449  0.3590 -1.4063
 2683TIP3    H229465   2.870   6.532  11.589 -0.8465  0.1405 -1.4403
 2684TIP3   OH229466   1.723   3.306  12.345  0.3524  0.3228  0.2282
 2684TIP3    H129467   1.754   3.385  12.390 -0.9260  1.3037 -0.5668
 2684TIP3    H229468   1.639   3.286  12.385 -0.4140  0.7218 -1.1285
 2685TIP3   OH229469   1.408   6.213   5.931 -0.1982 -0.5592  0.3056
 2685TIP3    H129470   1.324   6.257   5.938 -0.1994  0.0577 -2.4299
 2685TIP3    H229471   1.473   6.277   5.961 -0.4176  0.5212 -1.3707
 2686TIP3   OH229472   1.432   6.734   5.393 -0.3649 -0.0940 -0.6675
 2686TIP3    H129473   1.495   6.804   5.377 -2.2807  1.6619 -0.8581
 2686TIP3    H229474   1.474   6.656   5.357  2.3608  0.6495  0.6475
 2687TIP3   OH229475   0.307   4.656   4.404 -1.0310 -0.1575 -0.1097
 2687TIP3    H129476   0.308   4.652   4.309 -1.2304 -1.8907 -0.0642
 2687TIP3    H229477   0.362   4.732   4.426 -0.7886  0.1094 -1.5831
 2688TIP3   OH229478   1.391   1.175  15.779  0.1680  0.1066 -0.8941
 2688TIP3    H129479   1.394   1.082  15.757 -0.9253  0.1498 -1.2721
 2688TIP3    H229480   1.388   1.178  15.874 -3.5149 -0.4359 -0.8598
 2689TIP3   OH229481   0.824   2.600  11.206 -0.3396  0.2065  0.5015
 2689TIP3    H129482   0.734   2.568  11.204  0.3779 -2.0439  0.6473
 2689TIP3    H229483   0.847   2.600  11.299 -0.3324  1.3024  0.5120
 2690TIP3   OH229484   3.001   5.439   0.747 -0.1305  0.2287 -0.3163
 2690TIP3    H129485   2.925   5.392   0.712 -1.0581  2.7340 -1.9616
 2690TIP3    H229486   2.965   5.496   0.815  0.5453  0.3003 -0.0121
 2691TIP3   OH229487   5.233   5.190   2.888 -0.2812 -0.1304  0.4514
 2691TIP3    H129488   5.232   5.159   2.978  0.8812  1.7712  1.1645
 2691TIP3    H229489   5.323   5.177   2.859 -0.4461  0.0308 -0.1623
 2692TIP3   OH229490   0.298   5.877  14.264 -0.2168 -0.5604 -0.2240
 2692TIP3    H129491   0.276   5.851  14.174 -0.0520  0.3779 -0.5485
 2692TIP3    H229492   0.387   5.911  14.258 -0.3458 -0.1250  0.2149
 2693TIP3   OH229493   4.375   1.504   0.490  0.9893 -0.6356 -0.1729
 2693TIP3    H129494   4.381   1.576   0.428  1.0134 -1.2975 -0.9489
 2693TIP3    H229495   4.403   1.542   0.574 -0.5292  0.6576 -0.2120
 2694TIP3   OH229496   0.015   6.657  16.329  0.4911  0.2380 -0.0831
 2694TIP3    H129497   0.028   6.595  16.401  1.6870  0.8803  0.2802
 2694TIP3    H229498  -0.043   6.723  16.364  2.7045  1.6959  1.0806
 2695TIP3   OH229499   0.837   4.452   0.034  0.0281 -0.2686  0.2748
 2695TIP3    H129500   0.774   4.437  -0.036 -0.2509 -0.3854  0.5531
 2695TIP3    H229501   0.903   4.510  -0.006  0.4434 -1.1795 -0.4119
 2696TIP3   OH229502   2.197   5.493   3.150  0.3373 -0.0051 -0.0171
 2696TIP3    H129503   2.290   5.468   3.151 -0.0985 -1.7995 -0.3781
 2696TIP3    H229504   2.152   5.417   3.188 -0.9798  0.9225  0.3539
 2697TIP3   OH229505   6.776   4.615   4.272  0.2052  0.1725  0.0222
 2697TIP3    H129506   6.686   4.639   4.252  0.7242  2.3277 -0.0017
 2697TIP3    H229507   6.824   4.636   4.191  1.0232  1.0866  0.7152
 2698TIP3   OH229508   2.091   1.578  12.134 -0.1670  0.2959 -1.0107
 2698TIP3    H129509   2.143   1.625  12.069 -0.5690  0.0743 -1.5016
 2698TIP3    H229510   2.148   1.507  12.163 -0.3835 -0.2819 -1.9559
 2699TIP3   OH229511   1.999   1.671   0.376 -0.5030 -0.1282  0.5053
 2699TIP3    H129512   1.917   1.667   0.326  0.1829 -1.9693 -0.5744
 2699TIP3    H229513   1.971   1.660   0.467 -1.5476  0.4606  0.2763
 2700TIP3   OH229514   2.442   4.566  16.403 -0.3775 -0.0508 -0.1530
 2700TIP3    H129515   2.532   4.563  16.433 -0.6432  1.6677  0.9558
 2700TIP3    H229516   2.413   4.655  16.423 -2.6233 -0.8515  0.4567
 2701TIP3   OH229517   0.592   0.525   2.957 -0.2874 -0.7279 -0.3222
 2701TIP3    H129518   0.535   0.499   3.029  0.2829 -0.6106  0.1814
 2701TIP3    H229519   0.574   0.461   2.888 -2.0314  0.1120 -0.7129
 2702TIP3   OH229520   5.430   1.365   5.029 -0.2793  0.0181  0.0052
 2702TIP3    H129521   5.463   1.444   4.986 -1.8622  0.9483  0.4307
 2702TIP3    H229522   5.360   1.334   4.972 -1.6498  0.6276  1.3078
 2703TIP3   OH229523   2.999   3.361   4.770  0.6378  0.6135  0.3170
 2703TIP3    H129524   3.073   3.334   4.824  1.2682  0.9096 -0.3810
 2703TIP3    H229525   2.928   3.377   4.833  0.8113 -0.7482  0.9137
 2704TIP3   OH229526   0.704   5.234  16.112 -0.3817  0.1914 -1.4293
 2704TIP3    H129527   0.610   5.221  16.128 -0.3339  1.5985  0.1853
 2704TIP3    H229528   0.747   5.203  16.192  0.4835  0.4226 -1.7894
 2705TIP3   OH229529   3.888   1.211  14.946 -0.5186 -0.2110 -0.5071
 2705TIP3    H129530   3.829   1.271  14.900 -0.8685  0.4017  0.7003
 2705TIP3    H229531   3.848   1.125  14.935 -2.5439  0.3715  1.5624
 2706TIP3   OH229532   5.381   6.682   4.640  0.0776 -0.0506  0.3777
 2706TIP3    H129533   5.354   6.590   4.639  0.9184 -0.3111  1.0341
 2706TIP3    H229534   5.439   6.690   4.716  2.2519  0.3888 -1.2363
 2707TIP3   OH229535   0.556   3.847   2.815 -0.3099 -0.0230 -0.1730
 2707TIP3    H129536   0.517   3.760   2.818 -1.8795  0.6617  1.8143
 2707TIP3    H229537   0.603   3.855   2.898 -0.0803  0.9633 -0.3868
 2708TIP3   OH229538   0.923   6.777   0.601  0.2640 -0.0998 -0.2118
 2708TIP3    H129539   0.928   6.867   0.634  0.3804 -0.8318  1.9020
 2708TIP3    H229540   0.991   6.772   0.534  0.9935  1.1005  0.3989
 2709TIP3   OH229541   0.022   0.350   2.889 -0.3084 -0.0397  0.1623
 2709TIP3    H129542   0.044   0.263   2.922  0.5332 -0.3600 -1.1556
 2709TIP3    H229543  -0.012   0.334   2.801  2.0522  1.0644 -1.0638
 2710TIP3   OH229544   5.735   3.033   5.295  0.3061 -0.2185  0.0938
 2710TIP3    H129545   5.708   3.104   5.237  0.7342 -0.5619 -0.5383
 2710TIP3    H229546   5.768   2.966   5.236  0.7443 -0.5775  0.7444
 2711TIP3   OH229547   0.477   1.666  11.791  0.1914 -0.5558  0.0921
 2711TIP3    H129548   0.462   1.574  11.810  0.9886 -1.3533 -2.7225
 2711TIP3    H229549   0.572   1.675  11.790  0.1284  0.1041 -0.4312
 2712TIP3   OH229550   2.968   0.191   2.415  0.2952 -0.6886 -0.0400
 2712TIP3    H129551   2.955   0.136   2.338  0.8138 -0.8630 -0.0091
 2712TIP3    H229552   3.009   0.133   2.479  0.6202 -0.3294  0.0772
 2713TIP3   OH229553   1.916   0.137  13.456 -0.1148  0.4319  0.2013
 2713TIP3    H129554   1.904   0.206  13.522  3.6313  1.8133 -0.3093
 2713TIP3    H229555   1.970   0.072  13.500 -1.3543 -0.9249 -0.2049
 2714TIP3   OH229556   4.585   5.264  16.392  0.3538 -0.4143  0.2474
 2714TIP3    H129557   4.562   5.251  16.300  0.5139  0.4409  0.0819
 2714TIP3    H229558   4.502   5.289  16.433  0.7935  1.9876 -0.2179
 2715TIP3   OH229559   2.796   1.215  15.415  0.1153 -0.4142 -0.5512
 2715TIP3    H129560   2.873   1.201  15.360 -0.2368  2.0687 -1.8233
 2715TIP3    H229561   2.729   1.157  15.379  0.9930 -1.6721 -0.2201
 2716TIP3   OH229562   5.039   3.534   5.195 -0.5411 -0.0702 -0.2009
 2716TIP3    H129563   4.991   3.498   5.120 -0.3224 -1.4664  0.2961
 2716TIP3    H229564   5.066   3.457   5.245  1.3021  0.7219  0.1029
 2717TIP3   OH229565   0.456   4.999  11.559  0.1838  0.4772 -0.0553
 2717TIP3    H129566   0.371   4.960  11.536  0.6009  0.1147 -1.0217
 2717TIP3    H229567   0.449   5.090  11.530 -1.0475  1.4421  2.8225
 2718TIP3   OH229568   1.356   5.485   0.705 -0.4611  0.1257 -0.3313
 2718TIP3    H129569   1.295   5.557   0.720 -0.4414  0.2277 -0.7352
 2718TIP3    H229570   1.438   5.514   0.746 -0.6802 -0.0133  0.2135
 2719TIP3   OH229571   6.396   5.535   3.160 -0.6702  0.5733  0.6425
 2719TIP3    H129572   6.396   5.473   3.233 -0.3566 -0.3613 -0.1277
 2719TIP3    H229573   6.398   5.621   3.202 -0.9614  0.0714  1.7366
 2720TIP3   OH229574   6.068   2.786  13.303 -0.6204  0.2292  0.3695
 2720TIP3    H129575   6.161   2.773  13.286 -0.6712  0.9825 -0.5840
 2720TIP3    H229576   6.043   2.858  13.245 -1.9844 -0.5461 -0.0486
 2721TIP3   OH229577   3.284   4.624   3.104 -0.3166  0.3741  0.6493
 2721TIP3    H129578   3.252   4.538   3.075 -0.0036  0.8248 -1.1582
 2721TIP3    H229579   3.356   4.603   3.163  0.3332 -0.6275 -0.4507
 2722TIP3   OH229580   1.287   2.132   2.706 -0.4946  0.4156  0.2542
 2722TIP3    H129581   1.271   2.107   2.615  0.5106  0.5529  0.0322
 2722TIP3    H229582   1.215   2.193   2.726 -1.4730 -0.6058 -0.0142
 2723TIP3   OH229583   0.250   4.394  13.435 -0.4688  0.0266 -0.3696
 2723TIP3    H129584   0.191   4.430  13.501  1.7029  2.3866  0.4476
 2723TIP3    H229585   0.316   4.346  13.485 -0.6751 -1.1370 -1.1487
 2724TIP3   OH229586   5.029   2.603  16.863  0.3315 -0.0842  0.0094
 2724TIP3    H129587   5.023   2.604  16.959 -0.8027  2.2091 -0.0185
 2724TIP3    H229588   5.072   2.685  16.841  0.2370 -0.4158 -1.4646
 2725TIP3   OH229589   0.231   5.661  11.675  0.0092 -0.3951  0.8956
 2725TIP3    H129590   0.280   5.729  11.720  0.4354 -0.0182 -0.1136
 2725TIP3    H229591   0.248   5.581  11.725  0.9837 -0.1074  1.0284
 2726TIP3   OH229592   4.978   3.094   2.653 -0.3539 -0.0105  0.7119
 2726TIP3    H129593   4.940   3.008   2.636 -2.1530  0.6332  1.2286
 2726TIP3    H229594   5.018   3.085   2.740 -0.4216 -0.3727  0.7083
 2727TIP3   OH229595   2.640   0.713  12.980 -0.1762  0.1971 -0.2426
 2727TIP3    H129596   2.624   0.797  12.938  2.3860  1.4534  1.0956
 2727TIP3    H229597   2.735   0.700  12.975 -0.2778 -1.6739  1.2896
 2728TIP3   OH229598   3.125   5.285  16.566 -0.4374 -0.0954 -0.3459
 2728TIP3    H129599   3.130   5.280  16.470  0.3783  0.0134 -0.3193
 2728TIP3    H229600   3.128   5.379  16.585  3.3984 -0.1113 -0.0940
 2729TIP3   OH229601   6.596   5.097   5.672  0.4376  0.3647 -0.6584
 2729TIP3    H129602   6.631   5.179   5.638  0.5536  0.5653 -0.0708
 2729TIP3    H229603   6.629   5.092   5.762  0.7500 -0.5138 -0.8054
 2730TIP3   OH229604   5.537   2.429   2.777  0.2745 -0.2321 -0.0331
 2730TIP3    H129605   5.483   2.383   2.840 -1.3486  1.1105 -0.3611
 2730TIP3    H229606   5.482   2.437   2.699  0.6464  1.8213 -0.1365
 2731TIP3   OH229607   4.290   4.725  16.465 -0.4336 -0.0945 -0.1352
 2731TIP3    H129608   4.262   4.801  16.516  0.3308  1.4661 -1.9152
 2731TIP3    H229609   4.319   4.661  16.530  0.0021  1.5868  1.3807
 2732TIP3   OH229610   2.538   5.967  14.401  0.1277  0.2968 -0.1795
 2732TIP3    H129611   2.501   6.018  14.329  0.4466 -2.7133 -2.7179
 2732TIP3    H229612   2.612   6.019  14.432 -0.7895  2.2890 -1.1306
 2733TIP3   OH229613   3.961   1.538  14.180  0.0922 -0.5009  0.0704
 2733TIP3    H129614   3.885   1.495  14.142  0.6347 -2.3248  0.9627
 2733TIP3    H229615   3.924   1.601  14.242 -0.7433  1.2665 -2.0777
 2734TIP3   OH229616   6.508   0.795  16.389  0.4188  0.0797 -0.0140
 2734TIP3    H129617   6.494   0.872  16.332  2.0250  0.4756  0.0878
 2734TIP3    H229618   6.503   0.830  16.478 -0.0885 -0.1800  0.0642
 2735TIP3   OH229619   2.940   5.193  13.620  0.4390 -0.7701 -0.3163
 2735TIP3    H129620   2.931   5.119  13.679 -1.3771 -2.1010 -2.1080
 2735TIP3    H229621   2.884   5.261  13.658  0.8601 -0.8781  0.5050
 2736TIP3   OH229622   0.791   1.461   3.998  0.4349  0.3380  0.2997
 2736TIP3    H129623   0.822   1.384   3.950  1.2428  0.6617  0.2959
 2736TIP3    H229624   0.778   1.429   4.087  0.4276  0.1130  0.2192
 2737TIP3   OH229625   2.419   3.978  10.865  0.2776 -0.3608 -0.0228
 2737TIP3    H129626   2.431   3.897  10.914 -0.3639  0.6361  1.8344
 2737TIP3    H229627   2.500   3.986  10.814  0.8986 -1.5017  0.7372
 2738TIP3   OH229628   6.595   3.416  16.778 -0.0234  0.3411 -0.0027
 2738TIP3    H129629   6.554   3.346  16.727  3.3932 -2.0029  0.1896
 2738TIP3    H229630   6.562   3.403  16.867 -0.7445  0.1231 -0.2933
 2739TIP3   OH229631   1.921   1.966  12.490  0.0141 -0.6222  0.1797
 2739TIP3    H129632   1.887   1.879  12.511 -0.6368 -0.9084 -1.8975
 2739TIP3    H229633   1.859   2.002  12.427  1.7885  0.1629 -1.2264
 2740TIP3   OH229634   4.987   2.884  11.846  0.2966 -0.5219 -0.1892
 2740TIP3    H129635   5.039   2.872  11.766 -1.4179 -2.2892 -1.1165
 2740TIP3    H229636   4.923   2.813  11.844 -0.8432  0.3543  1.9586
 2741TIP3   OH229637   0.220   2.909   4.484 -0.0929 -0.0072 -0.2969
 2741TIP3    H129638   0.126   2.923   4.479 -0.1551 -0.7408 -1.7189
 2741TIP3    H229639   0.253   2.931   4.397  0.9565 -0.4265 -0.0320
 2742TIP3   OH229640   5.632   4.383   2.809  0.4242  0.6063 -0.3947
 2742TIP3    H129641   5.693   4.320   2.770  0.6890  0.3553  0.4252
 2742TIP3    H229642   5.546   4.341   2.801  0.7659 -0.5277  1.4570
 2743TIP3   OH229643   5.565   4.521  11.891  0.9138  0.0165 -0.4485
 2743TIP3    H129644   5.513   4.450  11.854 -0.1172  1.2379 -1.4479
 2743TIP3    H229645   5.627   4.478  11.949 -2.2793 -1.4742  2.2412
 2744TIP3   OH229646   4.494   6.095  11.617 -0.2200  0.2148 -0.3981
 2744TIP3    H129647   4.413   6.121  11.572 -0.8080 -0.7419  0.1003
 2744TIP3    H229648   4.561   6.097  11.548 -0.2603  2.7357 -0.4758
 2745TIP3   OH229649   4.794   3.171  12.962  0.1050 -0.1514  0.5010
 2745TIP3    H129650   4.850   3.222  13.020 -0.0389  0.8970 -0.2501
 2745TIP3    H229651   4.713   3.160  13.012 -0.3564  1.5348  0.1934
 2746TIP3   OH229652   5.431   2.426  14.092 -0.1861 -0.3341 -0.2797
 2746TIP3    H129653   5.436   2.470  14.007  0.6426  0.4710  0.1730
 2746TIP3    H229654   5.357   2.468  14.136  1.3043  1.4971  0.6081
 2747TIP3   OH229655   0.487   2.997  11.390  0.1654 -0.4641 -0.5461
 2747TIP3    H129656   0.534   3.080  11.392 -1.1051  0.2953 -0.9098
 2747TIP3    H229657   0.511   2.957  11.306  1.7379 -1.0704  0.1612
 2748TIP3   OH229658   4.964   3.706   4.277 -0.4378  0.0860  0.2198
 2748TIP3    H129659   4.966   3.632   4.217  0.3652  1.1629 -1.1341
 2748TIP3    H229660   5.051   3.708   4.317 -0.0660  0.9336 -0.5903
 2749TIP3   OH229661   6.395   2.896  12.010 -0.4071  0.4345  0.0582
 2749TIP3    H129662   6.417   2.888  12.102  0.2406  1.5070  0.0102
 2749TIP3    H229663   6.360   2.984  12.001  0.1583  0.5882 -0.8259
 2750TIP3   OH229664   1.984   3.915   5.224  0.1828 -0.3776  0.4319
 2750TIP3    H129665   2.072   3.936   5.192  0.4226 -0.5823  0.9527
 2750TIP3    H229666   1.963   3.986   5.284  0.4218 -0.8753  1.1121
 2751TIP3   OH229667   1.560   1.330  11.002  0.3031 -0.1301 -0.8821
 2751TIP3    H129668   1.567   1.235  11.008 -0.6936 -0.1968 -0.5866
 2751TIP3    H229669   1.551   1.348  10.908 -3.4334 -0.6930 -0.7922
 2752TIP3   OH229670   1.117   3.060   1.328  0.8622  0.7080  0.1108
 2752TIP3    H129671   1.179   3.071   1.400  0.2504  0.8332  0.6333
 2752TIP3    H229672   1.141   3.128   1.265  1.7267  0.2723 -0.0459
 2753TIP3   OH229673   0.168   3.358  14.957 -0.3342 -0.6776  0.3240
 2753TIP3    H129674   0.132   3.398  14.878  0.2767 -1.1170 -0.1860
 2753TIP3    H229675   0.221   3.427  14.997 -0.1872 -0.6286  0.0461
 2754TIP3   OH229676   3.884   0.609   3.025  0.1909 -0.5033 -0.9743
 2754TIP3    H129677   3.954   0.606   3.090 -0.7165 -0.2957  0.0517
 2754TIP3    H229678   3.839   0.524   3.034 -0.3229 -0.2270 -0.8697
 2755TIP3   OH229679   4.645   5.902   2.556  0.0651  0.4076  0.1317
 2755TIP3    H129680   4.722   5.903   2.613 -0.0354  1.9203  0.2861
 2755TIP3    H229681   4.679   5.876   2.470  1.0906  2.5759 -0.1917
 2756TIP3   OH229682   2.992   4.030   0.496 -0.2581 -0.3593  0.4110
 2756TIP3    H129683   2.945   3.978   0.562 -0.2422 -1.3163 -0.3082
 2756TIP3    H229684   2.949   4.115   0.497 -0.1170 -0.2730  1.8152
 2757TIP3   OH229685   0.496   3.317   1.791 -0.6858  0.0154 -0.5290
 2757TIP3    H129686   0.526   3.261   1.720 -1.6119 -1.2067  0.0029
 2757TIP3    H229687   0.576   3.356   1.827 -0.2710  1.3525 -2.7604
 2758TIP3   OH229688   6.584   0.187   4.132 -0.1994  0.6241 -0.5010
 2758TIP3    H129689   6.523   0.129   4.087 -0.1308 -0.7806  1.1159
 2758TIP3    H229690   6.663   0.186   4.078 -0.2273 -0.7508 -0.5552
 2759TIP3   OH229691   4.233   4.577  15.262  0.4216 -0.9697  0.2381
 2759TIP3    H129692   4.306   4.582  15.323 -0.9822  0.0182  1.9294
 2759TIP3    H229693   4.255   4.639  15.192  0.5798  0.3639  1.4458
 2760TIP3   OH229694   3.464   6.445  10.657 -0.5980  0.1058  0.5685
 2760TIP3    H129695   3.549   6.456  10.614 -1.3942 -0.6452 -1.3162
 2760TIP3    H229696   3.433   6.534  10.673 -0.0987  0.4026 -0.0635
 2761TIP3   OH229697   3.512   3.651  13.566  0.9226  0.3932  0.2439
 2761TIP3    H129698   3.559   3.731  13.591 -0.0392  0.8040  0.7880
 2761TIP3    H229699   3.499   3.604  13.648  1.1325 -0.1355 -0.0217
 2762TIP3   OH229700   6.617   4.188   5.658  0.5346  0.4874  0.6423
 2762TIP3    H129701   6.547   4.253   5.663  2.4859  2.8567 -0.7293
 2762TIP3    H229702   6.614   4.157   5.567  2.2355  1.9147  0.0310
 2763TIP3   OH229703   5.434   4.047  15.816 -0.0435  0.2584  0.3812
 2763TIP3    H129704   5.477   4.129  15.839  0.0523  0.3264 -0.0269
 2763TIP3    H229705   5.506   3.986  15.797 -0.0912  0.9240 -2.2270
 2764TIP3   OH229706   1.477   5.654  16.513  0.5662  0.2924  0.0302
 2764TIP3    H129707   1.562   5.647  16.468  1.0065  0.1973  0.8565
 2764TIP3    H229708   1.413   5.665  16.442  0.8548 -2.9052 -0.8791
 2765TIP3   OH229709   5.721   0.654   4.643  0.8615  0.1373 -0.5568
 2765TIP3    H129710   5.722   0.676   4.736  2.7638 -1.5114 -0.1110
 2765TIP3    H229711   5.674   0.571   4.638  0.0900  0.5939 -1.2036
 2766TIP3   OH229712   2.560   2.147  13.092 -0.0151 -0.0173 -0.3619
 2766TIP3    H129713   2.549   2.053  13.097 -2.4805  0.1182 -1.6736
 2766TIP3    H229714   2.653   2.160  13.078  0.3716 -2.2378 -0.1521
 2767TIP3   OH229715   4.950   2.942  14.065  0.7934 -0.2007 -0.6000
 2767TIP3    H129716   5.017   3.009  14.047  1.4767 -1.2939 -2.4166
 2767TIP3    H229717   4.876   2.968  14.010  0.7642 -0.4940 -0.6983
 2768TIP3   OH229718   0.691   4.714   6.759  0.2271  0.2574  0.2637
 2768TIP3    H129719   0.784   4.697   6.779 -0.2274 -0.4890  1.9100
 2768TIP3    H229720   0.676   4.803   6.791  0.7096  0.9904 -1.4055
 2769TIP3   OH229721   4.177   3.519   4.088  1.0225  0.5171  0.3163
 2769TIP3    H129722   4.157   3.434   4.128  2.1822 -0.0058 -0.1736
 2769TIP3    H229723   4.245   3.557   4.144 -1.2124  2.2954  1.9947
 2770TIP3   OH229724   4.579   1.622  14.916 -0.5450  0.0011 -0.0552
 2770TIP3    H129725   4.627   1.700  14.944  0.4328 -0.4564 -0.4138
 2770TIP3    H229726   4.639   1.550  14.933 -1.0020 -0.5622 -0.7863
 2771TIP3   OH229727   2.335   6.624   1.384 -0.0345  1.0937  0.0532
 2771TIP3    H129728   2.272   6.660   1.322  0.5465  0.7912 -0.7462
 2771TIP3    H229729   2.339   6.688   1.455 -3.3413 -0.2067  1.6003
 2772TIP3   OH229730   4.685   1.881  17.268 -0.1083 -0.5858 -0.2180
 2772TIP3    H129731   4.689   1.903  17.361 -0.5609 -2.7105  0.3763
 2772TIP3    H229732   4.645   1.957  17.227 -1.0307 -0.0656  1.5246
 2773TIP3   OH229733   1.193   6.100   4.607  0.0111 -0.4710 -0.0538
 2773TIP3    H129734   1.235   6.034   4.552 -0.2163 -0.1225 -0.6610
 2773TIP3    H229735   1.139   6.151   4.546  0.2089  0.2909  0.3996
 2774TIP3   OH229736   1.765   5.363   3.260  0.2579  0.8640  0.1895
 2774TIP3    H129737   1.776   5.356   3.165 -0.1217 -1.5309  0.2404
 2774TIP3    H229738   1.848   5.396   3.292  0.7288  0.7770 -0.9019
 2775TIP3   OH229739   1.550   0.018  16.419  0.4867  0.0600  0.0533
 2775TIP3    H129740   1.538   0.097  16.471 -0.2543 -0.2269  0.3297
 2775TIP3    H229741   1.625   0.037  16.363  0.8438  0.6418  0.7122
 2776TIP3   OH229742   1.218   2.773  12.785  0.4031 -0.5695 -0.1797
 2776TIP3    H129743   1.174   2.849  12.747  0.4395 -0.2671  0.3682
 2776TIP3    H229744   1.268   2.809  12.859  1.7977 -0.8584 -0.9562
 2777TIP3   OH229745   4.350   3.682  11.478 -0.2241  0.2132  0.3761
 2777TIP3    H129746   4.444   3.660  11.478 -0.3758 -0.5103 -0.6023
 2777TIP3    H229747   4.344   3.759  11.421  0.0049  1.4512  1.9658
 2778TIP3   OH229748   6.590   5.967  14.071  0.1877  0.8143 -0.6917
 2778TIP3    H129749   6.530   5.944  14.143  0.4714  0.7434 -0.4763
 2778TIP3    H229750   6.664   5.907  14.082  0.4378  1.1058 -0.7748
 2779TIP3   OH229751   0.563   5.429  14.155 -0.5921 -0.4315  0.1357
 2779TIP3    H129752   0.514   5.452  14.234  0.6124  1.5337  0.3805
 2779TIP3    H229753   0.520   5.351  14.122 -2.4187 -0.1145  1.6028
 2780TIP3   OH229754   2.515   3.314  11.982  0.2327  0.3180 -0.5773
 2780TIP3    H129755   2.475   3.349  11.902 -1.5402 -0.6269 -0.1662
 2780TIP3    H229756   2.534   3.222  11.962  0.0837  0.1633 -0.0320
 2781TIP3   OH229757   1.517   0.499   0.200  0.1983 -0.2581 -0.0336
 2781TIP3    H129758   1.585   0.515   0.135  0.3973 -1.1456 -0.0542
 2781TIP3    H229759   1.436   0.527   0.157  0.3645 -0.5786 -0.5633
 2782TIP3   OH229760   2.361   1.609   1.044  0.1272 -0.3007  0.3076
 2782TIP3    H129761   2.378   1.637   0.954  0.9726 -1.5178  0.0667
 2782TIP3    H229762   2.422   1.537   1.059 -2.9746 -3.1537  0.3244
 2783TIP3   OH229763   5.876   2.561   5.085  0.0539 -0.6438  0.3134
 2783TIP3    H129764   5.832   2.478   5.097 -1.0739 -0.0606  0.2894
 2783TIP3    H229765   5.870   2.605   5.170 -0.3029 -0.1478  0.0380
 2784TIP3   OH229766   2.352   6.648  13.751 -0.2399 -0.1773 -0.6446
 2784TIP3    H129767   2.325   6.721  13.806 -1.4050 -0.7731 -0.3858
 2784TIP3    H229768   2.431   6.679  13.706  0.1560  0.6826  0.5858
 2785TIP3   OH229769   5.049   5.553  15.392 -0.0357  0.0840  0.1362
 2785TIP3    H129770   5.080   5.629  15.342 -0.1738 -1.6487 -2.7539
 2785TIP3    H229771   5.126   5.523  15.441  0.1297  1.7370  0.9857
 2786TIP3   OH229772   0.664   1.458  14.007 -0.4643  0.3053  0.3435
 2786TIP3    H129773   0.723   1.532  14.022 -1.5078  1.5698 -1.4060
 2786TIP3    H229774   0.715   1.397  13.954  0.2523 -0.0656  1.4199
 2787TIP3   OH229775   1.166   4.943  14.662 -0.2506 -0.0131 -0.3306
 2787TIP3    H129776   1.208   4.961  14.747 -0.6683  0.1660 -0.1612
 2787TIP3    H229777   1.220   4.873  14.624 -0.4475 -0.5669  0.3803
 2788TIP3   OH229778   3.164   5.777   3.703  0.1546  0.3711 -0.0318
 2788TIP3    H129779   3.164   5.847   3.769  0.7015 -0.2341  0.6244
 2788TIP3    H229780   3.256   5.768   3.678 -0.0999  0.9553 -1.2931
 2789TIP3   OH229781   5.199   6.244   4.028 -0.1613 -0.4549  0.1882
 2789TIP3    H129782   5.259   6.303   4.072 -0.9023  0.5056 -0.0555
 2789TIP3    H229783   5.221   6.157   4.062 -0.0741  0.1343  1.7196
 2790TIP3   OH229784   2.356   4.724  15.950  0.4313 -0.3834  0.0334
 2790TIP3    H129785   2.399   4.730  16.035 -0.4038  1.8229  0.3529
 2790TIP3    H229786   2.427   4.705  15.889  1.0676 -1.8629  1.1542
 2791TIP3   OH229787   1.283   3.525   3.359 -0.1785  0.3982 -0.2349
 2791TIP3    H129788   1.235   3.485   3.432  1.4163 -1.3077 -0.0482
 2791TIP3    H229789   1.296   3.453   3.297  2.3469  0.7004 -0.1436
 2792TIP3   OH229790   2.589   5.063  11.716  0.4645  0.9884  0.3450
 2792TIP3    H129791   2.517   5.052  11.777  1.8128 -0.3251  1.8076
 2792TIP3    H229792   2.652   5.119  11.762  1.0366  0.8648 -0.2648
 2793TIP3   OH229793   5.486   6.283   4.498 -0.4639 -0.5278 -0.6403
 2793TIP3    H129794   5.451   6.272   4.409 -0.5246 -0.6816 -0.5976
 2793TIP3    H229795   5.498   6.194   4.530 -1.2626 -0.4745 -0.1701
 2794TIP3   OH229796   5.088   5.192   3.753 -0.1023  0.3296 -0.1295
 2794TIP3    H129797   5.068   5.219   3.663  0.4551  0.1553 -0.3123
 2794TIP3    H229798   5.176   5.226   3.770  0.1503 -0.3755  0.0337
 2795TIP3   OH229799   5.411   5.630  15.954  0.3469 -0.4967  0.1359
 2795TIP3    H129800   5.354   5.682  16.011 -0.0592 -0.2111 -0.5153
 2795TIP3    H229801   5.482   5.689  15.929  0.9723 -0.8677  0.9885
 2796TIP3   OH229802   1.011   3.576  10.511  0.1200 -0.2221 -0.2666
 2796TIP3    H129803   1.039   3.663  10.540  0.8173 -0.5221 -0.0332
 2796TIP3    H229804   1.080   3.546  10.453  0.0218 -0.7473 -0.1165
 2797TIP3   OH229805   3.678   1.922   4.498 -0.2211  0.6271  0.4148
 2797TIP3    H129806   3.638   1.850   4.449 -0.8353  0.3100  1.3408
 2797TIP3    H229807   3.616   1.939   4.570 -0.1107  2.1226  0.1830
 2798TIP3   OH229808   3.620   1.729  13.052 -0.1921 -0.1746 -0.5706
 2798TIP3    H129809   3.674   1.779  12.990  0.2961 -0.9694 -0.7990
 2798TIP3    H229810   3.651   1.639  13.043 -1.7882 -0.7207 -0.9631
 2799TIP3   OH229811   2.599   3.297   2.365 -0.2632  0.1160  0.6004
 2799TIP3    H129812   2.594   3.377   2.416 -0.5381  0.8492 -0.5522
 2799TIP3    H229813   2.638   3.233   2.424 -2.2927  0.4116  2.3852
 2800TIP3   OH229814   2.872   1.939   1.862 -0.3950 -0.2728  0.1447
 2800TIP3    H129815   2.898   2.015   1.914  1.7918 -2.5674  2.7073
 2800TIP3    H229816   2.792   1.907   1.903  0.8022 -1.5110  1.6531
 2801TIP3   OH229817   2.119   6.748   3.122  0.3145 -0.0474 -0.0468
 2801TIP3    H129818   2.201   6.702   3.138  0.5605  0.5623  0.5003
 2801TIP3    H229819   2.087   6.770   3.209  0.6443  1.5763 -0.3045
 2802TIP3   OH229820   3.415   1.589  12.255 -0.3407  0.1514  0.1856
 2802TIP3    H129821   3.418   1.610  12.162  0.8255  0.5778  0.3070
 2802TIP3    H229822   3.497   1.542  12.271 -2.3597 -3.8588  0.1005
 2803TIP3   OH229823   2.804   3.384   0.823  0.7790  0.3215  0.0235
 2803TIP3    H129824   2.869   3.423   0.764  0.6946 -0.1937 -0.4183
 2803TIP3    H229825   2.760   3.318   0.770 -1.4107  1.9132 -0.2606
 2804TIP3   OH229826   5.865   4.694  14.605  0.3790 -0.2251  0.3567
 2804TIP3    H129827   5.776   4.698  14.641  0.4305  0.5240  0.4184
 2804TIP3    H229828   5.916   4.649  14.673  0.0421 -0.7047  0.2977
 2805TIP3   OH229829   1.649   5.636   5.819 -0.4689 -0.4954 -0.0701
 2805TIP3    H129830   1.609   5.549   5.813  0.2926 -0.8690  0.1077
 2805TIP3    H229831   1.718   5.636   5.752 -1.3723  0.4897 -1.0385
 2806TIP3   OH229832   3.640   3.455   0.142  0.2734  0.1514 -0.0836
 2806TIP3    H129833   3.549   3.431   0.155 -0.5440  3.3150  0.7974
 2806TIP3    H229834   3.680   3.445   0.228  0.0998  1.2445  0.1261
 2807TIP3   OH229835   6.676   6.071   4.876  0.0322  0.2283 -0.1712
 2807TIP3    H129836   6.730   6.072   4.797 -1.5280  0.3103 -1.3002
 2807TIP3    H229837   6.586   6.078   4.843 -0.6486  0.5662  1.6405
 2808TIP3   OH229838   5.816   1.388  14.471  0.9223 -0.5344 -0.3809
 2808TIP3    H129839   5.827   1.483  14.476  1.3602 -0.6262  1.0102
 2808TIP3    H229840   5.904   1.354  14.460  0.8217 -0.7912 -0.4013
 2809TIP3   OH229841   3.604   3.022   4.685  0.2520 -0.2127  0.1839
 2809TIP3    H129842   3.580   3.050   4.773  0.9551  3.3524 -0.6234
 2809TIP3    H229843   3.549   3.073   4.626  2.3850  0.3511 -1.4788
 2810TIP3   OH229844   6.201   6.639   3.955 -0.6240  0.4447 -0.4087
 2810TIP3    H129845   6.241   6.604   3.876 -0.8257  0.6413 -0.5966
 2810TIP3    H229846   6.150   6.567   3.990 -0.7914  0.4554 -0.6301
 2811TIP3   OH229847   3.109   5.079  15.171  0.4052 -0.0510 -0.1883
 2811TIP3    H129848   3.037   5.096  15.110 -0.3047  1.6528  1.0687
 2811TIP3    H229849   3.153   5.163  15.181 -0.1653  0.0244  2.4376
 2812TIP3   OH229850   0.479   5.889  16.300  0.4564 -0.1456 -0.1723
 2812TIP3    H129851   0.436   5.818  16.252 -1.3771  1.4491 -1.0110
 2812TIP3    H229852   0.460   5.871  16.392 -1.1866 -0.0368 -0.4609
 2813TIP3   OH229853   1.331   6.359   1.122 -0.1096 -0.2650 -0.2346
 2813TIP3    H129854   1.258   6.418   1.137  1.0314  1.1186  0.1174
 2813TIP3    H229855   1.334   6.303   1.199  1.6043  2.3536  1.7777
 2814TIP3   OH229856   2.845   3.787   1.662  0.6531 -0.0552 -0.3614
 2814TIP3    H129857   2.922   3.842   1.677  1.4976 -1.1225 -0.5882
 2814TIP3    H229858   2.772   3.848   1.655  1.6259  1.0653 -1.1501
 2815TIP3   OH229859   0.654   3.919  12.793  0.1540  0.0934 -0.2035
 2815TIP3    H129860   0.620   3.880  12.873 -0.6110  1.5491  0.2030
 2815TIP3    H229861   0.746   3.937  12.812  0.4730 -1.3037 -0.3361
 2816TIP3   OH229862   6.223   5.022  15.453  0.9286  0.3374 -0.6727
 2816TIP3    H129863   6.245   5.088  15.519 -1.6838  0.3521  0.2660
 2816TIP3    H229864   6.153   5.061  15.402 -1.5700 -2.0458  0.6749
 2817TIP3   OH229865   6.613   2.254   5.315  0.3417  0.4512 -0.1771
 2817TIP3    H129866   6.573   2.339   5.301  1.1346  1.8482  4.4041
 2817TIP3    H229867   6.539   2.194   5.327 -0.4025  1.6642  1.7504
 2818TIP3   OH229868   2.734   0.045  16.872  0.3367  0.6152  0.3614
 2818TIP3    H129869   2.685   0.088  16.942  1.3768  2.2583  0.1327
 2818TIP3    H229870   2.793   0.113  16.838  0.0364 -0.1943 -1.9532
 2819TIP3   OH229871   5.442   4.158  11.636 -1.1177  0.3193  0.3140
 2819TIP3    H129872   5.350   4.178  11.617 -0.9588 -0.6658 -1.8631
 2819TIP3    H229873   5.491   4.231  11.598 -0.8961 -0.6370 -1.3404
 2820TIP3   OH229874   1.408   1.522   4.269 -0.0658 -0.2738 -0.4277
 2820TIP3    H129875   1.448   1.552   4.187 -0.2984  1.7466  0.1337
 2820TIP3    H229876   1.342   1.459   4.241 -0.0858  0.3089 -1.8124
 2821TIP3   OH229877   6.746   3.549   4.562  0.3148 -0.0072  0.5066
 2821TIP3    H129878   6.755   3.485   4.633 -0.5931  1.1784  1.7350
 2821TIP3    H229879   6.775   3.632   4.601 -0.5523  0.7427 -0.3897
 2822TIP3   OH229880   5.962   4.823   2.139  0.6547  0.2566 -0.1506
 2822TIP3    H129881   5.950   4.730   2.123 -1.1342  0.5283 -0.6277
 2822TIP3    H229882   6.030   4.827   2.207  1.8144 -1.2994 -1.1373
 2823TIP3   OH229883   3.848   1.662   4.933  0.1331  0.4162 -0.7075
 2823TIP3    H129884   3.908   1.701   4.995 -0.2264  0.5827 -0.4623
 2823TIP3    H229885   3.847   1.723   4.859  0.3702  0.3421 -0.7730
 2824TIP3   OH229886   2.162   1.053   4.244 -0.3808 -0.6363  0.6003
 2824TIP3    H129887   2.155   0.969   4.290 -0.8297 -1.0997 -0.2987
 2824TIP3    H229888   2.143   1.118   4.312 -1.2487 -1.3158  1.0374
 2825TIP3   OH229889   2.076   5.942   3.913 -0.2510 -0.4776 -0.5576
 2825TIP3    H129890   2.142   5.939   3.983  0.8035  1.0557 -1.4301
 2825TIP3    H229891   2.060   5.850   3.892  2.0257 -0.9189 -0.6556
 2826TIP3   OH229892   3.707   1.257   0.368  0.1907 -0.4338 -0.3453
 2826TIP3    H129893   3.733   1.263   0.460  1.0462 -1.2092 -0.5122
 2826TIP3    H229894   3.661   1.174   0.362  0.1633 -0.3987 -0.6197
 2827TIP3   OH229895   6.165   6.301   4.502 -0.2195  0.1955 -0.3504
 2827TIP3    H129896   6.155   6.213   4.538 -1.1457  0.5417  0.2979
 2827TIP3    H229897   6.177   6.357   4.579 -2.7061  1.0138 -0.4562
 2828TIP3   OH229898   2.544   1.072   2.826 -0.6185 -0.4081 -0.1115
 2828TIP3    H129899   2.631   1.032   2.835 -0.3169  0.1813 -0.3376
 2828TIP3    H229900   2.561   1.166   2.824 -1.2558 -0.2910 -0.2684
 2829TIP3   OH229901   3.902   1.646   5.961  0.1279 -0.3421 -0.0105
 2829TIP3    H129902   3.974   1.586   5.982 -1.0411 -2.0969 -0.7163
 2829TIP3    H229903   3.843   1.639   6.036  0.4883  0.7715  0.3828
 2830TIP3   OH229904   5.093   2.599  11.443 -0.6296  0.5145  0.4065
 2830TIP3    H129905   5.059   2.515  11.474  0.1065  0.2936  0.6367
 2830TIP3    H229906   5.018   2.643  11.403 -0.8378 -0.6154 -0.4903
 2831TIP3   OH229907   4.747   4.442   6.217 -0.5192  0.1148  0.2411
 2831TIP3    H129908   4.839   4.453   6.193 -0.4797  1.6535  0.9148
 2831TIP3    H229909   4.749   4.434   6.313 -0.9207 -2.4730  0.0989
 2832TIP3   OH229910   1.353   3.034  16.354  0.6414 -0.1598  0.3328
 2832TIP3    H129911   1.372   2.960  16.296  0.1152  0.4534 -0.6683
 2832TIP3    H229912   1.278   3.005  16.406  1.4359 -0.9078  1.0870
 2833TIP3   OH229913   5.885   0.978   4.113 -0.0440 -0.1413 -0.1418
 2833TIP3    H129914   5.808   1.015   4.156 -0.0610  0.8597 -0.9947
 2833TIP3    H229915   5.953   0.981   4.180 -0.2050  0.9042 -0.0073
 2834TIP3   OH229916   3.596   4.228  12.732 -0.2403 -0.1758 -0.0458
 2834TIP3    H129917   3.524   4.219  12.795 -0.4011  0.0343 -0.1983
 2834TIP3    H229918   3.562   4.288  12.666  0.0510 -0.1350 -0.1574
 2835TIP3   OH229919   2.489   0.962   3.970  0.5430  0.0771  0.2071
 2835TIP3    H129920   2.545   1.030   4.008  0.6040 -0.8309  1.8083
 2835TIP3    H229921   2.544   0.884   3.967 -0.0895 -0.3737  0.1250
 2836TIP3   OH229922   4.703   5.623  11.037  0.1397  0.3268  0.0660
 2836TIP3    H129923   4.786   5.661  11.006 -0.5476 -1.0216 -3.9354
 2836TIP3    H229924   4.657   5.697  11.077  2.2833  1.6531  0.2802
 2837TIP3   OH229925   6.737   0.594  15.372  0.7834  0.1721 -0.1473
 2837TIP3    H129926   6.650   0.621  15.403  0.9435  0.1995  0.2760
 2837TIP3    H229927   6.721   0.510  15.328  0.7870 -0.6797  1.3993
 2838TIP3   OH229928   4.078   2.438  11.788 -0.1202 -0.1486 -0.0357
 2838TIP3    H129929   4.045   2.434  11.877 -0.3867  0.6511 -0.0953
 2838TIP3    H229930   4.170   2.411  11.795 -0.5855 -1.8133  0.2167
 2839TIP3   OH229931   1.338   1.330  12.403  0.0532  0.0748  0.5423
 2839TIP3    H129932   1.319   1.400  12.342  0.5569 -1.4982 -1.5374
 2839TIP3    H229933   1.387   1.372  12.473 -1.5874  2.1631  0.5444
 2840TIP3   OH229934   1.978   6.257   2.573  0.0690 -0.4514 -0.4076
 2840TIP3    H129935   1.959   6.332   2.631  1.6489 -0.9037  0.7501
 2840TIP3    H229936   2.064   6.277   2.536 -0.3815 -0.7707 -1.6564
 2841TIP3   OH229937   1.046   5.756  16.148  0.1557 -0.1802  0.0965
 2841TIP3    H129938   1.013   5.726  16.064  0.0505 -0.7067  0.3276
 2841TIP3    H229939   0.978   5.815  16.181  0.5852  0.7309 -0.5802
 2842TIP3   OH229940   6.048   6.452   1.131  0.9021 -0.0030  0.2523
 2842TIP3    H129941   6.057   6.385   1.198  0.6672  1.1679  1.4924
 2842TIP3    H229942   5.983   6.513   1.166 -0.6644 -0.3206 -1.8698
 2843TIP3   OH229943   5.929   1.146  15.044  1.0383 -0.2176  0.4229
 2843TIP3    H129944   5.884   1.075  14.999 -0.4858 -1.7095  3.9392
 2843TIP3    H229945   5.927   1.219  14.982  2.1552 -2.9172 -3.1595
 2844TIP3   OH229946   1.722   3.240  14.337 -0.3226 -0.0669 -0.2675
 2844TIP3    H129947   1.667   3.313  14.309 -3.0837 -1.9057 -0.0384
 2844TIP3    H229948   1.712   3.175  14.267  0.8578 -0.8348  0.2516
 2845TIP3   OH229949   6.269   6.092  13.799  0.5901  0.0561  0.7845
 2845TIP3    H129950   6.320   6.016  13.826  1.0873  0.5651  1.3088
 2845TIP3    H229951   6.220   6.062  13.723 -0.6149 -1.3286  2.0526
 2846TIP3   OH229952   2.880   0.687  16.759  0.1040 -0.0914 -0.2670
 2846TIP3    H129953   2.868   0.672  16.665 -0.5131  0.8847 -0.3520
 2846TIP3    H229954   2.961   0.640  16.780  0.2677 -0.2977 -1.2893
 2847TIP3   OH229955   6.060   2.393   5.387 -0.6286  0.1553 -0.0286
 2847TIP3    H129956   5.995   2.398   5.318  0.4577 -1.5400 -1.2341
 2847TIP3    H229957   6.066   2.300   5.409 -0.2474  0.5416  1.6855
 2848TIP3   OH229958   4.434   2.146   5.555 -0.1772 -0.2774 -0.1943
 2848TIP3    H129959   4.356   2.140   5.610 -0.4506  2.2061 -0.2069
 2848TIP3    H229960   4.490   2.210   5.599 -0.2206  1.4718 -2.5026
 2849TIP3   OH229961   1.073   2.558  12.193  0.2216 -0.4657  0.4242
 2849TIP3    H129962   1.077   2.505  12.113  2.4341 -1.3694  1.0602
 2849TIP3    H229963   1.099   2.646  12.165 -0.9422 -0.2812 -0.1627
 2850TIP3   OH229964   0.748   4.087  16.956  0.5322  0.1602  0.0315
 2850TIP3    H129965   0.751   4.083  17.052  2.6291  1.1405  0.0445
 2850TIP3    H229966   0.740   3.995  16.929 -0.0211 -0.1321  1.1360
 2851TIP3   OH229967   2.319   3.243   4.284 -0.1037 -0.0531  0.0664
 2851TIP3    H129968   2.398   3.293   4.260 -0.0555  0.4661  1.2696
 2851TIP3    H229969   2.329   3.226   4.377 -0.3158 -2.0100 -0.2349
 2852TIP3   OH229970   6.120   0.744  11.396 -0.0106 -0.4825 -0.1192
 2852TIP3    H129971   6.125   0.695  11.314 -1.1345 -2.2404  0.7857
 2852TIP3    H229972   6.042   0.799  11.386  0.7332  0.4903 -0.7839
 2853TIP3   OH229973   5.250   5.787  12.627 -0.3615 -0.0350  0.3601
 2853TIP3    H129974   5.198   5.818  12.701 -1.4080 -1.2225  0.1446
 2853TIP3    H229975   5.327   5.746  12.668 -0.3635  0.3267  0.7355
 2854TIP3   OH229976   0.621   1.272  11.393 -0.1311 -0.0163  0.4081
 2854TIP3    H129977   0.707   1.307  11.415 -0.2945  0.9591 -0.4642
 2854TIP3    H229978   0.591   1.230  11.474  0.1345  1.7400  1.4724
 2855TIP3   OH229979   1.705   5.362   0.233  0.8821 -0.1501 -0.4287
 2855TIP3    H129980   1.679   5.453   0.216 -0.6421 -0.3907  0.4300
 2855TIP3    H229981   1.712   5.357   0.328 -0.2868 -1.2297 -0.3716
 2856TIP3   OH229982   3.933   1.856   3.713  0.1687  0.0223  0.0861
 2856TIP3    H129983   3.853   1.856   3.765 -0.3014  1.5574 -0.5888
 2856TIP3    H229984   3.961   1.765   3.713 -0.8914 -0.3424  1.3631
 2857TIP3   OH229985   0.578   3.686   3.494 -0.4270 -0.2896 -0.2317
 2857TIP3    H129986   0.601   3.747   3.564  1.0082 -1.4307  0.3378
 2857TIP3    H229987   0.490   3.713   3.467 -0.0557  1.6944  0.3356
 2858TIP3   OH229988   4.815   4.330   1.549 -0.0264 -0.1259  0.0335
 2858TIP3    H129989   4.830   4.285   1.465  0.7215 -0.0645  0.1208
 2858TIP3    H229990   4.825   4.423   1.528  1.9725 -0.1906  0.5066
 2859TIP3   OH229991   0.820   2.201   6.240 -0.5481 -0.4426 -0.2962
 2859TIP3    H129992   0.867   2.265   6.186 -0.2556  0.1811  0.6642
 2859TIP3    H229993   0.787   2.253   6.314  0.5519 -1.5576  1.0328
 2860TIP3   OH229994   0.802   4.081  12.419  0.2490  0.4187  0.1216
 2860TIP3    H129995   0.894   4.086  12.445  0.4277  0.8397 -0.5568
 2860TIP3    H229996   0.800   4.014  12.351 -0.5214 -2.0137  2.3909
 2861TIP3   OH229997   4.501   0.520   0.994  0.0807  0.4091  0.5302
 2861TIP3    H129998   4.530   0.453   0.932 -1.7583  0.6938 -0.7167
 2861TIP3    H229999   4.548   0.500   1.075 -0.4526 -2.4532  0.2420
 2862TIP3   OH230000   6.708   4.617  11.886  0.4721 -0.4761  0.6855
 2862TIP3    H130001   6.653   4.553  11.841 -0.6797  0.7595  0.2320
 2862TIP3    H230002   6.718   4.582  11.975 -0.8493 -0.8832  0.7049
 2863TIP3   OH230003   2.573   4.810  11.319  0.3392 -0.1440  0.2036
 2863TIP3    H130004   2.556   4.787  11.227  0.1373 -0.5577  0.3409
 2863TIP3    H230005   2.529   4.895  11.330 -0.1326 -0.3626  0.0676
 2864TIP3   OH230006   0.138   6.343   0.296  0.4898 -0.1560  0.3558
 2864TIP3    H130007   0.164   6.427   0.334  0.9289  0.3679 -1.0544
 2864TIP3    H230008   0.171   6.278   0.357  0.7355  0.6667  1.1275
 2865TIP3   OH230009   2.431   2.483  10.872  0.3129 -0.1026 -0.4502
 2865TIP3    H130010   2.462   2.408  10.923  0.3739 -0.4891 -1.0356
 2865TIP3    H230011   2.492   2.553  10.893  0.4585 -0.3154 -0.1499
 2866TIP3   OH230012   0.026   3.027   4.027  0.3844  0.0431 -0.4930
 2866TIP3    H130013  -0.009   3.110   4.061 -0.9974 -1.3886  1.8632
 2866TIP3    H230014  -0.051   2.983   3.990  1.1185 -0.1986 -1.7687
 2867TIP3   OH230015   2.060   3.178  12.758  0.3659 -0.1901 -0.1542
 2867TIP3    H130016   1.991   3.137  12.706 -0.5637 -0.1509  1.0175
 2867TIP3    H230017   2.014   3.220  12.830  1.6171 -0.0630  0.5952
 2868TIP3   OH230018   6.115   3.669  15.100 -0.3951  0.5004  0.1072
 2868TIP3    H130019   6.150   3.677  15.011  0.1014 -0.2197  0.2311
 2868TIP3    H230020   6.182   3.707  15.156 -1.0004  1.5787  0.1357
 2869TIP3   OH230021   3.308   3.962   0.791 -0.2374  0.0024 -0.2765
 2869TIP3    H130022   3.369   3.909   0.842  1.6521  1.1598 -1.1957
 2869TIP3    H230023   3.267   3.900   0.731 -2.0473 -1.2608  2.1101
 2870TIP3   OH230024   3.487   0.872  15.802 -0.2420 -0.3924  0.4461
 2870TIP3    H130025   3.463   0.812  15.873 -0.7537  0.7088  1.2471
 2870TIP3    H230026   3.406   0.920  15.784  0.3720  0.6823  0.4812
 2871TIP3   OH230027   0.957   0.849   1.615  0.4870  0.1311 -0.4455
 2871TIP3    H130028   0.990   0.810   1.696  1.7755  1.1717 -0.4359
 2871TIP3    H230029   1.008   0.929   1.604 -0.3941  0.5561 -1.7419
 2872TIP3   OH230030   1.296   0.376   1.264 -0.7753  0.2145  0.1203
 2872TIP3    H130031   1.350   0.298   1.255 -1.1026  0.0025  0.0018
 2872TIP3    H230032   1.313   0.407   1.353 -0.7753 -0.0810  0.2229
 2873TIP3   OH230033   2.211   3.556  17.140  0.5292 -0.0233 -0.0830
 2873TIP3    H130034   2.147   3.538  17.208  0.3549  0.0604 -0.2232
 2873TIP3    H230035   2.159   3.569  17.060  0.6890  0.4406 -0.1160
 2874TIP3   OH230036   4.223   4.920  15.833  0.0044 -0.0133 -0.0397
 2874TIP3    H130037   4.226   4.973  15.913 -2.2325  2.0297 -1.1864
 2874TIP3    H230038   4.280   4.966  15.772 -0.5221  0.0309 -0.4961
 2875TIP3   OH230039   2.195   6.154  14.876 -0.0391 -0.0191  0.0089
 2875TIP3    H130040   2.266   6.158  14.940  0.0682 -1.3141 -0.0149
 2875TIP3    H230041   2.221   6.215  14.807  0.3897  0.5268  0.6439
 2876TIP3   OH230042   5.826   6.272  12.590  0.7029  0.4012  0.3386
 2876TIP3    H130043   5.906   6.271  12.642  0.2503 -0.7806  1.0467
 2876TIP3    H230044   5.849   6.228  12.509  0.5210 -0.8556  0.9526
 2877TIP3   OH230045   6.405   2.834  12.312  0.2102 -0.2617  0.5230
 2877TIP3    H130046   6.501   2.841  12.320  0.2650 -1.5177  1.3149
 2877TIP3    H230047   6.389   2.740  12.306 -0.9683 -0.0419  0.1211
 2878TIP3   OH230048   3.602   4.189   3.614 -0.2967 -0.1129  0.2013
 2878TIP3    H130049   3.547   4.245   3.559 -0.4157  3.0002  3.1671
 2878TIP3    H230050   3.690   4.199   3.578 -0.5288  0.9834 -0.0957
 2879TIP3   OH230051   0.672   5.828   5.412  0.7911 -0.1234 -0.2576
 2879TIP3    H130052   0.596   5.875   5.378  1.3152  2.6399  1.9421
 2879TIP3    H230053   0.745   5.856   5.356  0.7672  0.1560 -0.1518
 2880TIP3   OH230054   4.728   0.655  14.287  0.2744 -0.3088 -0.3335
 2880TIP3    H130055   4.652   0.654  14.230  0.9179 -2.4353 -1.2395
 2880TIP3    H230056   4.801   0.680  14.230  0.5372  0.0167  0.1343
 2881TIP3   OH230057   5.895   5.178   3.600 -0.1800  0.4670  0.5115
 2881TIP3    H130058   5.858   5.135   3.677  0.4043  0.9269  1.0509
 2881TIP3    H230059   5.929   5.261   3.632  0.4036  0.5048 -0.1708
 2882TIP3   OH230060   1.990   5.793  11.492  0.1188 -0.3605  0.0326
 2882TIP3    H130061   1.899   5.788  11.461  0.0752 -0.2274  0.1342
 2882TIP3    H230062   2.013   5.885  11.483  0.7880 -0.6562 -1.4923
 2883TIP3   OH230063   0.998   3.305  12.331 -0.3386 -0.2683  0.0957
 2883TIP3    H130064   0.906   3.328  12.322 -0.3449 -0.2105  0.2847
 2883TIP3    H230065   0.999   3.236  12.398 -0.0258  1.4777  1.9996
 2884TIP3   OH230066   5.401   1.540  16.397  0.1766 -0.5495  0.2481
 2884TIP3    H130067   5.467   1.555  16.329  0.6858 -1.7576  0.4422
 2884TIP3    H230068   5.358   1.625  16.408  0.8145 -0.0645 -0.8103
 2885TIP3   OH230069   0.461   1.706   3.930 -0.1677 -0.5948  0.5744
 2885TIP3    H130070   0.537   1.738   3.882 -0.1011 -0.2909  0.8798
 2885TIP3    H230071   0.424   1.784   3.971 -1.1127 -0.6026 -0.2267
 2886TIP3   OH230072   3.990   4.142  15.427 -0.5651 -0.1844  0.1304
 2886TIP3    H130073   3.945   4.089  15.493  2.7964 -0.8238  2.1189
 2886TIP3    H230074   4.076   4.160  15.465  0.5658  1.7730 -2.9966
 2887TIP3   OH230075   0.545   0.075   0.254 -0.4194  0.2002  0.1139
 2887TIP3    H130076   0.579  -0.003   0.298  0.5524  0.2442 -0.5424
 2887TIP3    H230077   0.508   0.042   0.172  0.4113  0.4686 -0.3836
 2888TIP3   OH230078   3.891   3.572   5.846  0.2259 -0.0240 -0.2178
 2888TIP3    H130079   3.930   3.485   5.837  1.4428  0.5566 -0.7193
 2888TIP3    H230080   3.805   3.563   5.804 -0.3704 -1.4108  1.2077
 2889TIP3   OH230081   1.672   2.600   3.577 -0.2859 -0.0730 -0.2904
 2889TIP3    H130082   1.746   2.608   3.516 -0.2310  0.4158 -0.1664
 2889TIP3    H230083   1.703   2.537   3.643 -0.7241 -1.3946 -1.2973
 2890TIP3   OH230084   3.442   4.761   1.524  0.1093  0.2745  0.4004
 2890TIP3    H130085   3.502   4.692   1.494 -1.2209 -0.4781 -0.6321
 2890TIP3    H230086   3.430   4.818   1.448 -1.3810 -0.2573  0.2031
 2891TIP3   OH230087   2.539   4.562   0.816 -0.8302  0.1532 -0.1937
 2891TIP3    H130088   2.474   4.613   0.865 -2.6148 -1.3323 -0.9168
 2891TIP3    H230089   2.523   4.471   0.842  1.9817 -0.1856  0.7367
 2892TIP3   OH230090   6.217   2.851   1.214 -0.2685 -0.4191 -0.0248
 2892TIP3    H130091   6.127   2.844   1.182 -0.2057 -0.3771 -0.2097
 2892TIP3    H230092   6.237   2.944   1.210 -0.1695 -0.4436 -0.1163
 2893TIP3   OH230093   2.031   0.904   2.234  0.0741  0.1914  0.3530
 2893TIP3    H130094   2.080   0.823   2.246 -0.1689 -0.1032 -0.6375
 2893TIP3    H230095   1.940   0.881   2.255 -0.4502 -0.4557 -2.3332
 2894TIP3   OH230096   1.799   3.569  13.800  0.0390  0.2080  0.1378
 2894TIP3    H130097   1.766   3.481  13.782 -0.4668  0.5366 -0.5956
 2894TIP3    H230098   1.893   3.562  13.785  0.4785 -0.8647  2.7692
 2895TIP3   OH230099   2.463   4.994  16.954  0.1994 -0.1209  0.3346
 2895TIP3    H130100   2.400   4.959  16.891  0.5823  1.0636 -0.7463
 2895TIP3    H230101   2.409   5.040  17.018 -0.1019 -0.0686  0.0459
 2896TIP3   OH230102   1.183   6.627   1.852  0.1985 -0.1977 -1.1272
 2896TIP3    H130103   1.276   6.606   1.857 -0.1182 -1.4009  0.9445
 2896TIP3    H230104   1.142   6.545   1.824 -0.4717 -0.5962  0.8650
 2897TIP3   OH230105   6.669   6.268   2.154  0.0516  0.2384  0.1036
 2897TIP3    H130106   6.642   6.288   2.064  0.6753  1.4687  0.1696
 2897TIP3    H230107   6.655   6.350   2.202  2.6870  0.5704  0.4221
 2898TIP3   OH230108   4.875   0.883  12.202  0.0525  1.2527 -0.7008
 2898TIP3    H130109   4.808   0.831  12.246  2.3047 -0.5833  0.7527
 2898TIP3    H230110   4.843   0.973  12.209 -1.8044  0.5607  0.7324
 2899TIP3   OH230111   3.295   3.824  10.524 -0.4290 -0.4385  0.0525
 2899TIP3    H130112   3.352   3.866  10.587 -1.3458 -0.0470  0.6355
 2899TIP3    H230113   3.351   3.761  10.478  0.4366 -0.1104  0.6565
 2900TIP3   OH230114   5.588   6.582  16.547  0.1154  0.2084  0.1442
 2900TIP3    H130115   5.540   6.588  16.463 -1.1087  1.6172  0.8965
 2900TIP3    H230116   5.679   6.599  16.524  0.1839 -1.6918 -1.2159
 2901TIP3   OH230117   0.149   4.496  11.178 -0.3998 -0.7622  0.3768
 2901TIP3    H130118   0.080   4.560  11.193 -1.7023 -2.1138  0.3182
 2901TIP3    H230119   0.141   4.472  11.086 -0.7997 -1.9782  0.7122
 2902TIP3   OH230120   4.668   1.823   1.893 -0.0881  0.4860  0.1834
 2902TIP3    H130121   4.616   1.743   1.900  0.0085  0.5313  2.2578
 2902TIP3    H230122   4.716   1.815   1.811 -2.7728  0.1008 -1.4543
 2903TIP3   OH230123   4.891   4.105   0.528  0.3432  0.0972  0.4264
 2903TIP3    H130124   4.836   4.160   0.584  0.1849  1.8684 -1.3502
 2903TIP3    H230125   4.882   4.017   0.565 -2.9188  0.4541  0.7938
 2904TIP3   OH230126   4.989   3.014   0.733  0.4247 -0.3423 -0.0368
 2904TIP3    H130127   4.950   2.966   0.660  1.5741 -0.3233 -0.6841
 2904TIP3    H230128   5.050   2.952   0.773 -0.3349 -0.4191  1.0521
 2905TIP3   OH230129   3.185   5.881   4.261 -0.1155  0.0968 -0.2098
 2905TIP3    H130130   3.119   5.834   4.311 -0.2270 -0.4424 -0.8375
 2905TIP3    H230131   3.232   5.812   4.213 -1.7949  0.7187 -2.9914
 2906TIP3   OH230132   3.532   4.736   3.853 -0.8492  0.2454 -0.4756
 2906TIP3    H130133   3.499   4.663   3.801  1.5922  0.1165 -2.0290
 2906TIP3    H230134   3.522   4.813   3.797  2.0259  0.0689 -1.4052
 2907TIP3   OH230135   1.926   0.164   3.691  0.3504  0.1555  0.0599
 2907TIP3    H130136   1.925   0.069   3.703 -1.0350  0.0814 -0.4556
 2907TIP3    H230137   1.997   0.195   3.747  1.0364 -1.2139 -0.0321
 2908TIP3   OH230138   1.493   1.652   3.483 -0.4594 -0.2351  0.1703
 2908TIP3    H130139   1.483   1.706   3.561  1.0783  0.3106  0.0208
 2908TIP3    H230140   1.461   1.707   3.411 -0.9260 -0.3635  0.2715
 2909TIP3   OH230141   3.593   1.308   1.555  0.2832  0.1615  0.5360
 2909TIP3    H130142   3.528   1.347   1.496 -0.8955  1.4066  2.5479
 2909TIP3    H230143   3.542   1.246   1.609  0.5513  1.6000  2.5583
 2910TIP3   OH230144   2.916   2.748  15.281 -0.0823  0.2921 -0.2217
 2910TIP3    H130145   2.991   2.730  15.337 -0.7536  1.2524  1.0582
 2910TIP3    H230146   2.936   2.706  15.198  1.3064 -0.5068  0.4942
 2911TIP3   OH230147   5.681   4.507  17.137  0.3884  0.4021  0.1934
 2911TIP3    H130148   5.666   4.435  17.199 -0.0261  1.1217  0.9544
 2911TIP3    H230149   5.762   4.548  17.167  0.8093  0.0512 -0.4473
 2912TIP3   OH230150   2.975   4.127  13.050 -0.0780 -0.1454  0.4501
 2912TIP3    H130151   2.943   4.211  13.019  0.0944 -0.7795 -1.5979
 2912TIP3    H230152   2.917   4.062  13.010  0.3157 -1.0369  1.2840
 2913TIP3   OH230153   3.971   5.185  15.879  0.2818  0.1058  0.1892
 2913TIP3    H130154   3.976   5.118  15.811 -1.7407 -0.0199  0.0819
 2913TIP3    H230155   3.909   5.149  15.943  0.2915  1.2500  0.8677
 2914TIP3   OH230156   4.839   4.920  16.651  0.3772 -0.6355  0.1246
 2914TIP3    H130157   4.808   4.830  16.645  0.0223 -0.6793  2.0457
 2914TIP3    H230158   4.760   4.973  16.643  0.4195 -0.5452  0.3089
 2915TIP3   OH230159   0.074   3.312   2.500  0.3408  0.7996  0.3001
 2915TIP3    H130160   0.129   3.233   2.493 -0.2070  0.3995  0.4436
 2915TIP3    H230161   0.004   3.287   2.560 -1.2403  0.5883 -1.5449
 2916TIP3   OH230162   4.755   0.504   5.563  0.0825 -0.9305 -0.0966
 2916TIP3    H130163   4.704   0.423   5.557 -1.7575  0.1738 -0.1943
 2916TIP3    H230164   4.820   0.486   5.630 -1.4004 -1.9402  1.1416
 2917TIP3   OH230165   6.597   1.061  12.568 -0.1345  0.1611 -0.2643
 2917TIP3    H130166   6.567   0.983  12.613  0.0002  0.2719  0.0209
 2917TIP3    H230167   6.522   1.089  12.515  0.0251 -0.5273 -0.8716
 2918TIP3   OH230168   1.166   4.963   4.797 -0.0137 -0.1832 -0.5345
 2918TIP3    H130169   1.120   5.009   4.727 -0.2846 -0.1065 -0.3118
 2918TIP3    H230170   1.095   4.924   4.850  0.2117 -1.0787 -0.8725
 2919TIP3   OH230171   2.136   6.068  15.938  0.3230 -0.2514  0.2066
 2919TIP3    H130172   2.196   6.075  16.012  1.3331  1.4826 -0.6943
 2919TIP3    H230173   2.176   6.003  15.881  1.3082  0.7655 -0.3035
 2920TIP3   OH230174   6.098   3.029  12.923 -0.1968  0.4718  0.2164
 2920TIP3    H130175   6.037   2.955  12.927  0.1219  0.0292 -2.0183
 2920TIP3    H230176   6.041   3.106  12.919 -0.7239  0.0326 -2.4385
 2921TIP3   OH230177   2.580   4.979  14.485  0.0461  0.1503  0.0483
 2921TIP3    H130178   2.543   5.047  14.429 -0.1372 -1.3220 -1.7332
 2921TIP3    H230179   2.543   4.996  14.572 -0.5974  1.8300 -0.5153
 2922TIP3   OH230180   2.346   2.909   1.626  0.0277  0.2439 -0.0957
 2922TIP3    H130181   2.251   2.907   1.637  0.0193 -0.8380 -0.2871
 2922TIP3    H230182   2.360   2.967   1.551 -0.4007  1.2875  0.6088
 2923TIP3   OH230183   3.907   5.024   2.361 -0.4381  0.6588  0.2722
 2923TIP3    H130184   3.874   5.101   2.315  3.7137  2.0549 -0.7522
 2923TIP3    H230185   3.900   4.953   2.297  0.0507  1.2768 -0.4745
 2924TIP3   OH230186   1.801   5.194  15.719  0.5378  0.1686  0.2641
 2924TIP3    H130187   1.740   5.261  15.749 -0.8788 -0.7887 -0.4051
 2924TIP3    H230188   1.818   5.216  15.627  2.8092  1.5677  0.9339
 2925TIP3   OH230189   2.182   5.067  16.738 -0.0012  0.4031 -0.3238
 2925TIP3    H130190   2.164   5.093  16.648  1.3471 -1.0278 -1.0613
 2925TIP3    H230191   2.251   5.127  16.767 -1.4931  1.8787  0.3576
 2926TIP3   OH230192   1.295   1.414   5.046  0.6599 -0.2920  0.6439
 2926TIP3    H130193   1.323   1.351   5.112  0.4232  2.3851  3.5503
 2926TIP3    H230194   1.374   1.466   5.028  0.6346 -0.7718 -1.0318
 2927TIP3   OH230195   2.831   6.287   5.588 -0.2875  0.0801  0.3178
 2927TIP3    H130196   2.917   6.291   5.545 -0.9222  1.5882 -0.8953
 2927TIP3    H230197   2.840   6.345   5.664 -0.6031  1.3833 -0.5956
 2928TIP3   OH230198   0.475   3.343  10.819 -0.0391  0.8171  0.3097
 2928TIP3    H130199   0.529   3.315  10.744  0.6365  0.6502  0.8455
 2928TIP3    H230200   0.522   3.311  10.896 -1.5103 -0.3554  0.7627
 2929TIP3   OH230201   0.620   4.883  11.304 -0.0167  0.1850 -0.0885
 2929TIP3    H130202   0.702   4.850  11.341 -0.7779 -0.8134  0.8206
 2929TIP3    H230203   0.563   4.893  11.380 -0.7073  0.9717 -0.6926
 2930TIP3   OH230204   1.586   2.322   2.050 -0.1220  0.1375  0.3652
 2930TIP3    H130205   1.540   2.272   1.982 -1.2133 -0.2190  1.3377
 2930TIP3    H230206   1.659   2.266   2.075  1.0777  0.8222 -1.3848
 2931TIP3   OH230207   4.703   1.982  12.192 -0.0607  0.1117 -0.0659
 2931TIP3    H130208   4.766   1.984  12.120 -0.2532 -1.1752 -0.2953
 2931TIP3    H230209   4.749   2.021  12.266  1.0522 -0.8636 -0.2155
 2932TIP3   OH230210   0.550   5.740  15.295 -0.0742  0.2282 -0.4638
 2932TIP3    H130211   0.521   5.722  15.384  0.5141  0.3678 -0.2441
 2932TIP3    H230212   0.589   5.827  15.299  1.8459 -0.5817 -0.3992
 2933TIP3   OH230213   5.903   3.505   2.574 -0.2686  0.1542  0.4633
 2933TIP3    H130214   5.964   3.570   2.609 -1.6112  0.8567  1.5686
 2933TIP3    H230215   5.846   3.554   2.516 -0.1046 -0.4115 -0.1904
 2934TIP3   OH230216   1.156   0.134   4.982  0.4112  0.1258 -0.2535
 2934TIP3    H130217   1.068   0.134   5.019 -0.0216 -0.2819 -1.2466
 2934TIP3    H230218   1.158   0.211   4.925 -0.2070 -1.2463 -2.2353
 2935TIP3   OH230219   4.418   1.024   6.507  0.3967 -0.3060  0.0414
 2935TIP3    H130220   4.397   0.961   6.577 -1.3968 -0.8008 -0.8730
 2935TIP3    H230221   4.336   1.072   6.493  1.0355  0.5190 -1.0068
 2936TIP3   OH230222   1.832   4.686   0.228  0.3239  0.3157 -0.0231
 2936TIP3    H130223   1.786   4.769   0.234  0.4682  0.4170 -0.2797
 2936TIP3    H230224   1.805   4.650   0.144  1.3737  0.7836 -0.5857
 2937TIP3   OH230225   2.148   4.631   2.843  0.0540  0.4064 -0.0581
 2937TIP3    H130226   2.191   4.703   2.797 -2.3270  1.3817 -0.9134
 2937TIP3    H230227   2.129   4.567   2.774 -2.0024  1.1102 -0.2022
 2938TIP3   OH230228   5.687   4.292   2.396  0.3513  0.0269 -0.3862
 2938TIP3    H130229   5.708   4.220   2.336  1.1543 -0.6747  0.6926
 2938TIP3    H230230   5.761   4.294   2.457 -0.5940  0.5031  0.7691
 2939TIP3   OH230231   0.672   1.982   6.236  0.5026 -0.1608 -0.0307
 2939TIP3    H130232   0.620   2.007   6.312 -0.3192 -1.1612 -0.2472
 2939TIP3    H230233   0.746   2.043   6.237  0.5133 -0.1487  1.5628
 2940TIP3   OH230234   4.200   1.766  14.769  0.3060 -0.1600 -0.0930
 2940TIP3    H130235   4.128   1.740  14.711  0.1009  0.6721 -0.2185
 2940TIP3    H230236   4.271   1.705  14.748 -0.0630 -0.4260 -0.5866
 2941TIP3   OH230237   4.355   2.504   3.395  0.1550  0.2591 -0.8928
 2941TIP3    H130238   4.311   2.421   3.410 -1.7233  1.5062  1.0235
 2941TIP3    H230239   4.449   2.482   3.401 -0.2928 -1.6331  0.1356
 2942TIP3   OH230240   2.792   2.406   5.568 -0.1160 -0.0254 -0.1004
 2942TIP3    H130241   2.804   2.375   5.479  2.4800  2.1929 -0.6156
 2942TIP3    H230242   2.705   2.374   5.592 -1.4380  0.2821 -3.8182
 2943TIP3   OH230243   4.334   0.333  12.486  0.3348 -0.5737  0.3221
 2943TIP3    H130244   4.327   0.398  12.417  0.6757 -0.4166  0.4313
 2943TIP3    H230245   4.246   0.295  12.493 -0.1094  0.5172  0.8841
 2944TIP3   OH230246   0.114   1.826  15.792 -0.6936 -0.0450  0.6688
 2944TIP3    H130247   0.119   1.819  15.887 -2.5739 -1.0921  0.7412
 2944TIP3    H230248   0.148   1.742  15.759  3.3521  1.5861  0.1606
 2945TIP3   OH230249   5.576   1.499  12.568 -0.5580  0.5308 -0.1042
 2945TIP3    H130250   5.635   1.482  12.641 -1.1923 -1.2904  0.0540
 2945TIP3    H230251   5.610   1.445  12.496 -0.9517  0.9194 -0.5938
 2946TIP3   OH230252   4.339   2.386  15.518 -0.6565 -0.1307  0.7236
 2946TIP3    H130253   4.346   2.408  15.611 -0.9399  3.0414  0.1056
 2946TIP3    H230254   4.429   2.371  15.490 -0.5114 -0.4935  1.3640
 2947TIP3   OH230255   0.279   5.174   4.717  0.1311 -0.1706 -0.0991
 2947TIP3    H130256   0.370   5.169   4.688 -0.2679 -1.5291 -1.2071
 2947TIP3    H230257   0.238   5.237   4.658  0.4030  0.7073  0.6197
 2948TIP3   OH230258   3.303   3.701   1.606 -0.4603  0.3685 -0.2650
 2948TIP3    H130259   3.262   3.705   1.520  1.1748 -1.7078 -1.2231
 2948TIP3    H230260   3.351   3.784   1.614 -2.5957  1.6601 -0.2350
 2949TIP3   OH230261   0.695   0.320  14.297  0.3454 -0.0964 -0.4212
 2949TIP3    H130262   0.681   0.388  14.362 -0.5739  0.9381 -1.6318
 2949TIP3    H230263   0.622   0.259  14.310  0.6896 -0.4057  0.1052
 2950TIP3   OH230264   4.197   1.296   4.523 -0.8314  0.6276 -0.2177
 2950TIP3    H130265   4.290   1.279   4.512 -0.6777  1.6473 -0.6515
 2950TIP3    H230266   4.171   1.242   4.598 -0.5659 -1.8665 -1.8141
 2951TIP3   OH230267   4.663   2.054   0.560 -0.0990  0.1632 -0.2593
 2951TIP3    H130268   4.633   2.054   0.470  0.4014 -0.1266 -0.4287
 2951TIP3    H230269   4.616   1.981   0.602  1.5792 -1.3676 -0.9416
 2952TIP3   OH230270   5.066   6.535   4.531  0.1178  0.0247  0.7139
 2952TIP3    H130271   5.158   6.517   4.551  0.7295  1.0106 -1.0326
 2952TIP3    H230272   5.058   6.520   4.437 -0.8766  2.3544  0.3535
 2953TIP3   OH230273   5.436   3.481   4.673  0.0253 -0.4285  0.1285
 2953TIP3    H130274   5.353   3.523   4.693  1.9996  2.6710  2.9103
 2953TIP3    H230275   5.442   3.408   4.735 -0.2837 -0.1539  0.4871
 2954TIP3   OH230276   3.634   5.959   2.791 -0.2158 -0.1099 -0.0134
 2954TIP3    H130277   3.664   5.916   2.711  2.4005  0.5885  0.4808
 2954TIP3    H230278   3.608   6.047   2.763 -0.5740 -0.3037 -0.2849
 2955TIP3   OH230279   3.043   5.553   3.837 -0.0944 -0.7368  0.2563
 2955TIP3    H130280   3.009   5.599   3.914  1.4499  0.1101  0.4649
 2955TIP3    H230281   3.070   5.623   3.777  1.3559 -1.3643  0.1394
 2956TIP3   OH230282   1.754   1.490  15.657 -0.1027  0.0233 -0.3421
 2956TIP3    H130283   1.845   1.505  15.683  0.1715 -0.4985 -0.9810
 2956TIP3    H230284   1.758   1.471  15.564 -0.7845 -0.7148 -0.2330
 2957TIP3   OH230285   0.072   3.393   4.779  0.2531 -0.5780  0.2409
 2957TIP3    H130286  -0.013   3.426   4.808  0.2132 -2.5500  2.7264
 2957TIP3    H230287   0.128   3.400   4.856  2.2029  0.0110 -1.1390
 2958TIP3   OH230288   5.192   3.947   0.681  0.0503 -0.4198 -0.6009
 2958TIP3    H130289   5.117   3.994   0.644 -0.6246  0.1684  1.4083
 2958TIP3    H230290   5.268   3.999   0.655 -0.4415  0.2087 -0.8085
 2959TIP3   OH230291   3.942   3.072   1.045  0.2397  0.6094  0.4339
 2959TIP3    H130292   3.982   3.018   0.976 -0.0664  0.6053  0.2545
 2959TIP3    H230293   3.989   3.048   1.125 -0.1474 -0.2148  0.4267
 2960TIP3   OH230294   2.174   0.568  14.459 -0.3509 -0.8769  0.5852
 2960TIP3    H130295   2.092   0.527  14.432  0.6554 -0.7662 -3.0882
 2960TIP3    H230296   2.152   0.660  14.471 -0.7923 -0.8382 -0.4069
 2961TIP3   OH230297   4.835   0.047   5.773  0.3261 -0.4826 -0.0904
 2961TIP3    H130298   4.839  -0.046   5.797  1.7843 -0.5769 -0.6052
 2961TIP3    H230299   4.817   0.092   5.856 -1.3573 -1.2655  0.0128
 2962TIP3   OH230300   3.463   6.722   3.676 -0.0917 -0.1957  0.1442
 2962TIP3    H130301   3.450   6.816   3.663  1.6624 -0.0616 -1.0080
 2962TIP3    H230302   3.517   6.715   3.754  0.1106 -0.2229  0.0018
 2963TIP3   OH230303   4.343   4.449  13.807 -0.0005 -0.0585  0.6082
 2963TIP3    H130304   4.388   4.424  13.888  0.7671  1.6151  0.7365
 2963TIP3    H230305   4.349   4.545  13.804  0.4166 -0.0981 -1.6683
 2964TIP3   OH230306   6.258   5.951  16.601 -0.0426 -0.4399  0.0662
 2964TIP3    H130307   6.239   6.032  16.647 -0.1134  0.4887 -1.5147
 2964TIP3    H230308   6.353   5.947  16.596 -0.0526  0.2517 -0.9910
 2965TIP3   OH230309   3.309   1.527   2.088  0.3293 -0.5662 -0.4227
 2965TIP3    H130310   3.295   1.613   2.048  1.5965 -0.5138 -0.7751
 2965TIP3    H230311   3.397   1.530   2.124  1.4176 -2.5396 -2.6497
 2966TIP3   OH230312   1.621   2.721   6.137  0.3833  0.3655  0.0615
 2966TIP3    H130313   1.696   2.692   6.189 -0.3716  0.0265  0.9961
 2966TIP3    H230314   1.657   2.785   6.076  1.3195  0.7259  0.9649
 2967TIP3   OH230315   2.737   1.176  16.752  0.2664  0.2082  0.5328
 2967TIP3    H130316   2.726   1.216  16.839 -1.4143 -0.9396  0.9086
 2967TIP3    H230317   2.816   1.124  16.760  0.0237 -0.0489  1.4714
 2968TIP3   OH230318   4.429   2.056  14.576  0.1392  0.0268 -0.0937
 2968TIP3    H130319   4.395   2.079  14.489 -1.5490 -1.8501  0.0026
 2968TIP3    H230320   4.499   2.119  14.592 -0.4688  1.3287 -2.1994
 2969TIP3   OH230321   1.318   3.289   3.208  0.8645  0.3687 -0.2223
 2969TIP3    H130322   1.399   3.297   3.256  1.4268 -0.4531 -0.9901
 2969TIP3    H230323   1.345   3.283   3.116 -0.0078 -0.5161 -0.4419
 2970TIP3   OH230324   4.676   5.711  17.129 -0.5519  0.3148 -0.4371
 2970TIP3    H130325   4.610   5.680  17.066 -0.7272 -0.2178  0.0050
 2970TIP3    H230326   4.639   5.690  17.215  0.7154 -1.0968 -0.2035
 2971TIP3   OH230327   6.290   6.412  14.460 -0.0574  0.1030 -0.1480
 2971TIP3    H130328   6.291   6.488  14.518 -0.3723  0.0355 -0.0533
 2971TIP3    H230329   6.357   6.431  14.395 -1.2520  1.2156 -1.0929
 2972TIP3   OH230330   4.735   4.945  15.310 -0.2891  0.0130 -0.1489
 2972TIP3    H130331   4.741   5.037  15.334  1.8321  0.0778 -0.7181
 2972TIP3    H230332   4.689   4.904  15.384 -2.3300  1.6439 -0.4028
 2973TIP3   OH230333   1.671   2.891   6.466  0.0354  0.3703  0.2797
 2973TIP3    H130334   1.713   2.907   6.551  0.7325  1.3671 -0.2289
 2973TIP3    H230335   1.717   2.815   6.431  1.6891  1.6034 -0.3909
 2974TIP3   OH230336   6.074   4.075  15.242  0.0528  0.1872  0.4782
 2974TIP3    H130337   6.041   4.151  15.194 -0.7187  0.0561  0.7930
 2974TIP3    H230338   6.074   4.103  15.334  3.0211  1.0131  0.3475
 2975TIP3   OH230339   4.372   6.229  14.137  0.3509 -0.5187 -0.1790
 2975TIP3    H130340   4.305   6.288  14.171 -0.3399  0.0169 -2.3289
 2975TIP3    H230341   4.449   6.246  14.192  0.0533  2.1058 -0.4712
 2976TIP3   OH230342   5.638   5.826   3.909 -0.7746  0.3881 -0.2888
 2976TIP3    H130343   5.649   5.739   3.947 -0.0910  0.3400 -0.5878
 2976TIP3    H230344   5.718   5.841   3.859 -0.7213  1.3447  0.0656
 2977TIP3   OH230345   3.690   2.744   6.176 -0.1067 -0.8237 -0.3429
 2977TIP3    H130346   3.603   2.704   6.181 -1.0850  1.0096 -1.6697
 2977TIP3    H230347   3.673   2.838   6.176  1.8405 -0.4346 -1.2654
 2978TIP3   OH230348   4.765   3.716  11.666 -0.1614  0.4244  0.4563
 2978TIP3    H130349   4.768   3.669  11.749 -0.0173 -0.2061  0.1046
 2978TIP3    H230350   4.729   3.802  11.688  0.2483  0.4070  1.2319
 2979TIP3   OH230351   6.732   0.915  15.273  0.6167 -0.1111 -0.4448
 2979TIP3    H130352   6.693   0.894  15.188  0.0975 -0.4539 -0.1288
 2979TIP3    H230353   6.705   0.843  15.330 -1.9023  1.7320  0.9066
 2980TIP3   OH230354   4.296   3.577   6.745 -0.2441 -0.1800 -0.0442
 2980TIP3    H130355   4.370   3.527   6.712 -1.6326 -0.9684 -2.1905
 2980TIP3    H230356   4.329   3.666   6.755  1.4427 -0.8734  0.8350
 2981TIP3   OH230357   2.595   0.565  14.779 -0.0396  0.4100 -0.2074
 2981TIP3    H130358   2.600   0.625  14.705 -1.2761  0.1962 -0.4954
 2981TIP3    H230359   2.535   0.608  14.841 -1.5005 -0.7770 -0.7173
 2982TIP3   OH230360   6.527   3.881   0.436 -0.4238 -0.0844  0.2987
 2982TIP3    H130361   6.456   3.818   0.423  0.3960 -0.8039 -0.7834
 2982TIP3    H230362   6.490   3.965   0.408 -0.9421 -0.4041  0.0158
 2983TIP3   OH230363   1.482   2.850   0.611  0.2489  0.0815  1.0787
 2983TIP3    H130364   1.392   2.869   0.637  0.4594  1.1196  1.1176
 2983TIP3    H230365   1.490   2.890   0.524  0.2034 -1.4184  0.3678
 2984TIP3   OH230366   0.088   5.859   4.194  0.4215  0.2272 -0.6969
 2984TIP3    H130367   0.004   5.822   4.221 -0.4919  2.1791 -0.6936
 2984TIP3    H230368   0.138   5.784   4.162 -1.9932 -0.7667 -2.4324
 2985TIP3   OH230369   0.073   1.032  11.545  0.3218 -0.3035  0.1103
 2985TIP3    H130370   0.040   1.083  11.620  1.6130  0.1836  0.3756
 2985TIP3    H230371   0.073   1.094  11.472 -0.2843 -0.5830 -0.1298
 2986TIP3   OH230372   2.639   1.151  12.493  0.1466 -0.0848 -0.6897
 2986TIP3    H130373   2.683   1.092  12.432 -0.8413 -0.2708 -1.2474
 2986TIP3    H230374   2.593   1.094  12.554  1.9606  0.0737  0.9342
 2987TIP3   OH230375   4.864   3.961   1.917 -0.0497 -0.0952  0.0072
 2987TIP3    H130376   4.941   3.948   1.972 -1.7818 -1.2668  2.3693
 2987TIP3    H230377   4.840   3.874   1.888 -1.2120  0.0753  0.4045
 2988TIP3   OH230378   3.951   2.854  14.781  0.0285  0.0103 -0.0379
 2988TIP3    H130379   3.868   2.853  14.829 -0.4000  0.4448 -0.7329
 2988TIP3    H230380   3.995   2.773  14.805 -0.7598 -0.3901  0.0831
 2989TIP3   OH230381   0.057   3.582  13.455  0.0744  0.2262 -0.1129
 2989TIP3    H130382   0.103   3.511  13.409 -1.1145 -0.4167 -0.3350
 2989TIP3    H230383  -0.034   3.554  13.458 -0.7855  2.4944 -1.7417
 2990TIP3   OH230384   1.037   0.826   5.907 -0.1753  0.1393 -0.1769
 2990TIP3    H130385   1.065   0.778   5.985 -0.8906 -0.3812 -0.2258
 2990TIP3    H230386   1.038   0.918   5.934 -2.2019 -0.1386  1.0788
 2991TIP3   OH230387   2.553   0.362  15.826 -0.3394 -0.2602  0.0246
 2991TIP3    H130388   2.620   0.308  15.869  0.2097  0.9943  0.7996
 2991TIP3    H230389   2.582   0.366  15.735 -0.7663 -1.7992 -0.2199
 2992TIP3   OH230390   5.759   6.246  13.950  0.2970  0.0783 -0.2882
 2992TIP3    H130391   5.704   6.237  13.872 -1.3565  2.2201  0.5240
 2992TIP3    H230392   5.830   6.303  13.922  0.5955 -0.4425 -0.6157
 2993TIP3   OH230393   4.930   5.073   1.613 -0.4591  0.1731  0.1052
 2993TIP3    H130394   4.988   5.050   1.540 -0.5675 -0.4973  0.2218
 2993TIP3    H230395   4.866   5.002   1.616 -2.1100  1.5668 -0.8603
 2994TIP3   OH230396   6.078   5.398  16.162  0.2248  0.2212  0.1643
 2994TIP3    H130397   6.038   5.399  16.249  1.4204  1.7169  0.7446
 2994TIP3    H230398   6.010   5.362  16.105 -0.3577 -1.4596  1.7958
 2995TIP3   OH230399   2.341   6.418   2.242  0.0600  0.4071 -0.4552
 2995TIP3    H130400   2.351   6.477   2.168  0.8519  1.5693  0.5462
 2995TIP3    H230401   2.370   6.333   2.209 -1.5549  0.4118 -2.0565
 2996TIP3   OH230402   1.248   4.569  11.913  0.3682  0.6678  0.5232
 2996TIP3    H130403   1.173   4.607  11.866 -0.3958 -0.5375  0.7442
 2996TIP3    H230404   1.275   4.495  11.860  1.6067  1.2482  0.3042
 2997TIP3   OH230405   4.626   3.607   2.149 -0.1454  0.0902  0.2578
 2997TIP3    H130406   4.646   3.513   2.154  0.5697  0.2113 -0.1721
 2997TIP3    H230407   4.710   3.648   2.129 -0.1237  0.9965  2.0877
 2998TIP3   OH230408   1.983   0.075   0.334 -0.0156  0.2644  0.1015
 2998TIP3    H130409   2.043   0.050   0.264  0.3374  0.6602  0.2587
 2998TIP3    H230410   1.896   0.069   0.295 -0.0592 -2.2069  0.4215
 2999TIP3   OH230411   6.373   1.975   2.639  0.7211  0.1208  0.1507
 2999TIP3    H130412   6.341   2.066   2.637 -3.7223 -1.2053 -0.3029
 2999TIP3    H230413   6.422   1.969   2.721  3.0018  3.3219 -0.7734
 3000TIP3   OH230414   5.593   2.007   4.148  0.0320 -0.2477 -0.7933
 3000TIP3    H130415   5.506   1.970   4.161  0.7596 -1.7315  0.0705
 3000TIP3    H230416   5.653   1.932   4.154  1.3452  0.6606 -1.8269
 3001TIP3   OH230417   0.527   1.327  14.765  0.4317 -0.4552  0.0545
 3001TIP3    H130418   0.601   1.340  14.825  0.3704  0.8337 -0.1169
 3001TIP3    H230419   0.531   1.235  14.741  1.3981 -0.6255  0.8165
 3002TIP3   OH230420   5.498   6.301  12.203  0.0836 -0.0085 -0.5300
 3002TIP3    H130421   5.569   6.279  12.143 -0.2326 -1.3005 -0.4688
 3002TIP3    H230422   5.495   6.396  12.204  0.6652  0.0389 -1.8825
 3003TIP3   OH230423   6.062   1.899   4.311  0.2004  0.7810  0.0334
 3003TIP3    H130424   6.111   1.894   4.229 -0.2440 -0.0738 -0.1914
 3003TIP3    H230425   5.995   1.832   4.303 -0.6607  1.5610  0.5755
 3004TIP3   OH230426   0.572   4.793  15.387  0.1498  0.1088  0.1132
 3004TIP3    H130427   0.513   4.717  15.390 -0.6101  0.6249 -1.2132
 3004TIP3    H230428   0.516   4.867  15.368  1.1322  0.7325 -0.4445
 3005TIP3   OH230429   5.913   4.859  15.552  0.6060  0.0559  0.3636
 3005TIP3    H130430   5.919   4.775  15.506 -2.1292  0.7466 -1.4260
 3005TIP3    H230431   5.905   4.925  15.483 -0.0756  1.4996  1.7561
 3006TIP3   OH230432   5.226   6.138  14.340  0.2166 -0.1320 -0.7065
 3006TIP3    H130433   5.176   6.059  14.321  1.1367 -0.8695 -0.1544
 3006TIP3    H230434   5.235   6.138  14.435 -0.5245  1.1165 -0.6224
 3007TIP3   OH230435   4.364   0.951   0.732  0.6972 -0.9203 -0.0777
 3007TIP3    H130436   4.389   1.043   0.726 -1.3497 -0.3093 -0.1760
 3007TIP3    H230437   4.415   0.916   0.805  0.0141  0.8424  1.3042
 3008TIP3   OH230438   5.762   2.844   5.085  0.6237 -0.0793 -0.4880
 3008TIP3    H130439   5.726   2.757   5.075  1.3582 -0.9012  2.7425
 3008TIP3    H230440   5.857   2.832   5.080  0.8071  0.1973  1.4406
 3009TIP3   OH230441   5.874   4.417  15.917  0.4434 -0.4678  0.2177
 3009TIP3    H130442   5.905   4.451  16.001  2.1279 -1.4901  0.0528
 3009TIP3    H230443   5.818   4.486  15.882  4.2625  2.6718 -0.4869
 3010TIP3   OH230444   4.639   3.047  16.943 -0.4295 -0.2455 -0.5845
 3010TIP3    H130445   4.555   3.004  16.931 -0.7581  0.1194  0.2895
 3010TIP3    H230446   4.682   2.997  17.012 -0.6318  0.5350  0.1286
 3011TIP3   OH230447   2.683   2.027  11.995  0.1756  0.4865 -0.5413
 3011TIP3    H130448   2.596   2.045  11.960  0.2132  0.3116 -0.7287
 3011TIP3    H230449   2.666   1.992  12.083  0.1070  1.4990 -0.1350
 3012TIP3   OH230450   3.914   5.347   6.037  0.4034  0.0129 -0.0426
 3012TIP3    H130451   3.964   5.415   5.992  0.4440 -0.2626 -0.4153
 3012TIP3    H230452   3.828   5.386   6.051 -0.4574 -0.7754 -2.6337
 3013TIP3   OH230453   0.917   4.969  16.657 -0.2447 -0.0796 -0.1017
 3013TIP3    H130454   0.824   4.965  16.636 -0.2003  2.0421 -0.9985
 3013TIP3    H230455   0.952   4.884  16.630 -1.8387 -0.7769 -0.0696
 3014TIP3   OH230456   3.026   3.068   3.942  0.0743 -0.0118 -0.1340
 3014TIP3    H130457   3.006   3.023   4.025  1.1097 -1.4880 -0.6548
 3014TIP3    H230458   3.051   2.998   3.882 -1.0411  0.9796 -1.8537
 3015TIP3   OH230459   4.574   5.260  13.379 -0.8291 -0.1695 -0.3239
 3015TIP3    H130460   4.557   5.200  13.451 -0.3836 -1.3036 -1.1455
 3015TIP3    H230461   4.524   5.226  13.306 -0.5647  0.4607 -0.8139
 3016TIP3   OH230462   4.257   4.519  16.644 -0.5058 -0.2904 -0.4835
 3016TIP3    H130463   4.255   4.423  16.640  1.5788 -0.4043  0.0363
 3016TIP3    H230464   4.201   4.541  16.718 -1.7934 -1.0184 -1.1938
 3017TIP3   OH230465   5.285   2.049   3.029  0.4837 -0.0268 -0.1688
 3017TIP3    H130466   5.259   2.131   2.986  0.4592  0.3293  0.5209
 3017TIP3    H230467   5.380   2.054   3.035  0.8569 -1.4661 -2.9708
 3018TIP3   OH230468   4.156   5.289  11.544  0.3348 -0.9737  0.2059
 3018TIP3    H130469   4.130   5.222  11.608 -0.8122 -1.8093 -1.0739
 3018TIP3    H230470   4.168   5.368  11.596 -0.7050 -1.5944  1.4585
 3019TIP3   OH230471   5.088   6.447   2.743 -0.0821 -0.1976  0.8281
 3019TIP3    H130472   5.000   6.409   2.750 -0.5222  0.6209 -0.0455
 3019TIP3    H230473   5.075   6.540   2.763  0.4303  0.0887 -0.1298
 3020TIP3   OH230474   6.514   4.992   0.438 -0.3194  0.6884 -0.1595
 3020TIP3    H130475   6.418   4.992   0.448 -0.2071  0.3857  1.1256
 3020TIP3    H230476   6.547   5.011   0.526  0.7930  4.3183 -1.1656
 3021TIP3   OH230477   5.198   2.157  14.592  0.1524  0.2924  0.4034
 3021TIP3    H130478   5.164   2.100  14.660 -0.0469 -0.2595 -0.1453
 3021TIP3    H230479   5.206   2.101  14.515  1.1438  0.7021  0.1819
 3022TIP3   OH230480   3.613   3.699   3.894  0.3588 -0.3938 -0.1057
 3022TIP3    H130481   3.558   3.771   3.864  0.0046 -0.9913 -0.9311
 3022TIP3    H230482   3.688   3.700   3.834  0.6159 -0.3794  0.2149
 3023TIP3   OH230483   0.837   3.810  16.005  0.0808  0.5444 -0.3747
 3023TIP3    H130484   0.915   3.764  15.974  1.2066  1.3320  1.1285
 3023TIP3    H230485   0.766   3.747  15.995  1.4136 -1.2446  0.8137
 3024TIP3   OH230486   0.116   1.575  10.679  0.2785 -0.2636  0.2642
 3024TIP3    H130487   0.091   1.519  10.752  0.8007 -1.6690 -0.6089
 3024TIP3    H230488   0.060   1.652  10.688  1.1903  0.1942  2.8573
 3025TIP3   OH230489   3.086   0.703   1.919 -0.1194 -0.5140 -0.2354
 3025TIP3    H130490   3.094   0.738   1.830 -0.5314 -0.5228 -0.2785
 3025TIP3    H230491   2.993   0.683   1.929 -0.2484  0.3997  0.5387
 3026TIP3   OH230492   4.801   3.249   4.627  0.0605 -0.0016 -0.0376
 3026TIP3    H130493   4.756   3.302   4.561  1.0360  1.5488  0.4834
 3026TIP3    H230494   4.740   3.178   4.647 -0.2115 -0.6117 -2.6806
 3027TIP3   OH230495   4.137   2.751   4.066  0.3217 -0.0147  0.0266
 3027TIP3    H130496   4.068   2.688   4.085  1.3018 -0.5361  2.1536
 3027TIP3    H230497   4.115   2.828   4.119 -0.9182  1.6041 -2.6116
 3028TIP3   OH230498   4.444   5.016  16.257  0.1961  0.2352 -0.0087
 3028TIP3    H130499   4.524   5.053  16.219  0.5855  1.9916  2.2892
 3028TIP3    H230500   4.467   4.925  16.277  1.9540  0.9087  1.3208
 3029TIP3   OH230501   5.751   3.470  11.939  0.0910 -0.2743  0.1379
 3029TIP3    H130502   5.662   3.452  11.909 -0.3581  0.9018  0.7105
 3029TIP3    H230503   5.807   3.420  11.879 -1.0059 -3.7513  1.7214
 3030TIP3   OH230504   1.324   2.430   2.940  0.6332 -0.4689  0.4667
 3030TIP3    H130505   1.254   2.482   2.899  0.7793 -0.1665  0.5968
 3030TIP3    H230506   1.397   2.435   2.879  0.9449  0.2127  0.8892
 3031TIP3   OH230507   6.740   4.318  13.128  0.2952  0.5526  0.2266
 3031TIP3    H130508   6.776   4.338  13.041 -0.2304 -0.1988 -0.1831
 3031TIP3    H230509   6.649   4.348  13.124 -1.1247 -3.2849 -1.0681
 3032TIP3   OH230510   6.236   5.453  12.517  0.3146  0.0553 -0.2442
 3032TIP3    H130511   6.216   5.530  12.464 -0.6170 -0.0361 -0.0385
 3032TIP3    H230512   6.242   5.381  12.453 -1.5941 -0.2029 -0.1846
 3033TIP3   OH230513   2.166   5.623  11.364 -0.8683  0.0387 -0.8083
 3033TIP3    H130514   2.104   5.683  11.405 -0.5027  0.7169 -1.2341
 3033TIP3    H230515   2.117   5.541  11.356 -1.7727  0.5987 -1.2688
 3034TIP3   OH230516   2.347   5.743   1.774  0.3163  0.3661 -0.6818
 3034TIP3    H130517   2.334   5.731   1.680  0.5340  0.3447 -0.7089
 3034TIP3    H230518   2.259   5.761   1.808  0.0123 -1.0049 -0.6790
 3035TIP3   OH230519   5.246   6.411   2.511  0.2235  0.3540 -0.1029
 3035TIP3    H130520   5.194   6.348   2.460  0.2531  0.7478 -0.6289
 3035TIP3    H230521   5.207   6.409   2.598 -0.7507  0.7117 -0.5149
 3036TIP3   OH230522   4.538   5.744  14.394  0.4322 -0.1672  0.3553
 3036TIP3    H130523   4.563   5.821  14.445 -1.5959  0.1750  0.9572
 3036TIP3    H230524   4.610   5.730  14.333  1.7850  0.9479  1.6339
 3037TIP3   OH230525   2.560   6.125  13.343 -0.3103 -0.1263  0.4474
 3037TIP3    H130526   2.656   6.132  13.349 -0.1302 -0.7712 -1.0716
 3037TIP3    H230527   2.543   6.031  13.343 -1.0682 -0.0110  1.8634
 3038TIP3   OH230528   5.304   3.735   4.076 -0.2296 -0.2889  0.6698
 3038TIP3    H130529   5.251   3.814   4.066 -0.6410 -0.5846  0.4484
 3038TIP3    H230530   5.302   3.693   3.990 -2.2249 -1.8847  1.4029
 3039TIP3   OH230531   1.691   5.108  12.876 -0.0579  0.1702  0.5085
 3039TIP3    H130532   1.783   5.114  12.900 -0.3978  1.3578  1.6373
 3039TIP3    H230533   1.644   5.131  12.956 -1.2766  3.0121 -0.8727
 3040TIP3   OH230534   4.264   3.642  15.887  0.1480 -0.4318  0.1134
 3040TIP3    H130535   4.268   3.672  15.796 -1.8089 -0.8493 -0.1535
 3040TIP3    H230536   4.335   3.578  15.895  0.1564 -0.6024 -1.1986
 3041TIP3   OH230537   6.497   3.157  14.748 -0.0663  0.3697  0.3676
 3041TIP3    H130538   6.511   3.079  14.803  1.3518  1.4506  1.6237
 3041TIP3    H230539   6.455   3.220  14.807 -0.4789  0.8323 -0.4151
 3042TIP3   OH230540   5.628   0.013  12.771 -0.4017 -0.2361  0.0322
 3042TIP3    H130541   5.701   0.069  12.798 -1.0780  1.4796 -1.4502
 3042TIP3    H230542   5.585  -0.010  12.853  1.3240 -0.6498  0.8765
 3043TIP3   OH230543   0.637   5.363   3.880 -0.5811 -0.0225  0.0187
 3043TIP3    H130544   0.591   5.300   3.935 -1.8834  0.2616 -0.6995
 3043TIP3    H230545   0.573   5.431   3.863  0.0908  0.3711 -1.0583
 3044TIP3   OH230546   2.811   4.334  17.060 -0.1775  0.0214 -0.1253
 3044TIP3    H130547   2.798   4.338  17.155  1.4354 -0.0605  0.1330
 3044TIP3    H230548   2.795   4.242  17.037  2.5664 -0.7334  0.6428
 3045TIP3   OH230549   3.957   6.220  14.243  0.9407  0.5706  0.2230
 3045TIP3    H130550   3.958   6.230  14.338 -0.1835 -2.9443  0.7366
 3045TIP3    H230551   3.864   6.220  14.220  1.0940 -1.1143 -0.4979
 3046TIP3   OH230552   0.781   3.888   5.457 -0.0488  0.1331  0.0922
 3046TIP3    H130553   0.780   3.964   5.514 -0.7218 -0.1077  0.4032
 3046TIP3    H230554   0.839   3.913   5.385 -1.9577  1.7829 -0.9733
 3047TIP3   OH230555   6.140   1.578   1.373  0.0080 -0.3307  0.3487
 3047TIP3    H130556   6.118   1.604   1.462  1.4497  0.7131  0.4327
 3047TIP3    H230557   6.110   1.651   1.318  1.1787  0.0917  0.2423
 3048TIP3   OH230558   2.430   3.214  14.719  0.4198 -0.2760  0.5292
 3048TIP3    H130559   2.497   3.228  14.652  1.3605 -0.9546  1.2917
 3048TIP3    H230560   2.384   3.297  14.726  1.4254  0.3147  0.2426
 3049TIP3   OH230561   0.033   0.125   5.178 -0.2356 -0.3672 -0.3592
 3049TIP3    H130562   0.001   0.056   5.119  1.0331 -0.2853 -1.1716
 3049TIP3    H230563  -0.010   0.106   5.261 -2.1882 -0.3982 -1.3211
 3050TIP3   OH230564   1.492   2.680   6.378  0.1275  0.0389 -0.3700
 3050TIP3    H130565   1.521   2.686   6.287  1.2674  1.2993  0.0370
 3050TIP3    H230566   1.550   2.739   6.426 -1.3580  0.5053  0.9629
 3051TIP3   OH230567   5.099   6.329   3.609 -0.3880  0.4232  0.6253
 3051TIP3    H130568   5.186   6.318   3.648 -0.5133  3.2177  1.9223
 3051TIP3    H230569   5.039   6.320   3.683 -0.7977  3.3895  0.7531
 3052TIP3   OH230570   6.750   0.482  17.281  0.1260 -0.5611  0.1496
 3052TIP3    H130571   6.723   0.572  17.298 -0.5498 -0.6793 -0.3055
 3052TIP3    H230572   6.729   0.435  17.362 -2.6116 -1.0091 -0.7357
 3053TIP3   OH230573   1.284   0.660  17.109  0.0592 -0.0340  0.0807
 3053TIP3    H130574   1.361   0.674  17.055  0.5617  0.3624  0.8905
 3053TIP3    H230575   1.252   0.747  17.129 -0.1309 -0.1784  0.4156
 3054TIP3   OH230576   5.459   3.614   2.544  0.1374  0.0649 -0.1825
 3054TIP3    H130577   5.510   3.556   2.487 -0.7365 -0.1574 -0.7639
 3054TIP3    H230578   5.479   3.702   2.513 -0.6241 -0.0747 -1.0941
 3055TIP3   OH230579   4.136   5.284   3.289 -0.0106  0.0343  0.1143
 3055TIP3    H130580   4.201   5.214   3.295  0.9600  0.8026 -0.9822
 3055TIP3    H230581   4.075   5.254   3.222  0.8946  0.5925 -0.9858
 3056TIP3   OH230582   6.499   1.089  14.904 -0.0305 -0.2294 -0.4027
 3056TIP3    H130583   6.414   1.124  14.880  0.2231  1.1330  0.5759
 3056TIP3    H230584   6.560   1.127  14.842 -0.1434 -1.4686 -1.3162
 3057TIP3   OH230585   1.276   3.182   2.903  0.6073 -0.6868 -0.3938
 3057TIP3    H130586   1.261   3.265   2.857  1.8112 -0.6665 -0.7740
 3057TIP3    H230587   1.347   3.140   2.854  0.5828 -1.5626  0.3008
 3058TIP3   OH230588   1.844   0.431  10.377 -0.0420  0.2420  0.2377
 3058TIP3    H130589   1.872   0.374  10.306 -0.8876 -1.1919  1.0205
 3058TIP3    H230590   1.832   0.373  10.452 -1.1816  1.4098  1.0015
 3059TIP3   OH230591   0.095   2.708   4.238 -0.3660 -0.4254 -0.5822
 3059TIP3    H130592   0.189   2.698   4.255 -0.1618 -0.0523 -1.4134
 3059TIP3    H230593   0.068   2.777   4.297 -0.0888 -0.4636 -0.4072
 3060TIP3   OH230594   4.741   5.526  11.301 -0.2474  0.7985  0.2409
 3060TIP3    H130595   4.736   5.575  11.219 -1.3774  1.1449  0.4891
 3060TIP3    H230596   4.803   5.575  11.355  0.2274  0.7702 -0.2815
 3061TIP3   OH230597   4.680   3.214  16.576 -0.5387 -0.8336  0.5619
 3061TIP3    H130598   4.772   3.229  16.597 -0.5684  1.4462 -0.6633
 3061TIP3    H230599   4.664   3.123  16.602  1.9306 -1.1565  1.1793
 3062TIP3   OH230600   4.652   5.821  12.013 -0.1762 -0.5157 -0.6933
 3062TIP3    H130601   4.706   5.846  12.087 -0.4517  0.6534 -0.8715
 3062TIP3    H230602   4.613   5.737  12.038 -0.9889  0.2942  0.8664
 3063TIP3   OH230603   0.521   0.931   5.016 -0.2949  0.1265 -0.7716
 3063TIP3    H130604   0.535   0.898   4.927  0.8004  0.1762 -0.6408
 3063TIP3    H230605   0.592   0.994   5.029 -0.1252 -0.2628  0.3075
 3064TIP3   OH230606   1.681   2.143  15.210  0.1697 -0.3615  0.0051
 3064TIP3    H130607   1.614   2.172  15.149  0.2373 -0.9435 -0.3563
 3064TIP3    H230608   1.694   2.050  15.190 -0.0289 -0.6491  1.1102
 3065TIP3   OH230609   3.685   1.000  15.287 -0.1270 -0.1919  0.3937
 3065TIP3    H130610   3.694   0.909  15.316  0.3931 -0.5137 -0.7073
 3065TIP3    H230611   3.673   0.993  15.192 -0.4166  0.8777  0.3386
 3066TIP3   OH230612   0.716   2.381   4.408  0.2165  0.2829 -0.7917
 3066TIP3    H130613   0.636   2.333   4.428  1.7904 -1.6023  1.6678
 3066TIP3    H230614   0.722   2.380   4.313 -1.5555 -1.4870 -0.9463
 3067TIP3   OH230615   0.939   0.956  13.669  0.4213 -0.1363 -0.6190
 3067TIP3    H130616   0.848   0.985  13.677  0.2902 -0.9815  1.6261
 3067TIP3    H230617   0.987   1.036  13.646 -0.6918  0.6305 -0.3567
 3068TIP3   OH230618   5.909   1.361  10.114  0.6351  0.6978 -0.7259
 3068TIP3    H130619   5.853   1.304  10.166  0.5123  2.7753  1.6075
 3068TIP3    H230620   5.996   1.323  10.123  0.8303  1.5762  2.0881
 3069TIP3   OH230621   1.665   0.492   4.359 -0.1781  0.0999 -0.4942
 3069TIP3    H130622   1.616   0.535   4.289 -0.2654 -0.0967 -0.5546
 3069TIP3    H230623   1.753   0.529   4.354 -0.1891  0.0962 -0.6971
 3070TIP3   OH230624   2.566   0.483   0.190 -0.1727 -0.4507  0.1704
 3070TIP3    H130625   2.637   0.513   0.246 -0.0583 -1.5228  0.6235
 3070TIP3    H230626   2.521   0.417   0.242 -0.9893 -0.3875 -0.4363
 3071TIP3   OH230627   6.614   3.603   3.607  0.1647  0.1567 -0.3449
 3071TIP3    H130628   6.698   3.588   3.563  0.0910 -1.3780 -0.0071
 3071TIP3    H230629   6.614   3.542   3.681 -1.2754  0.0770 -0.3744
 3072TIP3   OH230630   1.032   5.556   0.496 -0.1347 -0.3592  0.6164
 3072TIP3    H130631   1.064   5.484   0.550 -0.3216 -1.1502 -0.2899
 3072TIP3    H230632   0.964   5.598   0.550 -0.2277 -1.0430  1.0441
 3073TIP3   OH230633   6.547   0.884  13.526  0.1614  0.1001 -0.0497
 3073TIP3    H130634   6.453   0.864  13.526  0.3819 -0.9985  0.6936
 3073TIP3    H230635   6.590   0.799  13.526  1.2018  0.5461 -2.1900
 3074TIP3   OH230636   5.445   1.989  15.070 -0.0157 -0.5457 -0.3397
 3074TIP3    H130637   5.491   2.005  14.988 -1.5785 -0.3872 -1.2158
 3074TIP3    H230638   5.425   2.076  15.105  0.3252 -0.6124  0.0334
 3075TIP3   OH230639   2.221   5.062   0.052  0.0790  0.1303 -0.3741
 3075TIP3    H130640   2.247   5.030  -0.034 -0.5844  0.6001 -0.7625
 3075TIP3    H230641   2.146   5.007   0.077 -0.3173  0.5970 -0.5174
 3076TIP3   OH230642   4.971   2.734   1.654  0.4082  0.0341 -0.2503
 3076TIP3    H130643   4.912   2.809   1.646  0.6820  0.3018  0.2120
 3076TIP3    H230644   4.916   2.658   1.636 -0.2606  0.2216  0.8939
 3077TIP3   OH230645   2.441   0.128  13.361 -0.4167 -0.4464 -0.4856
 3077TIP3    H130646   2.403   0.164  13.281  0.3346  2.1825  0.2583
 3077TIP3    H230647   2.402   0.041  13.368 -1.9327 -0.0432 -2.6985
 3078TIP3   OH230648   3.196   5.650   0.853  0.1796  0.0740 -0.0100
 3078TIP3    H130649   3.237   5.565   0.836  0.2898  0.1132  0.0603
 3078TIP3    H230650   3.244   5.685   0.928  0.9380  0.7481 -0.7992
 3079TIP3   OH230651   4.471   4.334  10.815 -0.0936  0.3094 -0.8306
 3079TIP3    H130652   4.505   4.267  10.755  1.2186 -1.1198  1.3855
 3079TIP3    H230653   4.421   4.285  10.880 -0.5992  1.6939 -0.1365
 3080TIP3   OH230654   4.968   1.371  16.155 -0.2797 -0.0254  0.3034
 3080TIP3    H130655   4.906   1.332  16.217 -0.6704  1.7805  1.0941
 3080TIP3    H230656   4.930   1.352  16.069 -0.8530 -0.7064  0.6934
 3081TIP3   OH230657   5.815   1.590  15.323 -0.0666  0.5176  0.7522
 3081TIP3    H130658   5.840   1.530  15.393 -0.3552 -0.6872 -0.1346
 3081TIP3    H230659   5.898   1.624  15.289  0.1154  0.4115  1.0912
 3082TIP3   OH230660   1.047   5.895  11.038 -0.1359  1.7813 -0.0465
 3082TIP3    H130661   1.098   5.970  11.067  1.3975  0.2714  1.3834
 3082TIP3    H230662   1.112   5.829  11.015 -1.3742 -0.0420  1.3578
 3083TIP3   OH230663   4.897   1.376   4.713 -0.1520 -0.5564 -0.0596
 3083TIP3    H130664   4.959   1.440   4.748 -1.3766  1.3573 -1.2257
 3083TIP3    H230665   4.878   1.407   4.624 -0.4557 -2.8274 -0.8490
 3084TIP3   OH230666   4.194   6.749  11.429 -0.2425  0.3179 -0.0062
 3084TIP3    H130667   4.283   6.724  11.453  0.8811  5.8856  3.3004
 3084TIP3    H230668   4.204   6.800  11.349 -0.4607  0.9521  0.3671
 3085TIP3   OH230669   5.486   2.549  12.730  0.4794  0.2959  0.2497
 3085TIP3    H130670   5.468   2.468  12.778 -2.6878  0.3972 -0.5589
 3085TIP3    H230671   5.447   2.618  12.784 -0.5546  0.7505 -1.0373
 3086TIP3   OH230672   2.441   1.850   0.074 -0.0694  0.4665  0.9261
 3086TIP3    H130673   2.386   1.891   0.006 -0.2419 -1.6037 -0.2709
 3086TIP3    H230674   2.529   1.849   0.036 -0.0416 -0.1060  0.9994
 3087TIP3   OH230675   1.538   0.519   3.636  0.1106 -0.2134  0.2298
 3087TIP3    H130676   1.559   0.432   3.670  0.4128 -0.6426 -1.0073
 3087TIP3    H230677   1.558   0.579   3.708  3.2156 -0.8301  0.0107
 3088TIP3   OH230678   0.114   1.521  13.458 -0.0258 -0.4693  0.0930
 3088TIP3    H130679   0.067   1.448  13.497 -1.6154  0.8307  0.7192
 3088TIP3    H230680   0.201   1.518  13.498 -0.7988 -0.6896  1.8403
 3089TIP3   OH230681   2.886   0.873  13.166  0.7146  0.5825  0.0881
 3089TIP3    H130682   2.905   0.851  13.075 -1.2660  1.8624 -0.6973
 3089TIP3    H230683   2.868   0.789  13.208  1.5269 -0.0097 -0.6995
 3090TIP3   OH230684   0.647   4.241   2.709  0.2477 -0.1972  0.1246
 3090TIP3    H130685   0.684   4.199   2.631 -0.3852  1.4341 -1.1355
 3090TIP3    H230686   0.710   4.224   2.778  2.4322  0.8729 -1.4727
 3091TIP3   OH230687   1.280   0.471   1.551  0.1971 -0.2368 -0.1231
 3091TIP3    H130688   1.348   0.528   1.586 -1.4247  0.1584  2.7499
 3091TIP3    H230689   1.215   0.530   1.513 -0.8417 -0.1672  1.6480
 3092TIP3   OH230690   3.325   0.059   2.677 -0.2138 -0.2834  0.4490
 3092TIP3    H130691   3.245   0.062   2.625 -0.3928 -3.4117  0.3344
 3092TIP3    H230692   3.300   0.012   2.757  1.2110 -0.1146  1.0276
 3093TIP3   OH230693   6.138   2.029   3.317 -0.1653  0.1983  0.3834
 3093TIP3    H130694   6.071   1.991   3.373 -0.3849 -1.3406 -0.8567
 3093TIP3    H230695   6.218   1.983   3.340 -0.4475 -1.1770 -1.1863
 3094TIP3   OH230696   6.621   5.393  15.519  0.5081 -0.1497  0.0648
 3094TIP3    H130697   6.539   5.350  15.495  0.4794 -0.3048  0.4285
 3094TIP3    H230698   6.689   5.326  15.504  0.7571  0.4267 -1.6114
 3095TIP3   OH230699   0.941   4.247   6.161 -0.2193 -1.2996 -0.2342
 3095TIP3    H130700   0.946   4.329   6.112 -2.6896 -1.6056 -1.1702
 3095TIP3    H230701   1.009   4.254   6.228  1.3107  0.4020 -1.8519
 3096TIP3   OH230702   5.229   6.494   0.134  0.1118  0.2681 -0.6152
 3096TIP3    H130703   5.246   6.428   0.201 -0.7485 -1.1323 -1.7135
 3096TIP3    H230704   5.310   6.545   0.129  0.6889 -0.4979  0.4749
 3097TIP3   OH230705   2.210   5.706   3.441 -0.6978  0.5316  0.5750
 3097TIP3    H130706   2.287   5.747   3.480 -0.7684  0.4533  0.7965
 3097TIP3    H230707   2.244   5.633   3.389 -0.6205  0.5158  0.6484
 3098TIP3   OH230708   0.598   3.515  11.641  0.7985  0.9085 -0.1187
 3098TIP3    H130709   0.631   3.602  11.663  1.1944  0.6754  0.2228
 3098TIP3    H230710   0.646   3.456  11.699  0.4083  0.4791 -0.2264
 3099TIP3   OH230711   0.898   1.830  16.647 -0.0823  0.3481 -0.2327
 3099TIP3    H130712   0.877   1.913  16.605 -1.8617  0.5530  0.9445
 3099TIP3    H230713   0.993   1.828  16.649  0.0414  2.9040  0.6947
 3100TIP3   OH230714   0.676   4.409  10.670 -0.1075 -0.8918  0.2769
 3100TIP3    H130715   0.604   4.358  10.708  1.6419 -2.9410  1.0792
 3100TIP3    H230716   0.693   4.477  10.735 -0.5853 -1.0998  0.6327
 3101TIP3   OH230717   4.297   0.347  13.460  0.6249  0.1657 -0.1465
 3101TIP3    H130718   4.288   0.377  13.370 -0.2771 -1.8029 -0.7695
 3101TIP3    H230719   4.389   0.322  13.468  0.9336  1.2344 -0.1958
 3102TIP3   OH230720   1.992   5.292  13.958  0.1179  0.1154 -0.2082
 3102TIP3    H130721   1.952   5.277  14.043 -1.3478 -2.2428 -1.2091
 3102TIP3    H230722   2.083   5.264  13.970  0.8545  2.8153  1.3304
 3103TIP3   OH230723   2.269   0.072  12.674  0.7274  0.8878  0.5936
 3103TIP3    H130724   2.287   0.148  12.730  0.6267  2.2808 -1.1680
 3103TIP3    H230725   2.350   0.058  12.625  0.4046  0.5186  0.1562
 3104TIP3   OH230726   6.436   4.546   2.025  0.1861 -0.0913  0.4699
 3104TIP3    H130727   6.525   4.579   2.024  0.8244 -1.6586  1.5518
 3104TIP3    H230728   6.445   4.451   2.032 -1.5650 -0.2631  1.0322
 3105TIP3   OH230729   0.529   0.352  12.176  0.7794  0.2305 -0.2051
 3105TIP3    H130730   0.479   0.432  12.159  1.5706  0.6610 -0.5558
 3105TIP3    H230731   0.590   0.345  12.102  0.4415 -0.9239 -0.3891
 3106TIP3   OH230732   6.263   1.613  13.901  0.4915 -0.2576  0.0084
 3106TIP3    H130733   6.350   1.648  13.882  0.1683  0.6749  0.1750
 3106TIP3    H230734   6.244   1.554  13.828  1.3207 -0.5803  0.0496
 3107TIP3   OH230735   3.125   5.924   1.178 -0.1397  0.2585 -0.2230
 3107TIP3    H130736   3.160   5.974   1.104  1.2597 -0.5717 -0.1601
 3107TIP3    H230737   3.034   5.905   1.154  0.1956  0.2762 -1.5847
 3108TIP3   OH230738   1.844   5.446   0.533 -0.3678  0.0342 -0.2051
 3108TIP3    H130739   1.809   5.357   0.531  2.0035 -0.9568 -1.3845
 3108TIP3    H230740   1.918   5.444   0.472  1.1868  2.1928  1.4698
 3109TIP3   OH230741   6.187   0.831  14.821 -0.0188  0.2234 -0.2976
 3109TIP3    H130742   6.205   0.907  14.877 -0.3046  1.9082 -2.3481
 3109TIP3    H230743   6.123   0.780  14.871  0.4882  1.0883  1.3382
 3110TIP3   OH230744   5.575   4.746  11.245 -0.2839  0.2939  0.5432
 3110TIP3    H130745   5.525   4.673  11.209 -1.4793 -0.0991  2.8508
 3110TIP3    H230746   5.587   4.805  11.170 -1.7063 -0.9545 -0.7380
 3111TIP3   OH230747   6.387   1.344  16.150 -0.0716  0.2006  0.2539
 3111TIP3    H130748   6.358   1.431  16.126 -0.1931 -0.0722 -0.6376
 3111TIP3    H230749   6.357   1.288  16.079 -0.8669 -0.7414  1.2996
 3112TIP3   OH230750   5.861   0.102  13.971 -0.0988  0.1356  0.0543
 3112TIP3    H130751   5.862   0.085  14.065 -1.1621  2.0875  0.4733
 3112TIP3    H230752   5.941   0.153  13.955  1.1034 -1.8136 -0.5080
 3113TIP3   OH230753   2.153   3.004  13.299  0.1655 -0.4078 -0.0129
 3113TIP3    H130754   2.072   2.970  13.336  0.1222  1.6468  2.0472
 3113TIP3    H230755   2.223   2.961  13.348  0.2559 -0.6881 -0.3841
 3114TIP3   OH230756   3.132   0.923   3.169 -0.5442  0.8702  0.0660
 3114TIP3    H130757   3.095   0.837   3.149 -0.1300  0.4246  1.1698
 3114TIP3    H230758   3.071   0.985   3.129 -0.5484  0.0684 -1.2483
 3115TIP3   OH230759   5.193   5.080  16.332 -0.3423 -0.0004  0.1487
 3115TIP3    H130760   5.212   4.993  16.367 -2.1992 -0.4896  0.0560
 3115TIP3    H230761   5.186   5.067  16.237 -0.4156  0.2979  0.1104
 3116TIP3   OH230762   1.072   5.476  15.828  0.7015  0.4291 -0.4727
 3116TIP3    H130763   1.084   5.410  15.896  0.8767  1.0080  0.0645
 3116TIP3    H230764   0.993   5.523  15.854  0.8462  0.7422 -0.6014
 3117TIP3   OH230765   3.792   0.934   3.281 -0.1318  0.3356 -0.6853
 3117TIP3    H130766   3.815   0.936   3.374 -0.2636 -1.3254 -0.5863
 3117TIP3    H230767   3.867   0.889   3.240 -2.0179 -3.2112 -0.6631
 3118TIP3   OH230768   4.503   2.478   4.490  0.3391  0.1628  0.3741
 3118TIP3    H130769   4.486   2.423   4.414 -2.1532  1.1649  0.1284
 3118TIP3    H230770   4.586   2.522   4.470  0.5133 -0.7446 -1.0344
 3119TIP3   OH230771   3.393   2.217  12.523  0.0693  0.3888 -0.3638
 3119TIP3    H130772   3.391   2.218  12.619  1.3960 -0.7419 -0.2993
 3119TIP3    H230773   3.484   2.199  12.501  0.6749  4.3729 -1.9571
 3120TIP3   OH230774   0.879   6.150  16.467 -0.2495  0.1076  0.6037
 3120TIP3    H130775   0.892   6.244  16.479 -1.9616  0.3235  0.9961
 3120TIP3    H230776   0.853   6.118  16.554  0.3687 -0.7420  0.4857
 3121TIP3   OH230777   0.860   3.933   0.834  0.5190 -0.1401 -0.1332
 3121TIP3    H130778   0.920   3.992   0.880 -0.1954 -0.1571  0.8583
 3121TIP3    H230779   0.869   3.957   0.742  0.9320  0.8812  0.1553
 3122TIP3   OH230780   0.445   4.010  10.850  0.2090  0.2700 -0.2322
 3122TIP3    H130781   0.356   3.993  10.881 -0.0753 -0.2120 -1.2426
 3122TIP3    H230782   0.498   3.941  10.888  0.1245  0.4699  0.2516
 3123TIP3   OH230783   4.750   2.621  11.178 -0.1120  0.2768 -0.0061
 3123TIP3    H130784   4.703   2.628  11.095  0.8605 -0.0825 -0.6080
 3123TIP3    H230785   4.701   2.676  11.238 -1.7024 -0.6303 -0.4120
 3124TIP3   OH230786   6.281   3.662  13.975  0.4821 -0.5087  0.0622
 3124TIP3    H130787   6.204   3.664  13.919 -1.0265 -0.3983  2.0319
 3124TIP3    H230788   6.335   3.735  13.946 -1.2103  0.7716  0.0499
 3125TIP3   OH230789   5.613   1.530   4.358  0.5547 -0.2470 -0.2544
 3125TIP3    H130790   5.521   1.547   4.376  0.2885 -1.0063 -0.8141
 3125TIP3    H230791   5.613   1.445   4.314  1.7709 -1.6249  2.2224
 3126TIP3   OH230792   2.567   0.325   3.624 -0.0497  0.3330  0.2511
 3126TIP3    H130793   2.581   0.232   3.604 -0.3611  0.1552  0.8500
 3126TIP3    H230794   2.472   0.333   3.635  0.1726  0.0946  3.1694
 3127TIP3   OH230795   2.876   6.618  12.266  0.2776  0.4726  0.4716
 3127TIP3    H130796   2.790   6.659  12.269  0.4480  0.9586 -0.7119
 3127TIP3    H230797   2.907   6.633  12.177  1.4619  0.0372  0.7852
 3128TIP3   OH230798   4.474   0.403   5.260 -0.5352  0.1282 -0.0811
 3128TIP3    H130799   4.458   0.334   5.196  1.0290  0.1588 -0.5505
 3128TIP3    H230800   4.478   0.357   5.344 -0.4856 -0.2214 -0.2716
 3129TIP3   OH230801   1.322   0.179  15.373  0.2350  0.2274 -0.6108
 3129TIP3    H130802   1.340   0.156  15.282 -0.1199 -1.6263 -0.2614
 3129TIP3    H230803   1.405   0.212  15.407  0.7426 -0.3532 -1.2518
 3130TIP3   OH230804   1.078   1.331   1.983  0.1218 -0.5174 -0.5458
 3130TIP3    H130805   1.022   1.268   1.936  0.4388 -0.5727 -0.8516
 3130TIP3    H230806   1.056   1.318   2.075  0.0367 -0.9322 -0.6232
 3131TIP3   OH230807   2.389   1.483  15.414  1.1368 -0.3670 -0.4704
 3131TIP3    H130808   2.304   1.476  15.370  0.9374 -1.6689  0.0906
 3131TIP3    H230809   2.371   1.530  15.495  0.1682 -3.8119  1.4811
 3132TIP3   OH230810   3.958   1.917  15.678  0.0165 -0.1999 -0.0709
 3132TIP3    H130811   3.957   1.954  15.767 -1.1375 -0.4903  0.0618
 3132TIP3    H230812   3.868   1.886  15.665 -0.5410  1.9711 -2.2419
 3133TIP3   OH230813   0.312   4.953   1.466 -0.1117 -0.3788  0.0843
 3133TIP3    H130814   0.219   4.938   1.481 -0.2221  1.0039  0.9575
 3133TIP3    H230815   0.315   5.024   1.402  0.3402  0.0312  0.5575
 3134TIP3   OH230816   0.905   5.268   1.724  0.8297  0.0611  0.1805
 3134TIP3    H130817   0.854   5.205   1.775  0.4970 -1.3224 -1.7813
 3134TIP3    H230818   0.841   5.333   1.694  0.8252  0.2078  0.5001
 3135TIP3   OH230819   2.251   0.504   4.335 -0.2715  0.5392 -0.2197
 3135TIP3    H130820   2.326   0.461   4.294 -0.6059  0.7142 -1.0362
 3135TIP3    H230821   2.175   0.453   4.306 -0.4541  0.1925  0.8263
 3136TIP3   OH230822   2.847   5.935  15.319 -0.0326  0.4459  0.5232
 3136TIP3    H130823   2.757   5.920  15.290 -0.1811  0.3465  1.0196
 3136TIP3    H230824   2.866   5.861  15.376  0.6085  0.1063 -0.1150
 3137TIP3   OH230825   0.727   6.214  12.267 -0.2244  0.0081  0.1873
 3137TIP3    H130826   0.662   6.165  12.217 -1.3115 -0.6304  2.0915
 3137TIP3    H230827   0.685   6.298  12.285 -0.0356  0.0621  0.3849
 3138TIP3   OH230828   3.780   5.431   0.903  0.6478  0.0468  0.2759
 3138TIP3    H130829   3.852   5.435   0.966  2.1928 -0.8061 -1.3254
 3138TIP3    H230830   3.822   5.451   0.819 -1.0289 -0.4060 -0.7009
 3139TIP3   OH230831   1.036   2.544   4.010  0.0679 -0.2760  0.1888
 3139TIP3    H130832   1.014   2.633   3.983 -0.7308 -0.6532 -0.4464
 3139TIP3    H230833   1.051   2.550   4.105 -1.8799  0.1964  0.5075
 3140TIP3   OH230834   0.495   4.619  14.998 -0.4609 -0.3516 -0.5349
 3140TIP3    H130835   0.515   4.712  14.989  1.8744 -0.9583 -3.1896
 3140TIP3    H230836   0.433   4.601  14.928 -0.5333 -0.8874 -0.3346
 3141TIP3   OH230837   1.335   0.659  11.843 -0.0293 -0.3704 -0.4992
 3141TIP3    H130838   1.341   0.627  11.933 -0.1946  3.1481  0.9077
 3141TIP3    H230839   1.245   0.689  11.834 -0.6850 -2.6839 -2.7109
 3142TIP3   OH230840   1.180   3.278  16.067 -0.3346  0.4152  0.5543
 3142TIP3    H130841   1.259   3.288  16.014 -1.2917 -0.5820 -1.1713
 3142TIP3    H230842   1.191   3.340  16.139  1.4508  1.1807 -0.3144
 3143TIP3   OH230843   2.368   3.947  11.745  0.0730 -0.8171  0.4753
 3143TIP3    H130844   2.414   3.995  11.677  1.0248 -1.6932  0.4781
 3143TIP3    H230845   2.316   4.013  11.790  0.8765  0.0941  0.0919
 3144TIP3   OH230846   5.520   1.689   2.674  0.4924  0.0865 -0.7203
 3144TIP3    H130847   5.615   1.686   2.683  0.5237  2.2878  0.1188
 3144TIP3    H230848   5.490   1.606   2.710  1.9794  0.1052  0.6502
 3145TIP3   OH230849   2.866   0.822  12.653 -0.3141 -0.2479  0.1914
 3145TIP3    H130850   2.936   0.849  12.713  0.3097  1.1765 -1.1162
 3145TIP3    H230851   2.866   0.726  12.658  0.8268 -0.2152  1.2250
 3146TIP3   OH230852   3.179   3.597  14.214  0.6248  0.4573  0.7418
 3146TIP3    H130853   3.153   3.621  14.303  0.0209  1.9071  0.2206
 3146TIP3    H230854   3.196   3.681  14.171  0.0855 -0.1508 -0.7397
 3147TIP3   OH230855   3.863   6.546   0.730  0.0565 -0.1802 -0.0940
 3147TIP3    H130856   3.926   6.489   0.687  0.3403  1.0274 -1.3425
 3147TIP3    H230857   3.825   6.599   0.659 -1.2352  0.2010  0.8310
 3148TIP3   OH230858   2.686   5.043   3.908 -0.1650  0.0430 -0.1997
 3148TIP3    H130859   2.592   5.023   3.905 -0.2504  0.1443  1.1144
 3148TIP3    H230860   2.724   4.989   3.839 -1.3226  0.8857 -1.5745
 3149TIP3   OH230861   6.661   4.147   4.573 -0.1317  0.6022 -0.3970
 3149TIP3    H130862   6.606   4.069   4.561 -2.8609  2.5390 -1.4852
 3149TIP3    H230863   6.604   4.210   4.617  1.7597  2.2306 -0.1546
 3150TIP3   OH230864   3.433   0.579  11.030  0.3858 -0.4289  0.2271
 3150TIP3    H130865   3.411   0.661  11.073  3.1551  0.6077 -0.1459
 3150TIP3    H230866   3.366   0.517  11.061 -0.7091  1.4901  1.9541
 3151TIP3   OH230867   2.236   5.403  12.177 -0.1345  0.3904 -0.2021
 3151TIP3    H130868   2.248   5.453  12.257  2.2889  0.2200 -0.3896
 3151TIP3    H230869   2.143   5.413  12.156 -0.7020  0.9311  2.2634
 3152TIP3   OH230870   3.339   4.986  11.561 -0.2718 -0.3522 -0.0539
 3152TIP3    H130871   3.314   5.074  11.535 -2.9410 -1.5194 -1.8526
 3152TIP3    H230872   3.431   4.994  11.586  0.2119  2.5499 -2.1919
 3153TIP3   OH230873   2.398   3.550  15.881  0.5153 -0.4505 -0.5275
 3153TIP3    H130874   2.309   3.544  15.847  0.6237 -1.1749 -0.6998
 3153TIP3    H230875   2.388   3.550  15.976  0.2457  0.9777 -0.5379
 3154TIP3   OH230876   4.188   5.656  14.216  0.4176 -0.4269  0.2853
 3154TIP3    H130877   4.140   5.672  14.297 -0.0536  1.7056 -0.3591
 3154TIP3    H230878   4.273   5.622  14.245 -0.9094 -3.0373  1.4814
 3155TIP3   OH230879   2.803   6.692   0.863 -0.2785  0.3564 -0.4397
 3155TIP3    H130880   2.770   6.769   0.817  1.1009  1.1863 -0.1167
 3155TIP3    H230881   2.867   6.727   0.926 -0.8089 -0.8993  0.8720
 3156TIP3   OH230882   5.169   5.850  13.608 -0.1636  0.0837  0.1989
 3156TIP3    H130883   5.213   5.798  13.675 -0.0390 -0.0790 -0.0050
 3156TIP3    H230884   5.079   5.858  13.638  0.0775  0.6882  0.7744
 3157TIP3   OH230885   1.815   2.066  11.583 -0.3608  0.1679  0.6221
 3157TIP3    H130886   1.867   2.015  11.645 -0.1920 -0.2339  0.1643
 3157TIP3    H230887   1.862   2.148  11.573  0.1482 -0.1577  0.2802
 3158TIP3   OH230888   1.005   6.242  12.757  0.2854  0.2627 -0.1090
 3158TIP3    H130889   1.052   6.172  12.711  0.4948 -0.4953  1.2220
 3158TIP3    H230890   0.935   6.267  12.696 -0.2417 -1.6122 -0.3589
 3159TIP3   OH230891   0.800   0.315  14.882 -0.4059  0.1257  0.0034
 3159TIP3    H130892   0.843   0.401  14.878  0.7631 -0.4797 -2.2122
 3159TIP3    H230893   0.710   0.332  14.852 -0.4139  0.6720  0.3156
 3160TIP3   OH230894   3.586   1.078   2.402  0.4245 -0.0428 -0.3718
 3160TIP3    H130895   3.524   1.081   2.329  0.9844 -2.3127 -1.0026
 3160TIP3    H230896   3.592   0.986   2.425  0.9687  0.5093  1.9813
 3161TIP3   OH230897   2.275   5.399   4.869 -0.1888 -0.1303 -0.0705
 3161TIP3    H130898   2.207   5.462   4.843  1.0041  0.9261 -0.7833
 3161TIP3    H230899   2.296   5.353   4.788  0.5148  0.1425 -0.0496
 3162TIP3   OH230900   4.692   3.958   1.498 -0.0963 -0.0623 -0.3156
 3162TIP3    H130901   4.647   3.912   1.427 -0.0647 -0.9038  0.1947
 3162TIP3    H230902   4.636   4.033   1.517 -2.4096 -2.1311  1.6528
 3163TIP3   OH230903   5.059   2.061  12.153 -0.0269 -0.3616 -0.2080
 3163TIP3    H130904   5.050   2.138  12.208 -0.5517  0.4429 -1.3787
 3163TIP3    H230905   5.154   2.048  12.146  0.0778  0.4401 -0.3470
 3164TIP3   OH230906   6.000   6.051   1.590  0.0119  0.3272 -0.5963
 3164TIP3    H130907   5.935   6.023   1.655  0.4123 -1.1875 -0.7941
 3164TIP3    H230908   6.053   6.117   1.635 -0.2192 -0.1180  0.3569
 3165TIP3   OH230909   3.996   3.000  15.466 -0.0482  0.1733 -0.6224
 3165TIP3    H130910   4.081   2.982  15.507 -0.0225  0.3700 -0.5905
 3165TIP3    H230911   3.934   2.998  15.540 -0.0802 -0.0197 -0.6520
 3166TIP3   OH230912   5.427   0.690  12.257 -0.0789 -0.6279  0.4738
 3166TIP3    H130913   5.387   0.770  12.223 -1.0319 -1.6599 -0.9076
 3166TIP3    H230914   5.509   0.720  12.298 -0.7859  1.1335  0.6894
 3167TIP3   OH230915   1.201   1.655   4.917 -0.4135 -0.2994 -0.1073
 3167TIP3    H130916   1.243   1.571   4.937 -0.5337 -0.1495  0.8298
 3167TIP3    H230917   1.189   1.696   5.003 -0.4290  0.6434 -0.5539
 3168TIP3   OH230918   3.675   1.432  11.301  0.0035 -0.3845  0.8243
 3168TIP3    H130919   3.717   1.461  11.220  1.8231 -0.3197  1.7340
 3168TIP3    H230920   3.614   1.364  11.274 -0.9768  1.0923 -0.8207
 3169TIP3   OH230921   0.140   5.959  13.768  0.1379  0.4117 -0.6013
 3169TIP3    H130922   0.058   6.004  13.748 -0.6296  0.1349  1.6503
 3169TIP3    H230923   0.147   5.890  13.702 -1.8371 -0.0253 -0.4087
 3170TIP3   OH230924   2.075   2.966  12.964  0.2124  0.8789  0.2968
 3170TIP3    H130925   2.058   3.018  12.885  0.5534  0.4482 -0.0633
 3170TIP3    H230926   1.995   2.917  12.978  0.7404 -0.3462 -0.7865
 3171TIP3   OH230927   2.161   1.757  15.524 -0.1080 -0.5055 -0.3435
 3171TIP3    H130928   2.166   1.705  15.604  1.1136 -1.0185 -0.7197
 3171TIP3    H230929   2.086   1.720  15.477 -0.7694 -0.2648  0.5082
 3172TIP3   OH230930   6.732   3.468   5.095 -0.7364 -0.0288  0.0545
 3172TIP3    H130931   6.678   3.426   5.162  0.7378 -4.0787 -1.0667
 3172TIP3    H230932   6.676   3.472   5.018 -0.8452  0.0960  0.1367
 3173TIP3   OH230933   5.844   5.206  13.348 -0.2374  0.0040  0.0198
 3173TIP3    H130934   5.878   5.291  13.322 -1.0971  0.5407  0.5939
 3173TIP3    H230935   5.823   5.162  13.266  0.2181  0.3324 -0.2787
 3174TIP3   OH230936   5.233   6.024   2.398 -0.3060  0.5893 -1.0522
 3174TIP3    H130937   5.264   5.935   2.413 -2.0532  0.0130 -0.6416
 3174TIP3    H230938   5.310   6.071   2.368  1.5215 -0.1871  1.9931
 3175TIP3   OH230939   4.971   2.979  16.687  0.0829 -0.1786  0.4872
 3175TIP3    H130940   4.899   2.921  16.666  0.6478 -0.5833 -0.4046
 3175TIP3    H230941   4.979   3.036  16.611  0.7598 -0.1939  0.5410
 3176TIP3   OH230942   4.533   4.862   5.825 -0.6136 -0.2692  0.2960
 3176TIP3    H130943   4.457   4.843   5.880 -0.9726  2.4348  0.8607
 3176TIP3    H230944   4.608   4.850   5.883 -0.8780  0.6488  0.8566
 3177TIP3   OH230945   3.946   4.541   4.118 -0.0920 -0.8211 -0.3441
 3177TIP3    H130946   4.032   4.521   4.082 -0.5878 -1.0000 -1.4536
 3177TIP3    H230947   3.964   4.601   4.191  0.8440  0.4758 -1.5939
 3178TIP3   OH230948   2.001   6.429   1.048 -0.2387 -0.4731  0.6932
 3178TIP3    H130949   2.066   6.421   1.117 -0.1409  0.1464  0.6830
 3178TIP3    H230950   2.050   6.416   0.967 -0.2918 -0.8754  0.7265
 3179TIP3   OH230951   3.702   4.892  13.565 -0.2170  0.1667 -0.0266
 3179TIP3    H130952   3.721   4.799  13.576  0.7271  0.2474 -0.8182
 3179TIP3    H230953   3.778   4.936  13.603  0.3636  0.5452 -1.5487
 3180TIP3   OH230954   5.261   1.582   1.850  0.1346 -0.9347 -0.1029
 3180TIP3    H130955   5.285   1.579   1.757 -0.5149 -0.1938 -0.3090
 3180TIP3    H230956   5.342   1.565   1.897  0.2192 -2.7380 -0.8200
 3181TIP3   OH230957   4.278   5.820  15.408 -0.3463 -0.0786  0.0190
 3181TIP3    H130958   4.276   5.802  15.502  0.5708 -0.6443 -0.0647
 3181TIP3    H230959   4.233   5.905  15.399 -1.4209 -0.5394  0.8288
 3182TIP3   OH230960   3.809   4.986  13.086  0.0340 -0.1391 -0.3782
 3182TIP3    H130961   3.725   5.026  13.067 -0.1052  0.3672  1.1870
 3182TIP3    H230962   3.814   4.910  13.028  0.0311  1.7240 -2.9864
 3183TIP3   OH230963   0.383   6.424  15.894 -0.3572 -0.4606  0.3136
 3183TIP3    H130964   0.449   6.424  15.824  0.3032  0.3556  0.9193
 3183TIP3    H230965   0.433   6.417  15.975 -1.1236 -1.4174  0.7248
 3184TIP3   OH230966   2.211   1.649   4.822 -0.0775 -0.3684  0.1476
 3184TIP3    H130967   2.224   1.655   4.728 -0.7115  0.4568  0.1089
 3184TIP3    H230968   2.149   1.718   4.843  0.8372  0.1282  1.3271
 3185TIP3   OH230969   2.749   1.888  17.314 -0.1436 -0.3701  0.3294
 3185TIP3    H130970   2.749   1.799  17.348 -0.3205 -0.1729  0.8434
 3185TIP3    H230971   2.701   1.882  17.231  0.8234 -0.9670 -0.2162
 3186TIP3   OH230972   6.512   5.278  16.660  0.2484  0.5924  0.0860
 3186TIP3    H130973   6.511   5.297  16.566  0.2965  1.0153  0.1683
 3186TIP3    H230974   6.420   5.283  16.686  0.2291  0.4215  0.0525
 3187TIP3   OH230975   5.489   5.266  13.232  0.3957 -0.5536  0.2987
 3187TIP3    H130976   5.544   5.313  13.169  0.5217 -0.7222  0.2816
 3187TIP3    H230977   5.525   5.291  13.317  0.8522 -1.0828  0.2747
 3188TIP3   OH230978   5.865   4.612   3.991  0.6890  0.9303  0.5458
 3188TIP3    H130979   5.923   4.559   3.936  0.3597 -0.4420  1.4724
 3188TIP3    H230980   5.824   4.550   4.050 -1.8628  1.8152 -0.1457
 3189TIP3   OH230981   2.955   2.750   1.947 -0.2010 -0.4970  0.1391
 3189TIP3    H130982   2.963   2.655   1.935 -1.3153 -0.3438 -2.4614
 3189TIP3    H230983   3.040   2.784   1.918  0.4972 -0.6857  1.8308
 3190TIP3   OH230984   3.358   3.448  13.424 -0.1545  0.4461 -0.3332
 3190TIP3    H130985   3.419   3.494  13.482  1.8526  0.6901 -2.4722
 3190TIP3    H230986   3.329   3.515  13.362 -0.4856 -0.2744 -0.9673
 3191TIP3   OH230987   2.984   0.314  11.364 -0.2399 -0.2722  0.2906
 3191TIP3    H130988   2.927   0.296  11.289  0.1764 -2.9175  0.4994
 3191TIP3    H230989   2.924   0.339  11.434 -0.7582  0.8749 -0.5334
 3192TIP3   OH230990   4.833   0.480  14.509  0.4909  0.3531 -0.3724
 3192TIP3    H130991   4.883   0.540  14.453 -0.6800  2.0133  0.2568
 3192TIP3    H230992   4.899   0.422  14.547  1.5444  0.4850 -1.8812
 3193TIP3   OH230993   1.014   5.316  14.548 -0.2705 -0.3130 -0.4451
 3193TIP3    H130994   1.011   5.381  14.617  0.3496 -0.3014 -0.4243
 3193TIP3    H230995   1.034   5.365  14.469 -1.0695 -0.3128 -0.6588
 3194TIP3   OH230996   1.391   1.072   1.796 -0.7719  0.8604 -0.4290
 3194TIP3    H130997   1.399   1.053   1.889 -1.1548 -0.1286 -0.5824
 3194TIP3    H230998   1.466   1.028   1.756 -1.6661 -0.3771 -0.7931
 3195TIP3   OH230999   3.075   1.909  11.041  0.2294  0.2409 -0.0018
 3195TIP3    H131000   3.096   1.858  10.963  0.2455 -2.1561  1.4414
 3195TIP3    H231001   3.159   1.943  11.071  0.4813 -0.2474 -0.1389
 3196TIP3   OH231002   5.045   0.873  10.318 -0.0905 -0.0431  0.2753
 3196TIP3    H131003   5.105   0.945  10.338  0.0666 -0.2721  0.6388
 3196TIP3    H231004   4.958   0.913  10.317 -0.0978 -0.0052  1.3552
 3197TIP3   OH231005   0.732   6.423   1.719  0.0037 -0.3994 -0.6410
 3197TIP3    H131006   0.774   6.434   1.805  1.3910 -0.1339 -1.3293
 3197TIP3    H231007   0.749   6.331   1.697  0.3472 -0.2529 -0.9872
 3198TIP3   OH231008   1.578   6.286   2.654 -0.2253 -0.3346  0.2007
 3198TIP3    H131009   1.529   6.276   2.735  0.2417  0.4577  0.5780
 3198TIP3    H231010   1.518   6.332   2.595 -0.6628 -1.1464 -0.0070
 3199TIP3   OH231011   2.719   1.015   5.560 -0.3421 -0.4459  0.3916
 3199TIP3    H131012   2.700   1.109   5.566  1.5888  0.0090  0.0145
 3199TIP3    H231013   2.673   0.977   5.635  0.3961  1.0922  1.6950
 3200TIP3   OH231014   1.617   4.357   5.345 -0.0206  0.7397  0.1333
 3200TIP3    H131015   1.523   4.374   5.341 -0.0986  0.0328 -1.7111
 3200TIP3    H231016   1.654   4.411   5.275  1.1118  1.8490  1.5308
 3201TIP3   OH231017   2.039   6.181   3.371 -0.1738  0.1045 -0.0977
 3201TIP3    H131018   2.127   6.205   3.343  0.3090 -1.0942  0.2969
 3201TIP3    H231019   2.040   6.085   3.375 -1.7741  0.0050 -0.9371
 3202TIP3   OH231020   5.855   1.194  16.280  0.5349  0.3006 -0.2640
 3202TIP3    H131021   5.868   1.108  16.321  2.8841 -0.0641 -1.5653
 3202TIP3    H231022   5.791   1.179  16.211 -1.8428  0.4671  1.7708
 3203TIP3   OH231023   4.369   4.161  16.286  0.0983  0.2423  0.3877
 3203TIP3    H131024   4.448   4.202  16.322  0.1687  1.1261 -0.7192
 3203TIP3    H231025   4.300   4.183  16.349  0.6585 -0.2962  1.2177
 3204TIP3   OH231026   6.689   6.550   5.597  0.0960  0.2110 -0.0201
 3204TIP3    H131027   6.761   6.486   5.598  0.0564  0.1697  0.9630
 3204TIP3    H231028   6.727   6.629   5.636 -0.2329  0.3626 -0.0021
 3205TIP3   OH231029   5.722   1.064  16.062 -0.3276 -0.0370 -0.3154
 3205TIP3    H131030   5.702   0.996  16.126 -1.2889  1.1938  0.7490
 3205TIP3    H231031   5.675   1.037  15.982  0.1480 -1.1255 -0.2424
 3206TIP3   OH231032   4.772   4.967   3.620 -0.2695 -0.2965  0.1069
 3206TIP3    H131033   4.745   4.913   3.546  0.7559 -1.9430  0.8724
 3206TIP3    H231034   4.812   5.044   3.579 -2.0433  0.0965 -1.0107
 3207TIP3   OH231035   6.034   5.441  15.827 -0.0410 -0.5521  0.2990
 3207TIP3    H131036   5.994   5.528  15.838 -1.7938 -1.2036 -0.5278
 3207TIP3    H231037   5.979   5.383  15.879  1.0584 -1.2063  0.7550
 3208TIP3   OH231038   1.076   5.391  14.275  0.4431  0.6229 -0.1398
 3208TIP3    H131039   1.010   5.419  14.210  0.7989  0.1002 -0.7323
 3208TIP3    H231040   1.135   5.466  14.281  1.6686 -0.1074 -2.0851
 3209TIP3   OH231041   1.536   0.162  16.840 -0.1393 -0.1589 -0.0088
 3209TIP3    H131042   1.595   0.208  16.900  1.0249 -0.9059 -0.5325
 3209TIP3    H231043   1.564   0.071  16.844 -0.8908 -0.4349 -0.7101
 3210TIP3   OH231044   0.841   1.656   2.794  0.2740  0.2057 -0.6849
 3210TIP3    H131045   0.785   1.588   2.832  1.2337  0.6410  1.7258
 3210TIP3    H231046   0.824   1.734   2.847  0.9030  1.2084 -1.8961
 3211TIP3   OH231047   5.765   6.006  14.103  0.0186 -0.0486  0.3428
 3211TIP3    H131048   5.728   5.992  14.190 -1.2556 -0.1729 -0.2074
 3211TIP3    H231049   5.704   6.066  14.061  0.0948 -0.7563 -0.8044
 3212TIP3   OH231050   5.616   6.253  13.688  0.3615  0.5964 -0.2703
 3212TIP3    H131051   5.560   6.178  13.706 -0.9488  1.2373 -1.4660
 3212TIP3    H231052   5.671   6.227  13.615 -0.3720  0.9202 -0.9467
 3213TIP3   OH231053   2.581   4.824   3.282  0.4081  0.1164  0.3204
 3213TIP3    H131054   2.503   4.878   3.281  0.1466 -0.2358  0.9157
 3213TIP3    H231055   2.562   4.751   3.223  0.5934  0.4399 -0.1433
 3214TIP3   OH231056   0.546   4.856   6.264 -0.5160 -0.5687  0.1711
 3214TIP3    H131057   0.596   4.903   6.197 -0.9214  0.3180  0.4741
 3214TIP3    H231058   0.545   4.915   6.340  0.8493 -1.9894  1.3657
 3215TIP3   OH231059   0.253   2.984   4.226 -0.7254  0.0013  0.2024
 3215TIP3    H131060   0.331   3.008   4.176 -0.9066 -2.4358 -1.3862
 3215TIP3    H231061   0.181   3.027   4.179 -0.7274 -1.0381 -0.7944
 3216TIP3   OH231062   3.456   6.667  12.677  0.0449  0.1093 -0.0429
 3216TIP3    H131063   3.521   6.678  12.746  0.7343  1.3366 -0.8669
 3216TIP3    H231064   3.470   6.740  12.617 -1.4954 -0.1071 -0.7308
 3217TIP3   OH231065   5.519   5.688  15.556 -0.6011 -0.4236  0.5773
 3217TIP3    H131066   5.481   5.762  15.509 -0.3667  0.9633  2.4579
 3217TIP3    H231067   5.583   5.652  15.496 -1.4851  0.2213 -0.7975
 3218TIP3   OH231068   6.763   1.127  14.545 -0.0524 -0.2348 -0.1875
 3218TIP3    H131069   6.802   1.042  14.527  0.8349  0.0920  0.1554
 3218TIP3    H231070   6.831   1.190  14.522 -1.0968  0.4527 -1.5349
 3219TIP3   OH231071   1.732   3.238  10.972 -0.3205  0.5969  0.1987
 3219TIP3    H131072   1.658   3.263  11.028 -0.4127 -0.1376  0.4134
 3219TIP3    H231073   1.785   3.180  11.028  1.0018  1.9698  0.4316
 3220TIP3   OH231074   1.296   5.679   5.997  0.1891 -0.4340  0.6507
 3220TIP3    H131075   1.374   5.733   6.010  1.1314 -0.7952 -2.5098
 3220TIP3    H231076   1.326   5.589   6.011  0.5018 -0.6058 -0.9755
 3221TIP3   OH231077   5.011   3.874  15.539 -0.4663  0.6242  0.2711
 3221TIP3    H131078   5.075   3.930  15.584 -0.9156  0.7116  0.8106
 3221TIP3    H231079   4.997   3.916  15.455 -0.8730  1.3837  0.7068
 3222TIP3   OH231080   1.335   5.987  11.644  0.2834 -0.2903 -0.5772
 3222TIP3    H131081   1.273   5.962  11.713  1.4893  0.0001  0.6497
 3222TIP3    H231082   1.279   6.015  11.571 -1.0247  0.1722  0.5555
 3223TIP3   OH231083   1.211   5.976   5.133  0.2113  0.1647 -0.0270
 3223TIP3    H131084   1.188   6.057   5.179 -1.5757  0.0959 -0.7270
 3223TIP3    H231085   1.165   5.907   5.181  1.4078 -0.4260  0.3287
 3224TIP3   OH231086   6.054   2.009  14.565 -0.1549 -0.0303  0.1396
 3224TIP3    H131087   6.025   1.936  14.621 -0.5101 -0.4113 -0.5287
 3224TIP3    H231088   6.031   2.088  14.614 -1.1864 -0.3485  0.1773
 3225TIP3   OH231089   5.378   5.273   0.931  0.5686 -0.4247 -0.4976
 3225TIP3    H131090   5.438   5.347   0.926 -0.1883  0.1924 -0.8261
 3225TIP3    H231091   5.293   5.313   0.950  0.4319 -1.3666  0.9968
 3226TIP3   OH231092   0.078   1.235   1.109 -0.1639 -0.0009  0.2870
 3226TIP3    H131093   0.055   1.327   1.121  1.2704  0.2889  1.1620
 3226TIP3    H231094   0.131   1.234   1.029 -0.9721 -0.2314 -0.2525
 3227TIP3   OH231095   3.745   2.134   3.707  0.1606  0.1874 -0.0067
 3227TIP3    H131096   3.763   2.142   3.614  0.5348 -0.0338  0.0438
 3227TIP3    H231097   3.738   2.224   3.739  0.3911  0.2662 -0.1790
 3228TIP3   OH231098   2.027   5.271   4.087 -0.0475 -0.5162 -0.8215
 3228TIP3    H131099   2.080   5.343   4.122 -0.4342  0.2894 -1.8416
 3228TIP3    H231100   2.083   5.231   4.021  0.5957 -1.8934  0.4869
 3229TIP3   OH231101   6.104   4.836  14.275 -0.1089  0.1186  0.1200
 3229TIP3    H131102   6.143   4.819  14.361 -1.8583  1.8050  1.3459
 3229TIP3    H231103   6.080   4.749  14.243  1.4734 -0.6344  0.8528
 3230TIP3   OH231104   1.557   0.940   1.005  0.2153 -0.3431 -0.1917
 3230TIP3    H131105   1.630   0.882   1.026 -0.6790 -1.3184  0.2569
 3230TIP3    H231106   1.480   0.884   1.002 -0.6017  0.7353 -0.2418
 3231TIP3   OH231107   5.408   4.263  16.358  0.7410 -0.1294  0.3127
 3231TIP3    H131108   5.450   4.211  16.290  0.6430  1.0345 -0.6844
 3231TIP3    H231109   5.478   4.320  16.391  0.5989 -0.1352  0.6269
 3232TIP3   OH231110   5.769   6.489   0.182  0.0013 -0.5866  0.2022
 3232TIP3    H131111   5.811   6.475   0.266 -2.6418  1.9733  2.1608
 3232TIP3    H231112   5.835   6.533   0.129  1.9414 -2.8343  0.5588
 3233TIP3   OH231113   6.155   0.501  12.504  0.0750 -0.0659 -0.3631
 3233TIP3    H131114   6.116   0.422  12.541  0.4134 -0.6215 -1.1664
 3233TIP3    H231115   6.106   0.516  12.423  0.7638 -0.1127 -0.7923
 3234TIP3   OH231116   5.273   1.652  14.810 -0.1093  0.3530  0.3615
 3234TIP3    H131117   5.236   1.728  14.854  3.9432  1.9911  1.3612
 3234TIP3    H231118   5.294   1.684  14.722  5.0431  1.9905  1.8323
 3235TIP3   OH231119   0.554   0.464   4.621  0.0446  0.7504  0.6385
 3235TIP3    H131120   0.621   0.406   4.657 -0.4795 -0.1654  0.1861
 3235TIP3    H231121   0.581   0.480   4.530  0.8305  2.2345  1.0984
 3236TIP3   OH231122   3.684   1.323   2.089  0.0886 -0.4364  0.5510
 3236TIP3    H131123   3.682   1.358   2.179 -0.2903  0.2223  0.2960
 3236TIP3    H231124   3.628   1.246   2.093 -0.7879  0.1843  0.6562
 3237TIP3   OH231125   6.383   2.209  17.021 -0.1605 -0.3806 -0.1070
 3237TIP3    H131126   6.388   2.266  17.097 -2.3262 -0.8530  0.4429
 3237TIP3    H231127   6.315   2.248  16.966 -0.1986 -1.2817 -0.7201
 3238TIP3   OH231128   0.600   6.471  12.287 -0.3361  0.3288  0.2072
 3238TIP3    H131129   0.612   6.564  12.264  0.0477  0.5696  1.3112
 3238TIP3    H231130   0.554   6.473  12.371 -0.5687 -0.4924  0.1038
 3239TIP3   OH231131   6.518   4.706  12.951 -0.2025  0.2330 -0.9109
 3239TIP3    H131132   6.424   4.694  12.962 -0.4849  2.3481 -0.6155
 3239TIP3    H231133   6.547   4.745  13.034  1.5043 -2.9788  0.1558
 3240TIP3   OH231134   0.164   4.146  13.302 -0.5486 -0.2303 -0.2788
 3240TIP3    H131135   0.160   4.240  13.321  1.5001  0.2145 -1.6892
 3240TIP3    H231136   0.209   4.109  13.378 -1.7725 -0.1796  0.4971
 3241TIP3   OH231137   3.938   6.195   5.915  0.4208  0.4651 -0.2349
 3241TIP3    H131138   3.890   6.265   5.958  0.7486  0.3935  0.2486
 3241TIP3    H231139   3.879   6.120   5.920  0.6740  0.3061  0.5949
 3242TIP3   OH231140   3.657   4.542  12.264  0.0283 -0.1066 -0.0226
 3242TIP3    H131141   3.624   4.628  12.237  0.6807  0.7965  1.8437
 3242TIP3    H231142   3.720   4.562  12.334  1.2838 -2.0311 -0.5348
 3243TIP3   OH231143   5.435   3.176   0.197  0.0562  0.0849  0.0611
 3243TIP3    H131144   5.477   3.125   0.127 -0.3867  0.7334 -0.6992
 3243TIP3    H231145   5.347   3.139   0.204 -1.6144  2.9069 -3.0217
 3244TIP3   OH231146   1.868   2.385   4.061 -0.2843  0.3865  0.3171
 3244TIP3    H131147   1.949   2.342   4.033 -0.7995  0.2321 -1.0030
 3244TIP3    H231148   1.849   2.347   4.147 -0.0189 -1.0805 -0.2485
 3245TIP3   OH231149   5.980   1.748   4.062 -0.6859 -0.7336  0.4934
 3245TIP3    H131150   6.056   1.802   4.040 -0.1567 -1.4197  0.6141
 3245TIP3    H231151   5.910   1.781   4.006  0.2128 -1.3924 -1.0641
 3246TIP3   OH231152   3.439   3.488   0.672  0.2873 -0.3639 -0.1564
 3246TIP3    H131153   3.360   3.455   0.629  0.1939 -1.3812  0.7661
 3246TIP3    H231154   3.509   3.431   0.639  0.1751 -1.3214  1.1991
 3247TIP3   OH231155   3.876   3.003   3.143 -0.3249  0.1460 -0.2209
 3247TIP3    H131156   3.839   2.961   3.065  2.8395  0.2845 -1.9686
 3247TIP3    H231157   3.830   3.087   3.148 -1.1585 -0.2063 -1.4621
 3248TIP3   OH231158   0.320   6.305  14.863 -0.5905 -0.3806  0.2163
 3248TIP3    H131159   0.344   6.228  14.914 -1.9692 -0.7090  0.4022
 3248TIP3    H231160   0.226   6.298  14.851 -0.3972  0.0054 -1.8737
 3249TIP3   OH231161   5.960   3.881   0.621 -0.3283  0.5516  0.0882
 3249TIP3    H131162   5.994   3.867   0.709 -0.3612  0.6931  0.1251
 3249TIP3    H231163   5.995   3.967   0.595 -0.6087  0.6723  0.1047
 3250TIP3   OH231164   1.263   5.418  16.079 -0.2408 -0.0459  0.3372
 3250TIP3    H131165   1.319   5.350  16.042  0.3178 -0.9333  2.6595
 3250TIP3    H231166   1.178   5.375  16.089 -0.0562 -0.2219  1.2106
 3251TIP3   OH231167   3.915   4.286  11.304 -0.2009 -0.3578  0.1657
 3251TIP3    H131168   3.968   4.323  11.374  0.3169 -1.2954  0.2992
 3251TIP3    H231169   3.972   4.220  11.263 -1.4295 -1.8213  0.6911
 3252TIP3   OH231170   1.944   3.831  15.477 -0.6175 -0.2944  0.2456
 3252TIP3    H131171   1.939   3.871  15.564 -1.3580 -1.4466  0.7598
 3252TIP3    H231172   1.854   3.836  15.444 -0.5178 -0.6533 -0.0828
 3253TIP3   OH231173   6.655   6.498   3.474 -0.8003 -0.4618  0.1466
 3253TIP3    H131174   6.718   6.530   3.408  2.3697 -0.3462  2.9582
 3253TIP3    H231175   6.604   6.431   3.428  1.1516 -0.3088 -2.4652
 3254TIP3   OH231176   2.176   3.876   2.273  0.9932 -0.2577 -0.5917
 3254TIP3    H131177   2.214   3.914   2.352 -2.9658  1.6278  0.6682
 3254TIP3    H231178   2.169   3.950   2.212 -1.4708 -0.2072 -0.3363
 3255TIP3   OH231179   4.501   2.780  12.884  0.0802 -0.3719 -0.5617
 3255TIP3    H131180   4.500   2.824  12.799  2.2658 -0.8995 -0.9056
 3255TIP3    H231181   4.592   2.783  12.912 -0.7631  0.9633  2.4323
 3256TIP3   OH231182   4.479   3.642  13.012 -0.3334 -0.0719 -1.0477
 3256TIP3    H131183   4.388   3.652  12.981 -0.4997 -1.7690 -1.1854
 3256TIP3    H231184   4.516   3.575  12.954  0.4811 -0.6395  0.1096
 3257TIP3   OH231185   0.329   1.625   2.098  0.6179 -0.9229  0.2600
 3257TIP3    H131186   0.288   1.671   2.172  1.3878 -0.5034  0.4363
 3257TIP3    H231187   0.273   1.646   2.023 -0.3979 -1.6890  0.7926
 3258TIP3   OH231188   1.816   6.402  15.973  0.2830  0.0021 -0.2021
 3258TIP3    H131189   1.777   6.364  16.052  0.0232  0.5377 -0.0664
 3258TIP3    H231190   1.763   6.368  15.901 -0.1390  0.3424 -0.0571
 3259TIP3   OH231191   6.246   2.640  13.931  0.6326  0.1642  0.1609
 3259TIP3    H131192   6.238   2.548  13.956  0.5851  0.5215  1.5524
 3259TIP3    H231193   6.316   2.641  13.866  0.3868 -0.8937 -0.1410
 3260TIP3   OH231194   4.312   1.259  13.031  0.0991  0.8129 -0.2437
 3260TIP3    H131195   4.331   1.302  13.114 -1.0009 -0.8798  0.9512
 3260TIP3    H231196   4.282   1.329  12.974  0.2610  1.9136  0.9815
 3261TIP3   OH231197   5.483   0.362   0.310 -0.0135  0.4284 -0.6994
 3261TIP3    H131198   5.482   0.430   0.243  2.5506 -0.9255 -2.2561
 3261TIP3    H231199   5.566   0.374   0.356 -0.8853  0.1708  1.0288
 3262TIP3   OH231200   6.327   4.961   1.891  0.3874 -0.6458 -0.6945
 3262TIP3    H131201   6.293   4.872   1.891 -0.5809 -0.3068  0.3923
 3262TIP3    H231202   6.300   4.997   1.807  0.0696 -1.1148 -0.7970
 3263TIP3   OH231203   4.346   2.059   1.783  0.5901  0.0132  0.3673
 3263TIP3    H131204   4.415   2.048   1.849  0.2702  1.5073  0.9873
 3263TIP3    H231205   4.278   1.997   1.808  0.6641  0.2567  1.1922
 3264TIP3   OH231206   5.667   6.585   0.543 -0.1535 -0.2350  0.1416
 3264TIP3    H131207   5.698   6.615   0.458 -0.6867 -0.5752 -0.1758
 3264TIP3    H231208   5.735   6.524   0.573 -0.0209 -0.1966 -0.0814
 3265TIP3   OH231209   1.598   4.976   5.262 -0.1883 -0.0664 -0.1783
 3265TIP3    H131210   1.691   4.996   5.276 -0.0516  0.3022 -1.4589
 3265TIP3    H231211   1.557   5.061   5.246 -1.3099  0.1308  3.0112
 3266TIP3   OH231212   5.834   1.524  16.333  0.1859 -0.0487  0.5880
 3266TIP3    H131213   5.836   1.452  16.397  0.0264  2.0342  3.0931
 3266TIP3    H231214   5.887   1.492  16.260 -1.0179 -3.2103  0.9414
 3267TIP3   OH231215   0.782   1.699   5.863  0.1641 -0.3837 -0.1636
 3267TIP3    H131216   0.831   1.697   5.945  2.0612  1.1366 -1.1591
 3267TIP3    H231217   0.835   1.647   5.802 -0.8311 -0.8764 -0.6361
 3268TIP3   OH231218   0.339   4.820   0.791 -0.0424  0.1452  0.2076
 3268TIP3    H131219   0.428   4.843   0.819 -0.5588 -0.1226  2.1969
 3268TIP3    H231220   0.353   4.764   0.714  1.5320 -0.2379  0.7193
 3269TIP3   OH231221   2.091   1.742  14.881 -0.5442  0.1703  0.1364
 3269TIP3    H131222   2.031   1.764  14.952  0.9343 -0.5186  1.6957
 3269TIP3    H231223   2.164   1.803  14.891  0.4654 -1.0096  0.3109
 3270TIP3   OH231224   4.517   4.970   3.399 -0.2420  0.9825  0.0887
 3270TIP3    H131225   4.440   4.941   3.447 -0.9374  1.2990 -0.8149
 3270TIP3    H231226   4.579   4.897   3.407 -0.8794  0.4513  0.2618
 3271TIP3   OH231227   1.826   0.649  16.727  0.1976 -0.0430  0.2753
 3271TIP3    H131228   1.796   0.710  16.659 -0.5292 -0.4646  0.2053
 3271TIP3    H231229   1.896   0.696  16.772 -2.2564  2.1156  2.1870
 3272TIP3   OH231230   0.479   1.328   0.348 -0.2779  0.0670  0.5131
 3272TIP3    H131231   0.574   1.320   0.359 -0.0915 -1.5984 -1.5381
 3272TIP3    H231232   0.468   1.384   0.271 -0.9248 -0.0746  0.4912
 3273TIP3   OH231233   6.191   1.125  13.947  0.3585 -0.5158  0.0698
 3273TIP3    H131234   6.281   1.159  13.953 -0.1304  0.7850  0.3196
 3273TIP3    H231235   6.196   1.056  13.882  1.1535  0.9439 -1.5046
 3274TIP3   OH231236   2.354   3.057   6.488 -0.1610 -0.2383 -0.1828
 3274TIP3    H131237   2.398   3.129   6.533  0.7667 -1.4445  0.9455
 3274TIP3    H231238   2.266   3.089   6.471 -0.6369  0.2826  2.7004
 3275TIP3   OH231239   2.859   6.204  15.771  0.5611 -0.3873 -0.1970
 3275TIP3    H131240   2.833   6.286  15.729  1.8350 -0.2594 -0.7797
 3275TIP3    H231241   2.794   6.141  15.741  1.0080 -0.1322 -1.7943
 3276TIP3   OH231242   4.525   6.474   5.323  0.6120  0.3886 -0.0490
 3276TIP3    H131243   4.448   6.526   5.299  0.5257  0.3174  0.0787
 3276TIP3    H231244   4.566   6.454   5.239  0.0804 -0.2091 -0.1728
 3277TIP3   OH231245   2.441   1.682  13.865 -0.0495  0.1385 -0.7370
 3277TIP3    H131246   2.350   1.680  13.893 -0.0936  0.0307 -0.8887
 3277TIP3    H231247   2.469   1.773  13.880  0.4328 -0.2941  1.2605
 3278TIP3   OH231248   1.261   5.615  16.265  0.2275  0.2042  0.4777
 3278TIP3    H131249   1.282   5.548  16.200 -0.9811 -1.2150  1.4473
 3278TIP3    H231250   1.198   5.672  16.221  0.6153  0.1943 -0.0947
 3279TIP3   OH231251   2.061   1.123  12.355  1.0194 -0.0155 -0.5140
 3279TIP3    H131252   2.073   1.156  12.444 -0.3099  0.3440 -0.4517
 3279TIP3    H231253   2.148   1.129  12.316  1.1586  2.0275  0.0174
 3280TIP3   OH231254   1.390   4.931  15.940  0.5097 -0.2020  0.5014
 3280TIP3    H131255   1.313   4.925  15.884  1.5888 -0.2987 -1.0700
 3280TIP3    H231256   1.461   4.898  15.885  1.5423 -0.8821  2.1740
 3281TIP3   OH231257   5.985   4.467   0.550 -0.6384 -0.2594  0.0064
 3281TIP3    H131258   6.027   4.476   0.636 -0.7053 -0.5867  0.0761
 3281TIP3    H231259   5.900   4.428   0.570 -1.2314  0.9280 -0.0729
 3282TIP3   OH231260   2.647   0.773   4.618  0.2309  0.5139 -0.4922
 3282TIP3    H131261   2.597   0.789   4.538 -0.5168 -2.4940 -0.7423
 3282TIP3    H231262   2.735   0.750   4.587 -0.0124 -0.4795 -0.4880
 3283TIP3   OH231263   2.027   5.523  14.586  0.6351 -0.3028 -0.8594
 3283TIP3    H131264   2.021   5.503  14.679 -1.5529  2.1918 -0.3556
 3283TIP3    H231265   2.112   5.566  14.576  0.8757 -0.5734 -0.0215
 3284TIP3   OH231266   3.453   4.224   0.260 -0.3265 -0.9494 -0.3070
 3284TIP3    H131267   3.480   4.247   0.349  1.0960  0.9253 -1.1526
 3284TIP3    H231268   3.451   4.128   0.259  1.7116 -1.0661  1.1673
 3285TIP3   OH231269   6.394   2.055   3.024  0.2290  0.0838 -0.1118
 3285TIP3    H131270   6.381   2.073   3.117  2.1670 -0.6370  0.3478
 3285TIP3    H231271   6.482   2.089   3.005 -0.3388  0.7163 -1.8361
 3286TIP3   OH231272   3.149   3.043   5.171 -0.0670 -0.4772  0.6805
 3286TIP3    H131273   3.235   3.076   5.194  0.0976  1.3275 -2.1002
 3286TIP3    H231274   3.164   2.953   5.141  1.1239  0.2850 -1.1218
 3287TIP3   OH231275   5.627   0.764  14.948 -0.0247 -0.1442  0.0395
 3287TIP3    H131276   5.700   0.806  14.905  1.3182 -1.3903  0.9788
 3287TIP3    H231277   5.594   0.700  14.885  3.2495 -3.4544  1.2968
 3288TIP3   OH231278   5.194   5.544  12.474 -0.6295  0.2021  0.5860
 3288TIP3    H131279   5.244   5.484  12.530 -2.2605 -0.9981  0.8328
 3288TIP3    H231280   5.209   5.630  12.512 -0.0484 -0.3330  1.6295
 3289TIP3   OH231281   6.463   6.627   0.031  0.1832  0.2337  0.2294
 3289TIP3    H131282   6.415   6.630  -0.052  0.0463 -0.3882  0.2789
 3289TIP3    H231283   6.491   6.717   0.046  1.2184  0.1577 -1.0766
 3290TIP3   OH231284   3.152   0.972  14.946  0.4635 -0.1092 -0.2444
 3290TIP3    H131285   3.205   0.969  15.026 -1.1145 -0.4154  0.8341
 3290TIP3    H231286   3.171   0.890  14.902  1.5814  0.1928 -0.3595
 3291TIP3   OH231287   4.477   1.978   0.262  0.0165  0.0261  0.4619
 3291TIP3    H131288   4.534   2.050   0.233 -0.1487 -0.2110 -0.4635
 3291TIP3    H231289   4.537   1.906   0.280  0.3400  0.7503  2.7030
 3292TIP3   OH231290   0.046   3.852  12.334  0.3162  0.5438  0.0168
 3292TIP3    H131291   0.043   3.871  12.240 -1.0126  0.4138  0.0083
 3292TIP3    H231292   0.085   3.765  12.340 -1.3595 -0.3028 -0.5974
 3293TIP3   OH231293   0.996   4.962   2.406 -0.1912  0.0989 -0.0097
 3293TIP3    H131294   0.920   5.005   2.365 -0.5118 -1.7550 -1.5081
 3293TIP3    H231295   1.054   4.942   2.332  0.9382 -0.1072  0.9114
 3294TIP3   OH231296   3.769   4.064  13.066  0.0207  1.0619  0.0463
 3294TIP3    H131297   3.863   4.064  13.083 -0.0441 -0.0177  0.4681
 3294TIP3    H231298   3.752   4.148  13.023  1.6699  0.0861 -2.8044
 3295TIP3   OH231299   1.032   2.737   1.999  0.4208  0.4765  0.2299
 3295TIP3    H131300   1.085   2.687   2.061 -1.1353  0.5519  1.6960
 3295TIP3    H231301   0.989   2.671   1.944 -1.7669  0.0465  2.2728
 3296TIP3   OH231302   4.507   0.125  11.674 -0.3217 -0.0396  0.1185
 3296TIP3    H131303   4.426   0.169  11.699 -0.3821 -0.8227  1.3852
 3296TIP3    H231304   4.493   0.033  11.697 -0.4215 -0.9254 -2.9779
 3297TIP3   OH231305   6.600   6.170  17.312  0.2939 -0.0728 -0.6440
 3297TIP3    H131306   6.617   6.075  17.317 -0.1006 -0.1931 -1.5559
 3297TIP3    H231307   6.686   6.210  17.327  0.6067 -0.5878 -1.0394
 3298TIP3   OH231308   3.127   1.654  13.821 -0.5403 -0.2643  0.4036
 3298TIP3    H131309   3.174   1.686  13.745  1.3945  1.0780  2.0606
 3298TIP3    H231310   3.193   1.606  13.872 -1.2490  0.5307  2.1634
 3299TIP3   OH231311   2.543   5.638  11.089  0.0334  0.2107  0.1900
 3299TIP3    H131312   2.450   5.647  11.107  0.1841  1.8786  0.2874
 3299TIP3    H231313   2.586   5.647  11.174  0.2885 -1.0092  0.2137
 3300TIP3   OH231314   0.156   0.788  11.726  0.4657  0.2790  0.1298
 3300TIP3    H131315   0.073   0.824  11.755  0.1481  0.6152 -1.1371
 3300TIP3    H231316   0.221   0.853  11.751  0.4225 -0.1481  1.4475
 3301TIP3   OH231317   6.111   4.039   5.463  0.3043 -0.0203 -0.2281
 3301TIP3    H131318   6.069   4.114   5.420 -1.0980 -0.8889 -0.4068
 3301TIP3    H231319   6.093   4.051   5.556  2.6815  1.4407  0.1466
 3302TIP3   OH231320   2.866   3.788  14.127 -0.1039 -0.6669 -0.2895
 3302TIP3    H131321   2.781   3.817  14.096  0.5102  0.3551 -1.0751
 3302TIP3    H231322   2.921   3.866  14.126  0.5598 -1.0555  1.3077
 3303TIP3   OH231323   0.524   1.025   1.217  0.1330  0.3816 -0.1991
 3303TIP3    H131324   0.504   1.115   1.240 -0.5404  0.1851 -0.0013
 3303TIP3    H231325   0.536   0.981   1.301  1.7238  0.5468 -0.2948
 3304TIP3   OH231326   5.050   5.650   1.064 -0.2118  0.3925 -0.5292
 3304TIP3    H131327   4.990   5.605   1.124  1.0115  1.2513  1.4436
 3304TIP3    H231328   5.089   5.580   1.013  0.8845 -0.7869  1.7654
 3305TIP3   OH231329   0.694   0.012   3.149 -0.2651  0.1846  0.0701
 3305TIP3    H131330   0.750   0.018   3.226 -0.3986 -1.0779  0.2872
 3305TIP3    H231331   0.727   0.079   3.089 -0.1565  1.1891  1.2080
 3306TIP3   OH231332   1.040   1.749   5.583 -0.0727  0.0325 -0.1737
 3306TIP3    H131333   1.114   1.714   5.634 -0.5580 -0.1961  0.3825
 3306TIP3    H231334   0.965   1.695   5.609 -0.4156  0.1923 -0.8195
 3307TIP3   OH231335   0.808   3.477   6.248  0.4089 -0.7385  0.3523
 3307TIP3    H131336   0.838   3.534   6.178  0.1892  0.0334  0.8736
 3307TIP3    H231337   0.768   3.536   6.312 -1.1389 -1.5886  0.2414
 3308TIP3   OH231338   0.835   4.278   1.208 -0.0160  0.2710 -0.6247
 3308TIP3    H131339   0.889   4.325   1.271 -2.5688  0.3211  1.7345
 3308TIP3    H231340   0.875   4.295   1.123  2.0734  2.4223  0.6935
 3309TIP3   OH231341   4.344   0.979  13.763  0.1851 -0.5568 -0.0420
 3309TIP3    H131342   4.387   0.896  13.742  1.2004 -0.4121  1.2815
 3309TIP3    H231343   4.409   1.045  13.740 -0.0531 -0.2178  0.2579
 3310TIP3   OH231344   0.999   2.576  11.780 -0.0258  0.0270 -0.3884
 3310TIP3    H131345   1.069   2.572  11.844  0.0997 -0.9880 -0.5753
 3310TIP3    H231346   1.020   2.507  11.717 -0.1139  1.0337 -1.5615
 3311TIP3   OH231347   4.424   4.659  15.040  0.0555 -0.4137 -0.3304
 3311TIP3    H131348   4.399   4.567  15.051  0.5412 -0.4051  0.9090
 3311TIP3    H231349   4.423   4.672  14.945 -1.9288 -1.1617 -0.4761
 3312TIP3   OH231350   3.134   5.619  11.122  0.1437 -0.2689 -0.3893
 3312TIP3    H131351   3.210   5.561  11.118  1.8791  1.9055 -0.4535
 3312TIP3    H231352   3.106   5.630  11.031 -0.5328 -1.3684 -0.3342
 3313TIP3   OH231353   6.432   1.887   4.336 -0.0162  0.6053  0.6992
 3313TIP3    H131354   6.471   1.805   4.367 -0.0076 -0.0772 -1.0137
 3313TIP3    H231355   6.468   1.954   4.394  0.8191 -0.4729  1.4635
 3314TIP3   OH231356   5.168   4.612  12.450 -0.0494 -0.0903 -0.2556
 3314TIP3    H131357   5.203   4.670  12.517  2.0782 -0.3528 -1.0495
 3314TIP3    H231358   5.151   4.529  12.495  0.3967  0.0389  0.1533
 3315TIP3   OH231359   2.489   3.189   1.435  0.3441  0.2392 -0.5581
 3315TIP3    H131360   2.518   3.256   1.373 -0.8574  2.3642  1.0272
 3315TIP3    H231361   2.562   3.180   1.496  0.9892 -0.8411 -1.4667
 3316TIP3   OH231362   2.060   0.141  15.298 -0.3549 -0.2142  0.0128
 3316TIP3    H131363   2.089   0.059  15.258  0.5255  0.4729 -0.8341
 3316TIP3    H231364   1.980   0.164  15.249 -0.4060 -0.3825  0.0149
 3317TIP3   OH231365   4.280   0.052  14.985  0.1969  0.3047  0.0229
 3317TIP3    H131366   4.213   0.096  15.037  0.8573 -1.0486  2.1620
 3317TIP3    H231367   4.297  -0.030  15.032  3.7711  0.8306 -0.0286
 3318TIP3   OH231368   3.618   0.103   5.763 -0.1909  0.2405  0.8866
 3318TIP3    H131369   3.623   0.034   5.829 -1.0034 -3.2224 -2.2829
 3318TIP3    H231370   3.709   0.125   5.744  0.1711 -1.1536  0.8967
 3319TIP3   OH231371   3.386   0.964  15.110  0.1282  0.2682 -0.2810
 3319TIP3    H131372   3.408   1.047  15.067  1.5253  0.7093  1.2053
 3319TIP3    H231373   3.376   0.987  15.202 -0.3790 -1.0845  0.0181
 3320TIP3   OH231374   1.849   6.328  11.486 -0.2903 -0.0224 -0.0967
 3320TIP3    H131375   1.886   6.363  11.405  1.0686  1.0438  0.9384
 3320TIP3    H231376   1.766   6.374  11.496  1.2929  2.8806  1.0523
 3321TIP3   OH231377   6.299   3.191   4.452  0.0437  0.5586  0.1700
 3321TIP3    H131378   6.328   3.262   4.510 -0.5379  0.3833  0.6863
 3321TIP3    H231379   6.355   3.199   4.375  2.0364 -0.2840  1.4586
 3322TIP3   OH231380   2.351   6.610   3.387  0.4637  0.2707  0.3654
 3322TIP3    H131381   2.329   6.611   3.293 -0.7674  0.9022  0.6390
 3322TIP3    H231382   2.430   6.557   3.392  0.9449  0.7987 -1.1177
 3323TIP3   OH231383   3.131   5.164   3.539 -0.2427 -0.2945  0.3591
 3323TIP3    H131384   3.105   5.078   3.570 -2.7565  0.3113  0.1535
 3323TIP3    H231385   3.086   5.226   3.598 -1.7955  0.8349 -1.8547
 3324TIP3   OH231386   5.719   3.486   1.079 -0.6389 -0.2443  0.4486
 3324TIP3    H131387   5.777   3.546   1.032  0.1826 -1.1340  0.2811
 3324TIP3    H231388   5.767   3.403   1.081 -1.9067 -1.0089  0.3450
 3325TIP3   OH231389   1.604   1.610  13.370  0.4196  0.1362  0.2479
 3325TIP3    H131390   1.548   1.660  13.429  0.2472 -0.8779  0.9817
 3325TIP3    H231391   1.618   1.667  13.295 -1.1250  0.6428  0.3109
 3326TIP3   OH231392   4.750   4.885   5.988  0.3346 -0.6185  0.0449
 3326TIP3    H131393   4.729   4.871   6.080 -0.1080 -0.2050  0.0138
 3326TIP3    H231394   4.813   4.957   5.989 -1.7270  1.2988 -0.1021
 3327TIP3   OH231395   3.615   2.100  10.681  0.1099  0.0442 -0.2437
 3327TIP3    H131396   3.575   2.144  10.756  0.8891 -0.3033  0.3819
 3327TIP3    H231397   3.542   2.088  10.620 -0.2393  1.7379 -0.2360
 3328TIP3   OH231398   4.115   2.576  16.127  0.0035  0.4211 -0.5905
 3328TIP3    H131399   4.109   2.604  16.218  0.9584  0.9311 -0.6675
 3328TIP3    H231400   4.087   2.652  16.077 -0.3303  0.2058 -0.7361
 3329TIP3   OH231401   2.965   0.245  13.573 -0.4555 -0.1178 -0.3419
 3329TIP3    H131402   2.936   0.154  13.582  1.0888 -0.6369 -0.3253
 3329TIP3    H231403   3.024   0.245  13.498  0.0062  0.7545  0.0001
 3330TIP3   OH231404   6.459   0.642   0.683 -0.3551 -0.1270 -0.4988
 3330TIP3    H131405   6.532   0.703   0.667 -0.7992  0.5176 -0.1505
 3330TIP3    H231406   6.488   0.590   0.758 -0.0827 -0.1593 -0.6240
 3331TIP3   OH231407   4.589   1.365  12.114  0.0027  0.0552 -0.1512
 3331TIP3    H131408   4.632   1.356  12.199 -0.7253 -0.5327  0.1664
 3331TIP3    H231409   4.599   1.458  12.092  1.8541 -0.1651 -0.3354
 3332TIP3   OH231410   1.583   3.029   5.279  1.0555  0.1527 -0.4301
 3332TIP3    H131411   1.591   3.118   5.314 -0.5947  0.5679 -1.0336
 3332TIP3    H231412   1.664   3.016   5.230  1.9945  0.7448  0.8910
 3333TIP3   OH231413   0.520   1.862   1.868  0.3602  0.6604  0.1777
 3333TIP3    H131414   0.570   1.814   1.934 -0.5424  1.3373  1.3744
 3333TIP3    H231415   0.580   1.867   1.793  0.4142 -2.5549 -0.1625
 3334TIP3   OH231416   2.104   5.619  12.606  0.3385  0.0619 -0.3633
 3334TIP3    H131417   2.121   5.666  12.525  0.1272  1.6610  0.4959
 3334TIP3    H231418   2.117   5.683  12.675 -2.0454 -0.5314  0.7415
 3335TIP3   OH231419   1.799   1.928   0.486 -0.1449 -0.0322  0.1214
 3335TIP3    H131420   1.734   1.898   0.423  0.5214  0.0716 -0.6179
 3335TIP3    H231421   1.859   1.983   0.436  0.0194  0.5913  0.9774
 3336TIP3   OH231422   2.292   3.406  14.062 -0.0732  0.2244  0.1013
 3336TIP3    H131423   2.301   3.495  14.029  1.8653  0.2969  0.7070
 3336TIP3    H231424   2.263   3.355  13.986  2.4639  0.7232 -1.3253
 3337TIP3   OH231425   6.588   1.833   2.048 -0.3341 -0.2289 -0.1892
 3337TIP3    H131426   6.582   1.806   1.957  1.4488  0.6069 -0.6024
 3337TIP3    H231427   6.671   1.796   2.079 -0.5241  0.1681  0.8547
 3338TIP3   OH231428   0.578   5.655  13.829  0.0745 -0.1921 -0.2175
 3338TIP3    H131429   0.624   5.699  13.901  2.5272 -2.5537 -0.2242
 3338TIP3    H231430   0.507   5.607  13.872 -0.7646  1.2547  0.1118
 3339TIP3   OH231431   5.431   2.857  14.976  0.0502 -0.1507 -0.3615
 3339TIP3    H131432   5.503   2.881  15.034  1.0215 -1.3130 -1.0286
 3339TIP3    H231433   5.470   2.795  14.914 -1.0108  0.7867 -2.0543
 3340TIP3   OH231434   0.867   0.492   1.666  0.7116 -0.1038  0.0686
 3340TIP3    H131435   0.940   0.547   1.638  0.4532  0.8026  1.1268
 3340TIP3    H231436   0.863   0.422   1.600 -0.6763  2.5579 -2.9658
 3341TIP3   OH231437   0.912   2.283   0.451  0.0005 -0.4485  0.1601
 3341TIP3    H131438   0.983   2.344   0.431 -0.1443 -0.1975  0.4146
 3341TIP3    H231439   0.951   2.220   0.512 -0.6209  1.0623  2.2283
 3342TIP3   OH231440   4.244   0.740   5.751 -0.2520 -0.4055 -0.1122
 3342TIP3    H131441   4.291   0.719   5.671  1.6769  1.6245  0.4092
 3342TIP3    H231442   4.284   0.821   5.783 -1.9037 -0.3765  2.1666
 3343TIP3   OH231443   5.204   4.700  15.807 -0.1475 -0.1260  0.3032
 3343TIP3    H131444   5.134   4.649  15.766 -0.3797  0.9014 -0.6305
 3343TIP3    H231445   5.217   4.774  15.748  2.5689 -0.8818 -0.2009
 3344TIP3   OH231446   1.189   2.475  17.031  0.1995 -0.2066 -0.7616
 3344TIP3    H131447   1.276   2.459  17.067 -0.2362 -1.0237 -0.0345
 3344TIP3    H231448   1.199   2.554  16.977  1.6016 -0.8577 -1.4872
 3345TIP3   OH231449   4.583   4.344  12.393 -0.6631 -0.0699  0.2351
 3345TIP3    H131450   4.629   4.261  12.405 -0.6814 -0.5378 -2.2421
 3345TIP3    H231451   4.566   4.376  12.481  0.9129 -1.8216  1.2433
 3346TIP3   OH231452   2.558   5.545   2.466  0.2181 -0.3285  0.1209
 3346TIP3    H131453   2.512   5.498   2.397  1.0361  0.1688 -0.7867
 3346TIP3    H231454   2.647   5.510   2.464  0.2156 -0.4191  1.0415
 3347TIP3   OH231455   6.589   2.630  12.144  0.5369  0.1485  0.2926
 3347TIP3    H131456   6.558   2.557  12.092 -0.0607  1.3120 -1.0452
 3347TIP3    H231457   6.549   2.616  12.230 -0.3025 -0.6129 -0.2001
 3348TIP3   OH231458   4.433   3.405   2.286  0.1009 -0.5157 -0.3780
 3348TIP3    H131459   4.453   3.466   2.215  1.2007  1.0723  1.2140
 3348TIP3    H231460   4.343   3.426   2.311  0.4334  0.3979  0.0804
 3349TIP3   OH231461   4.585   3.247  12.054  0.3105 -1.0989  0.4541
 3349TIP3    H131462   4.590   3.157  12.023 -1.8013 -1.6014  1.3614
 3349TIP3    H231463   4.606   3.241  12.148 -0.6494 -0.7925  0.6954
 3350TIP3   OH231464   1.922   4.225  12.988  0.4245  0.2449 -0.0464
 3350TIP3    H131465   1.880   4.261  12.909  3.5565  1.7861 -1.1752
 3350TIP3    H231466   1.905   4.291  13.056 -0.5458 -0.0819  0.0406
 3351TIP3   OH231467   5.315   4.162   2.396  0.5143 -0.1540 -0.0787
 3351TIP3    H131468   5.410   4.159   2.398  0.6540  0.0466 -2.6542
 3351TIP3    H231469   5.287   4.082   2.439  1.8289 -0.1634  0.8012
 3352TIP3   OH231470   1.437   0.407  12.526  0.2232 -0.8078 -0.1638
 3352TIP3    H131471   1.475   0.397  12.613 -0.4586 -1.6567  0.0466
 3352TIP3    H231472   1.412   0.318  12.500 -1.2571 -0.3377 -0.4483
 3353TIP3   OH231473   0.286   0.356   0.281  0.3939 -0.1959 -0.3923
 3353TIP3    H131474   0.368   0.322   0.246  1.1652  0.5352  0.6357
 3353TIP3    H231475   0.221   0.288   0.263  1.6516 -1.7495  0.6724
 3354TIP3   OH231476   1.666   2.827   3.706 -0.2427  0.2784 -0.0587
 3354TIP3    H131477   1.660   2.737   3.674  1.1454 -0.7089  2.2425
 3354TIP3    H231478   1.575   2.858   3.705 -0.6707 -0.8837 -1.5322
 3355TIP3   OH231479   0.818   4.924   1.134  0.9301  0.2925 -0.6675
 3355TIP3    H131480   0.836   4.860   1.066  2.6014  0.7540 -0.6886
 3355TIP3    H231481   0.724   4.914   1.152  1.1792 -2.3406 -0.4536
 3356TIP3   OH231482   5.567   2.432  16.884  0.8559  0.4393 -0.6561
 3356TIP3    H131483   5.526   2.352  16.918 -0.8464  0.5657 -2.2424
 3356TIP3    H231484   5.543   2.434  16.791  1.5414  2.3708 -0.8418
 3357TIP3   OH231485   4.526   2.113   1.577  0.1250  0.4325  0.2819
 3357TIP3    H131486   4.454   2.091   1.635 -0.3917 -0.3777 -0.6502
 3357TIP3    H231487   4.497   2.193   1.532  0.0010  0.3493  0.2164
 3358TIP3   OH231488   2.445   5.651  17.226 -0.5162 -0.4503  0.3740
 3358TIP3    H131489   2.479   5.712  17.292  3.7451 -0.2082 -1.7072
 3358TIP3    H231490   2.482   5.566  17.252  0.9981 -0.4012 -1.4071
 3359TIP3   OH231491   1.381   3.045   3.428  0.3790 -0.2282 -0.2098
 3359TIP3    H131492   1.476   3.059   3.439  0.4044 -1.2703  1.1546
 3359TIP3    H231493   1.368   3.047   3.334  1.5073  1.4757 -0.3889
 3360TIP3   OH231494   1.413   4.405   4.056  0.2342 -0.6070 -0.5078
 3360TIP3    H131495   1.446   4.472   3.996 -0.4847 -0.7857 -1.1247
 3360TIP3    H231496   1.459   4.421   4.138  0.3370  0.4270 -0.7504
 3361TIP3   OH231497   5.500   1.086   1.561 -0.1651  0.2730 -0.6729
 3361TIP3    H131498   5.589   1.063   1.533 -0.8286 -2.5122 -0.8337
 3361TIP3    H231499   5.445   1.065   1.486 -1.1443  0.0620  0.0750
 3362TIP3   OH231500   0.114   0.068  15.646 -0.3379  0.2707 -0.6717
 3362TIP3    H131501   0.050   0.100  15.710 -0.4368  0.5725 -0.9194
 3362TIP3    H231502   0.197   0.105  15.675  0.0567 -1.5226  0.6607
 3363TIP3   OH231503   2.379   3.417  15.019  0.7861 -0.2666 -0.0567
 3363TIP3    H131504   2.395   3.407  15.113 -0.9316 -0.5746  0.2194
 3363TIP3    H231505   2.375   3.328  14.985 -0.4760 -0.2106 -0.0786
 3364TIP3   OH231506   6.210   6.721   5.768 -0.0620 -0.1830 -0.0098
 3364TIP3    H131507   6.166   6.805   5.779  0.4825  0.1365 -0.2460
 3364TIP3    H231508   6.145   6.665   5.726 -0.7856 -0.2054  1.1131
 3365TIP3   OH231509   5.036   1.988  17.247  0.1250 -0.7333  0.2204
 3365TIP3    H131510   5.119   2.026  17.277  1.2550  0.0746 -3.4229
 3365TIP3    H231511   5.060   1.936  17.170 -2.8263  0.2939 -1.5486
 3366TIP3   OH231512   1.697   0.248   4.515  0.1191 -0.3067  0.1868
 3366TIP3    H131513   1.684   0.313   4.446 -0.2101 -0.2798  0.2710
 3366TIP3    H231514   1.609   0.228   4.546  0.3468  1.3315  2.1155
 3367TIP3   OH231515   2.054   3.908  16.328 -0.6822  0.1394 -0.0842
 3367TIP3    H131516   2.132   3.963  16.334 -0.7320  0.3410 -1.0919
 3367TIP3    H231517   2.005   3.927  16.407  0.6414 -0.5438  0.9422
 3368TIP3   OH231518   1.168   2.019  12.439  0.0204  0.3331 -0.7400
 3368TIP3    H131519   1.115   1.976  12.507 -0.7581 -0.4521 -1.8058
 3368TIP3    H231520   1.232   1.953  12.414 -0.8403 -0.0635 -2.0101
 3369TIP3   OH231521   4.720   0.653   0.602  0.1822  0.2240 -0.1944
 3369TIP3    H131522   4.633   0.676   0.571  0.4130  1.1820 -0.1585
 3369TIP3    H231523   4.753   0.590   0.538 -1.0302 -1.1753  0.4868
 3370TIP3   OH231524   2.684   5.548  14.017  0.1438 -0.2304  0.4214
 3370TIP3    H131525   2.683   5.637  13.981  2.1700 -0.8672 -1.3967
 3370TIP3    H231526   2.746   5.553  14.090  0.2135 -0.1439  0.3567
 3371TIP3   OH231527   3.601   2.129   1.598 -0.0020  0.6442  0.1990
 3371TIP3    H131528   3.597   2.126   1.503  3.1815 -0.4185 -0.0118
 3371TIP3    H231529   3.535   2.066   1.627  1.1364 -1.4678 -1.4901
 3372TIP3   OH231530   5.860   6.479   1.919 -0.0255  0.5733 -1.2926
 3372TIP3    H131531   5.792   6.471   1.986  0.3327  2.4483 -0.6343
 3372TIP3    H231532   5.847   6.567   1.883  1.9689  0.9607 -1.1979
 3373TIP3   OH231533   3.756   3.193   3.954  0.1855 -0.3475  0.8915
 3373TIP3    H131534   3.721   3.271   3.997  1.1292 -0.2164  1.4623
 3373TIP3    H231535   3.801   3.226   3.876  1.8678 -0.1059  1.9035
 3374TIP3   OH231536   2.345   4.664   3.531 -0.2338  0.1309  0.5474
 3374TIP3    H131537   2.298   4.667   3.448  1.5179 -2.0519 -0.6240
 3374TIP3    H231538   2.296   4.722   3.588 -2.0703  0.9543 -1.7084
 3375TIP3   OH231539   3.788   0.664  11.131  0.3457  0.3642  0.0708
 3375TIP3    H131540   3.868   0.677  11.182 -0.4215  0.4536  1.2832
 3375TIP3    H231541   3.748   0.751  11.128  0.1873  0.2787 -0.3641
 3376TIP3   OH231542   0.748   3.815  14.876  0.5036 -0.9027 -0.1835
 3376TIP3    H131543   0.759   3.901  14.916 -0.1683 -1.7096  1.8717
 3376TIP3    H231544   0.826   3.804  14.822  1.1388  0.5420  0.3765
 3377TIP3   OH231545   2.940   6.635   5.062 -0.3071  0.0434  0.3868
 3377TIP3    H131546   2.888   6.666   4.988  0.3396 -0.5741 -0.3409
 3377TIP3    H231547   2.881   6.644   5.138 -1.5108 -0.7149 -0.4181
 3378TIP3   OH231548   6.644   4.426   0.419 -0.3364 -1.0328 -0.8004
 3378TIP3    H131549   6.633   4.387   0.506 -2.1349 -0.6182 -0.8169
 3378TIP3    H231550   6.711   4.493   0.432 -2.0354  0.4628  0.7929
 3379TIP3   OH231551   3.407   5.708  16.012 -0.2536  0.4332 -0.1469
 3379TIP3    H131552   3.331   5.754  16.048 -0.8273 -1.2435  0.9281
 3379TIP3    H231553   3.377   5.677  15.926 -0.2361  1.1132 -0.4017
 3380TIP3   OH231554   1.750   2.617  12.492 -0.6407 -0.2052  0.2131
 3380TIP3    H131555   1.782   2.629  12.582  0.6700  1.3201 -0.4021
 3380TIP3    H231556   1.797   2.540  12.461  0.1819  0.2458  0.3075
 3381TIP3   OH231557   0.995   5.978   2.693  0.2170  0.4591  0.2187
 3381TIP3    H131558   0.974   6.064   2.657  1.5773  0.6054 -0.2944
 3381TIP3    H231559   0.958   5.979   2.781 -1.3400  0.8818 -0.4121
 3382TIP3   OH231560   0.483   4.477  15.244 -0.2797  0.4969  0.2036
 3382TIP3    H131561   0.473   4.533  15.167  1.3089 -0.2013 -0.5474
 3382TIP3    H231562   0.572   4.442  15.237 -0.0129  0.5919  2.4884
 3383TIP3   OH231563   6.355   3.672  17.120 -0.0323 -0.3970  0.2336
 3383TIP3    H131564   6.409   3.699  17.195  0.5566 -0.9572  0.0179
 3383TIP3    H231565   6.330   3.581  17.140 -0.1708 -0.4293 -0.0848
 3384TIP3   OH231566   4.754   4.741   2.067  0.0245  0.4289 -0.0219
 3384TIP3    H131567   4.769   4.704   2.153  1.0384 -0.5256 -0.5799
 3384TIP3    H231568   4.662   4.768   2.067 -0.3465 -0.7882  0.8911
 3385TIP3   OH231569   2.368   4.674   3.022  0.1717  0.2013 -0.3702
 3385TIP3    H131570   2.302   4.684   2.954 -2.3124 -1.6523  1.5593
 3385TIP3    H231571   2.412   4.591   3.000  0.0229  0.0776 -0.1935
 3386TIP3   OH231572   1.236   3.075   4.222  0.2764  0.1499 -0.0217
 3386TIP3    H131573   1.168   3.099   4.160 -0.9564  3.5751  2.3568
 3386TIP3    H231574   1.192   3.016   4.284 -1.1863  3.2556  2.1867
 3387TIP3   OH231575   4.678   0.536   3.085  0.1242  0.4383 -0.0415
 3387TIP3    H131576   4.642   0.553   2.997  1.8274 -1.4715 -1.1976
 3387TIP3    H231577   4.772   0.525   3.070  0.4474 -0.0223  2.0341
 3388TIP3   OH231578   1.284   2.841  14.116 -0.2799  0.4808 -0.1983
 3388TIP3    H131579   1.286   2.787  14.195  0.3407  2.7603  1.4393
 3388TIP3    H231580   1.203   2.891  14.122  0.9882  2.5474  0.3729
 3389TIP3   OH231581   6.115   2.024  16.742  0.5363  0.3816  0.4100
 3389TIP3    H131582   6.023   2.016  16.719  0.9620 -2.1952 -0.7138
 3389TIP3    H231583   6.118   2.096  16.805 -2.3179  0.0648  1.0274
 3390TIP3   OH231584   2.329   2.080  14.189  0.6846  0.2137 -0.0128
 3390TIP3    H131585   2.252   2.067  14.244  1.8989 -0.7748  1.5250
 3390TIP3    H231586   2.383   2.143  14.237  1.3517  0.0451 -0.5197
 3391TIP3   OH231587   1.971   6.013  12.091 -0.5367  0.6002 -0.2157
 3391TIP3    H131588   2.040   6.076  12.115  0.6905 -0.5786 -0.5150
 3391TIP3    H231589   1.908   6.065  12.041  0.4993  1.5799 -0.5494
 3392TIP3   OH231590   5.641   2.694   6.182 -0.1189 -0.0599 -0.2772
 3392TIP3    H131591   5.553   2.690   6.145  0.2707 -2.5994 -1.1647
 3392TIP3    H231592   5.681   2.610   6.158  1.7966  0.0839  1.9655
 3393TIP3   OH231593   6.570   4.857  17.083 -0.3699 -0.5716 -0.1550
 3393TIP3    H131594   6.538   4.906  17.158 -1.2375  1.9582 -2.0574
 3393TIP3    H231595   6.523   4.774  17.086  0.0781 -0.8110  2.3688
 3394TIP3   OH231596   0.847   2.505   1.164 -0.1594  0.2580  0.4211
 3394TIP3    H131597   0.919   2.488   1.102 -1.6248 -0.2155 -1.2368
 3394TIP3    H231598   0.814   2.591   1.138 -1.0854 -0.1492  0.2225
 3395TIP3   OH231599   5.034   5.614  15.100  0.7819  0.1655  0.0888
 3395TIP3    H131600   5.114   5.590  15.053  0.4811 -0.4277 -0.1256
 3395TIP3    H231601   4.992   5.531  15.122 -0.6029  0.4458 -1.2331
 3396TIP3   OH231602   5.103   1.446  13.971  0.3382 -0.3856  0.3143
 3396TIP3    H131603   5.147   1.463  14.055 -0.8524 -0.5759  0.9911
 3396TIP3    H231604   5.035   1.382  13.992 -0.8912  0.6064 -0.5274
 3397TIP3   OH231605   2.939   6.466  13.587  0.0526  0.0854  0.2810
 3397TIP3    H131606   2.915   6.555  13.614  1.4765  0.1391  1.4435
 3397TIP3    H231607   2.890   6.453  13.506 -1.6695  1.2052  1.0751
 3398TIP3   OH231608   1.027   0.071   6.004 -0.6427 -0.1007 -0.6409
 3398TIP3    H131609   1.037  -0.023   5.995 -0.3273 -0.1051 -0.2489
 3398TIP3    H231610   1.095   0.109   5.948 -0.0793 -0.1153  0.0248
 3399TIP3   OH231611   5.951   1.432   3.530  0.7517  0.2058 -0.5460
 3399TIP3    H131612   5.898   1.404   3.456 -0.8827  0.0613  0.6412
 3399TIP3    H231613   6.001   1.507   3.496 -1.4224  1.4086 -1.2724
 3400TIP3   OH231614   2.225   0.993  15.883  0.0126  0.2415 -0.2048
 3400TIP3    H131615   2.133   0.968  15.880  0.6715 -2.4612  0.0239
 3400TIP3    H231616   2.271   0.923  15.836  1.7198  3.1640 -3.3347
 3401TIP3   OH231617   0.488   1.315  10.613  0.6615 -0.0137  0.3824
 3401TIP3    H131618   0.441   1.328  10.530  1.7784 -1.4667 -0.5415
 3401TIP3    H231619   0.498   1.403  10.649  0.7453  0.7422 -1.3819
 3402TIP3   OH231620   4.907   1.256  11.607  0.1932  0.0095  0.2330
 3402TIP3    H131621   4.816   1.227  11.604 -0.0884  0.7322  1.2651
 3402TIP3    H231622   4.915   1.303  11.690  1.1181  1.2602 -0.5195
 3403TIP3   OH231623   2.310   3.939  16.583  0.5386  0.2712  0.3676
 3403TIP3    H131624   2.267   3.993  16.649  1.8728  0.4069  1.1657
 3403TIP3    H231625   2.318   3.997  16.507  0.2280  0.5622  0.5513
 3404TIP3   OH231626   5.829   5.398  14.847  0.3189 -0.1503 -0.0132
 3404TIP3    H131627   5.792   5.437  14.926  0.4617 -3.2476  1.7595
 3404TIP3    H231628   5.924   5.408  14.857  0.3340 -0.4765  0.1694
 3405TIP3   OH231629   0.840   2.040   3.251  0.4356 -0.0857  0.1763
 3405TIP3    H131630   0.918   2.033   3.196  1.0514 -0.4831  1.0635
 3405TIP3    H231631   0.870   2.011   3.338 -0.4184  0.8099  0.7921
 3406TIP3   OH231632   6.581   3.459   3.944  0.0583  0.0922  0.0166
 3406TIP3    H131633   6.501   3.410   3.924  0.4178 -0.7676  0.6941
 3406TIP3    H231634   6.552   3.530   4.001 -0.7162  1.6230 -2.1153
 3407TIP3   OH231635   1.628   0.560  14.408  0.0720  0.5744  0.3334
 3407TIP3    H131636   1.634   0.484  14.351  1.5718  1.2375 -0.4289
 3407TIP3    H231637   1.535   0.565  14.432  0.0859 -2.0706  1.2566
 3408TIP3   OH231638   3.842   3.859  14.743  0.1930  0.1082 -0.6886
 3408TIP3    H131639   3.773   3.860  14.809 -0.4078  0.2641 -1.3200
 3408TIP3    H231640   3.920   3.891  14.790 -0.2360  0.2658 -0.0725
 3409TIP3   OH231641   3.688   5.471  14.903 -0.3265  0.7383  0.1525
 3409TIP3    H131642   3.780   5.477  14.877  0.1173  0.7526  1.6558
 3409TIP3    H231643   3.659   5.562  14.912 -0.4312  0.7324 -0.1168
 3410TIP3   OH231644   1.526   1.433   5.923 -0.2685  0.3710 -0.1429
 3410TIP3    H131645   1.454   1.444   5.985 -0.3309  2.7656 -0.5460
 3410TIP3    H231646   1.557   1.522   5.907  0.6182 -0.3062 -2.5494
 3411TIP3   OH231647   3.036   2.898   4.178 -0.4905 -0.4354  0.1025
 3411TIP3    H131648   3.042   2.957   4.253 -2.0371 -1.2683  0.9140
 3411TIP3    H231649   3.127   2.873   4.160 -0.1398 -0.6968  2.0712
 3412TIP3   OH231650   5.758   0.650  10.996  0.3235 -0.2018 -0.0183
 3412TIP3    H131651   5.726   0.740  10.987 -0.1567 -0.4223 -0.6608
 3412TIP3    H231652   5.693   0.607  11.051  0.2482 -0.2925 -0.1751
 3413TIP3   OH231653   0.138   5.763  15.108 -0.1440 -0.1212  0.2441
 3413TIP3    H131654   0.094   5.727  15.185 -0.1474  0.1061  0.3491
 3413TIP3    H231655   0.083   5.835  15.080  0.1414  0.1427  0.3536
 3414TIP3   OH231656   5.033   1.268   3.948  0.0702 -0.0885  0.1751
 3414TIP3    H131657   4.981   1.255   4.027  0.4913 -1.7869  0.2144
 3414TIP3    H231658   4.985   1.221   3.880  0.2733  0.4356 -0.3362
 3415TIP3   OH231659   6.654   1.459   3.039 -0.5502  0.3934  0.1621
 3415TIP3    H131660   6.673   1.516   3.114 -0.6675  0.2790  0.2780
 3415TIP3    H231661   6.576   1.410   3.065  0.1113 -0.5320  0.4614
 3416TIP3   OH231662   0.326   1.243   0.573  0.2984 -0.6003 -0.3788
 3416TIP3    H131663   0.361   1.292   0.499  0.4957 -0.4245 -0.1666
 3416TIP3    H231664   0.354   1.291   0.651 -0.2525 -0.5576 -0.1991
 3417TIP3   OH231665   6.720   4.221  15.369  0.2978  0.1954 -0.5103
 3417TIP3    H131666   6.712   4.267  15.285  1.4880 -1.4674 -1.6002
 3417TIP3    H231667   6.795   4.163  15.357 -1.5114 -2.5384  0.4937
 3418TIP3   OH231668   2.394   2.616  13.408 -0.5094  0.1889  0.6878
 3418TIP3    H131669   2.482   2.598  13.440  0.0260 -0.7160 -1.1752
 3418TIP3    H231670   2.348   2.533  13.415 -1.0062  0.4783  0.9519
 3419TIP3   OH231671   6.146   6.521   4.701 -0.1247  0.1387  0.4890
 3419TIP3    H131672   6.119   6.551   4.614 -0.1343  1.4145  0.9041
 3419TIP3    H231673   6.070   6.536   4.757  0.2599  0.4506  0.9439
 3420TIP3   OH231674   1.411   1.361  15.129 -0.6343 -0.0709 -0.7005
 3420TIP3    H131675   1.385   1.452  15.111  0.1931  0.5107  0.9032
 3420TIP3    H231676   1.413   1.320  15.042 -1.8141  1.2112 -1.3778
 3421TIP3   OH231677   5.399   5.482   2.602  0.0036 -0.2062  0.1746
 3421TIP3    H131678   5.417   5.470   2.695 -0.1299  0.3382  0.2734
 3421TIP3    H231679   5.368   5.397   2.572 -0.7382 -0.1704  0.8144
 3422TIP3   OH231680   6.673   3.230  12.731 -0.0220  0.6660 -0.3240
 3422TIP3    H131681   6.753   3.198  12.772 -0.8625  0.7638  1.5013
 3422TIP3    H231682   6.626   3.274  12.802 -0.8499  2.2563 -1.7660
 3423TIP3   OH231683   5.175   4.316  15.330 -1.0724  0.0845 -0.3006
 3423TIP3    H131684   5.135   4.261  15.397  1.4564 -1.5526 -0.0099
 3423TIP3    H231685   5.177   4.403  15.368  1.4871 -1.0083  2.4909
 3424TIP3   OH231686   4.084   4.052  12.144 -0.3560 -0.5707  0.0722
 3424TIP3    H131687   4.152   4.007  12.094  0.4204 -0.9459  1.4284
 3424TIP3    H231688   4.125   4.072  12.228 -2.1442 -1.4668  1.2172
 3425TIP3   OH231689   4.939   5.682  17.141  0.4047  0.2566  0.3494
 3425TIP3    H131690   4.930   5.638  17.226  0.7569 -0.7468 -0.1259
 3425TIP3    H231691   4.852   5.719  17.124 -0.1073 -0.8761  0.4230
 3426TIP3   OH231692   5.497   2.690  15.939  0.0718  0.1499 -0.1302
 3426TIP3    H131693   5.485   2.777  15.977  1.0570  0.6469 -0.8905
 3426TIP3    H231694   5.563   2.649  15.994  1.4194  0.8304 -1.1523
 3427TIP3   OH231695   3.576   6.766  16.774 -0.2034 -0.5471 -0.2061
 3427TIP3    H131696   3.594   6.776  16.867 -0.2906 -1.9055 -0.0328
 3427TIP3    H231697   3.662   6.751  16.734  0.0232  1.4263 -0.5729
 3428TIP3   OH231698   5.165   6.173  12.398  0.0212  0.1340  0.2053
 3428TIP3    H131699   5.244   6.118  12.399 -0.0230 -0.2600 -3.5211
 3428TIP3    H231700   5.107   6.134  12.463  2.0482 -0.8918  1.4809
 3429TIP3   OH231701   3.430   0.442  13.970 -0.0298 -0.4161 -0.0461
 3429TIP3    H131702   3.403   0.514  14.026  1.4108 -0.4629  0.7318
 3429TIP3    H231703   3.348   0.397  13.948 -1.0687  1.9290 -1.2747
 3430TIP3   OH231704   3.457   1.213  14.785  0.2873  0.3420  0.2127
 3430TIP3    H131705   3.402   1.146  14.744 -0.5469  1.1533 -0.0242
 3430TIP3    H231706   3.502   1.255  14.712  1.6840 -0.6810  0.4441
 3431TIP3   OH231707   4.246   5.771  10.616  0.4419 -0.0445  0.2117
 3431TIP3    H131708   4.155   5.801  10.621 -0.0783 -1.4328 -0.4714
 3431TIP3    H231709   4.298   5.851  10.624 -0.7837  0.6295  2.0927
 3432TIP3   OH231710   5.015   5.928  16.129 -0.0110 -0.5958 -0.2832
 3432TIP3    H131711   4.993   5.845  16.087 -0.2063 -1.2985  1.1356
 3432TIP3    H231712   4.977   5.995  16.072 -0.7299 -1.5232 -0.9244
 3433TIP3   OH231713   1.287   5.118   5.276  0.6784 -0.1667  0.2648
 3433TIP3    H131714   1.376   5.137   5.246 -0.2809 -0.4304 -3.2252
 3433TIP3    H231715   1.242   5.202   5.272  0.2834 -0.3870 -0.0449
 3434TIP3   OH231716   1.318   0.556  13.077  0.4600  0.3416  0.4908
 3434TIP3    H131717   1.367   0.634  13.051  0.9763 -0.6143 -1.6158
 3434TIP3    H231718   1.285   0.520  12.995  1.4385 -2.4297  1.2151
 3435TIP3   OH231719   4.218   2.525  15.847  0.5549  0.3478  0.5523
 3435TIP3    H131720   4.278   2.594  15.817  0.1771  0.7090  0.6302
 3435TIP3    H231721   4.171   2.565  15.920 -0.5427  0.4245 -0.1876
 3436TIP3   OH231722   6.466   3.664  16.795 -0.0771 -0.0499 -1.0765
 3436TIP3    H131723   6.508   3.581  16.772  1.8689  0.7212 -0.5473
 3436TIP3    H231724   6.486   3.722  16.721  2.3904  1.1494  0.3800
 3437TIP3   OH231725   5.880   6.420   3.976 -0.2715 -0.0441 -0.0662
 3437TIP3    H131726   5.943   6.416   3.905  1.5486 -0.1133  1.4860
 3437TIP3    H231727   5.798   6.449   3.934  0.2055 -1.9008 -2.4718
 3438TIP3   OH231728   3.052   3.992   2.101 -0.2320  0.0646  0.5595
 3438TIP3    H131729   3.128   3.963   2.050 -0.3066 -0.0209  0.4967
 3438TIP3    H231730   2.989   4.022   2.035  0.5124  2.0336  0.6698
 3439TIP3   OH231731   1.820   0.226   5.586 -0.0690 -0.1811 -0.1909
 3439TIP3    H131732   1.745   0.180   5.549  2.2152 -1.7573 -3.2739
 3439TIP3    H231733   1.850   0.170   5.658  0.1566 -1.3722 -1.1816
 3440TIP3   OH231734   1.086   0.249   4.476  0.8639  0.1860 -0.7884
 3440TIP3    H131735   1.116   0.160   4.494 -0.2149 -0.0211  0.1289
 3440TIP3    H231736   1.029   0.241   4.400  0.2160 -0.0369 -0.2886
 3441TIP3   OH231737   5.725   5.335   1.334  0.0126  0.3750 -0.1883
 3441TIP3    H131738   5.643   5.290   1.314  0.2819  0.3081 -1.2167
 3441TIP3    H231739   5.794   5.273   1.307  0.3929  0.8299 -0.2729
 3442TIP3   OH231740   1.229   0.060  14.863 -0.5355 -0.0918  0.4950
 3442TIP3    H131741   1.179  -0.012  14.824  0.4604 -0.8326  0.5400
 3442TIP3    H231742   1.195   0.139  14.820 -2.0303 -0.5214  0.8481
 3443TIP3   OH231743   4.553   5.144  13.686  0.5083  0.0128 -0.0521
 3443TIP3    H131744   4.464   5.116  13.666  0.2642  0.0984  0.8983
 3443TIP3    H231745   4.544   5.229  13.729  0.8716 -0.9151  1.9855
 3444TIP3   OH231746   4.551   6.038  14.833 -1.0692 -0.0232  0.1377
 3444TIP3    H131747   4.634   6.067  14.794 -1.3922  2.3792  1.0534
 3444TIP3    H231748   4.493   6.027  14.757 -0.6417  0.8974 -0.3479
 3445TIP3   OH231749   1.559   4.345  10.875 -0.4520 -0.8873 -0.2882
 3445TIP3    H131750   1.559   4.253  10.899  0.1821 -0.4400  1.5738
 3445TIP3    H231751   1.541   4.392  10.956  0.1707  0.6655 -0.9968
 3446TIP3   OH231752   2.833   6.555   0.163 -0.1007  0.6796 -0.2861
 3446TIP3    H131753   2.810   6.466   0.135  0.3681  0.9862 -1.7018
 3446TIP3    H231754   2.774   6.611   0.112 -0.4496  1.1942  0.6616
 3447TIP3   OH231755   1.347   0.903  14.539  0.0750 -0.5392  0.3624
 3447TIP3    H131756   1.408   0.903  14.465  1.0474 -0.0756  1.1365
 3447TIP3    H231757   1.323   0.811  14.550  3.7528 -1.4352  2.4718
 3448TIP3   OH231758   5.141   6.393   1.309  0.0328  0.0874  0.0874
 3448TIP3    H131759   5.201   6.368   1.379 -0.3763 -0.5432  0.2192
 3448TIP3    H231760   5.191   6.454   1.255  0.5032  0.2265  0.6692
 3449TIP3   OH231761   2.012   0.467   5.225  0.5250  0.1689 -0.1488
 3449TIP3    H131762   2.015   0.384   5.273 -0.1449 -0.7742 -1.6561
 3449TIP3    H231763   2.095   0.510   5.247  0.6110 -0.5941  1.1519
 3450TIP3   OH231764   4.747   3.087   2.335  0.0830 -0.2121 -0.2572
 3450TIP3    H131765   4.657   3.085   2.303  0.3293  1.5881 -1.1556
 3450TIP3    H231766   4.770   3.180   2.338  1.6688 -0.5902  0.6872
 3451TIP3   OH231767   4.104   3.276   4.201 -0.7197 -0.2453  0.2265
 3451TIP3    H131768   4.159   3.304   4.274 -1.4897  0.6768  0.4757
 3451TIP3    H231769   4.120   3.182   4.194  0.6536 -0.0515  0.4758
 3452TIP3   OH231770   2.318   5.562  10.786 -0.2755  0.6374 -0.3553
 3452TIP3    H131771   2.257   5.490  10.774 -0.9249  1.0289  0.4625
 3452TIP3    H231772   2.288   5.606  10.865  0.8283  1.0872 -0.1599
 3453TIP3   OH231773   1.975   6.421  14.917 -0.6526 -0.0141  0.1963
 3453TIP3    H131774   2.030   6.399  14.992  0.7092 -0.3525 -0.8775
 3453TIP3    H231775   1.914   6.348  14.910 -0.6271 -0.1009  0.8139
 3454TIP3   OH231776   3.964   5.017  15.676 -0.3261  0.2238 -0.2231
 3454TIP3    H131777   3.900   4.996  15.609 -0.6441  0.7387 -0.0898
 3454TIP3    H231778   4.013   4.936  15.689 -0.0361  0.2068 -1.3175
 3455TIP3   OH231779   4.177   1.828   4.267  0.3490  0.5867  0.3028
 3455TIP3    H131780   4.230   1.908   4.272  0.3293  0.5356  1.9536
 3455TIP3    H231781   4.134   1.823   4.352 -2.4713  0.6967 -1.0276
 3456TIP3   OH231782   3.074   1.568  14.566 -0.0037 -0.4032 -0.0269
 3456TIP3    H131783   3.038   1.585  14.479 -0.0617  0.6202  0.1750
 3456TIP3    H231784   3.165   1.543  14.549 -0.2591 -1.0983 -0.4239
 3457TIP3   OH231785   0.559   5.107  13.722  0.3986  0.6859  0.5140
 3457TIP3    H131786   0.549   5.180  13.661  0.2296  0.6009  0.4371
 3457TIP3    H231787   0.470   5.074  13.734  0.5354  0.1752  0.1518
 3458TIP3   OH231788   3.644   5.237  13.573  0.1135 -0.3070  0.1619
 3458TIP3    H131789   3.560   5.192  13.581  0.0276 -0.0507  0.7846
 3458TIP3    H231790   3.667   5.230  13.480 -0.8607  0.0955 -0.1237
 3459TIP3   OH231791   3.582   5.351   0.606  0.0914  0.1379 -0.3700
 3459TIP3    H131792   3.600   5.399   0.525  1.4726 -0.7513 -0.6176
 3459TIP3    H231793   3.636   5.273   0.601  0.8056  0.4121  1.7466
 3460TIP3   OH231794   2.404   4.005  13.709  0.3164 -0.5485 -0.1228
 3460TIP3    H131795   2.391   4.097  13.687  2.5987 -0.8291 -3.2945
 3460TIP3    H231796   2.315   3.971  13.720 -0.7113  1.4489 -1.5997
 3461TIP3   OH231797   2.232   5.182  13.952  0.0075 -0.3543  0.2032
 3461TIP3    H131798   2.312   5.156  13.906 -0.3440 -1.1062 -0.0053
 3461TIP3    H231799   2.246   5.152  14.042  0.7208  1.1703  0.6258
 3462TIP3   OH231800   4.568   4.601   1.696 -0.8623 -0.0328 -0.6369
 3462TIP3    H131801   4.547   4.665   1.764 -1.2441  0.6464 -1.3707
 3462TIP3    H231802   4.598   4.524   1.744  1.6714  1.3878  0.2427
 3463TIP3   OH231803   3.031   5.247  11.187  0.0982 -0.2591 -0.7625
 3463TIP3    H131804   3.102   5.264  11.126  0.6077 -1.3106 -0.4958
 3463TIP3    H231805   3.011   5.154  11.175 -0.6323 -0.1857 -0.2028
 3464TIP3   OH231806   0.036   6.612   0.652  0.6507 -0.2147  0.0196
 3464TIP3    H131807  -0.046   6.643   0.613  0.1256 -2.2980 -0.6540
 3464TIP3    H231808   0.055   6.677   0.721 -0.1503  1.7257 -1.4755
 3465TIP3   OH231809   4.882   3.150  14.290  0.5369 -0.2634 -0.2941
 3465TIP3    H131810   4.838   3.231  14.265  0.0690 -0.3284  0.2881
 3465TIP3    H231811   4.867   3.091  14.216 -0.9521 -0.5051  0.1629
 3466TIP3   OH231812   1.774   1.192   0.656  0.1778  0.1784  0.0923
 3466TIP3    H131813   1.827   1.236   0.589  0.2832  0.6365  0.4650
 3466TIP3    H231814   1.838   1.143   0.708  0.3767  1.4581  1.1006
 3467TIP3   OH231815   6.606   2.739   1.036 -0.1783  0.1639 -0.4948
 3467TIP3    H131816   6.663   2.797   0.986 -0.6051 -0.4934 -1.8116
 3467TIP3    H231817   6.666   2.677   1.079  0.5338  3.0971  3.2411
 3468TIP3   OH231818   1.521   4.072   3.678  0.1134 -0.0085  0.2722
 3468TIP3    H131819   1.488   3.982   3.688 -0.5766  0.1715 -0.3279
 3468TIP3    H231820   1.446   4.122   3.646  0.8272  0.5193 -0.6341
 3469TIP3   OH231821   5.440   4.402  15.517 -1.0983  0.3503  0.0525
 3469TIP3    H131822   5.530   4.371  15.506 -1.3539  0.0549 -1.5522
 3469TIP3    H231823   5.442   4.457  15.595  0.0171 -1.3319  1.2624
 3470TIP3   OH231824   1.162   2.406   0.380  0.0297  0.0777  0.7399
 3470TIP3    H131825   1.196   2.488   0.415  1.9568 -0.7741  0.9810
 3470TIP3    H231826   1.219   2.338   0.416 -1.6066 -1.4150  0.6915
 3471TIP3   OH231827   3.581   1.167  15.027  0.3520 -0.6372  0.5456
 3471TIP3    H131828   3.550   1.251  15.062 -0.4705 -0.8468  0.3472
 3471TIP3    H231829   3.565   1.173  14.933  1.1000 -0.6809  0.4163
 3472TIP3   OH231830   1.953   0.960   5.532  0.1858 -0.2851 -0.2856
 3472TIP3    H131831   1.913   0.900   5.469 -2.2665  1.5384 -0.5944
 3472TIP3    H231832   1.924   0.927   5.617 -1.7285  0.7326 -0.4855
 3473TIP3   OH231833   2.816   0.025   4.064 -0.3515  0.5234  0.7651
 3473TIP3    H131834   2.786   0.082   4.135 -0.5313  0.3742  0.8109
 3473TIP3    H231835   2.797   0.073   3.984 -2.0096 -0.1445  0.7239
 3474TIP3   OH231836   1.358   5.552  13.824  0.3267 -0.0073  0.1610
 3474TIP3    H131837   1.337   5.605  13.900 -0.2872  0.4754 -0.3357
 3474TIP3    H231838   1.302   5.586  13.754  1.3677  0.0250 -0.6912
 3475TIP3   OH231839   4.262   2.283  16.993 -0.1541  0.1061  0.4063
 3475TIP3    H131840   4.246   2.209  16.935 -0.5019  0.7184 -0.3018
 3475TIP3    H231841   4.356   2.277  17.013  0.4326  0.9272 -1.7582
 3476TIP3   OH231842   2.114   0.052  12.391  0.5674  0.4810 -0.3352
 3476TIP3    H131843   2.034   0.051  12.338  0.5541  0.6417 -0.3200
 3476TIP3    H231844   2.114   0.139  12.431  0.4536  0.2725  0.1184
 3477TIP3   OH231845   5.688   1.335   2.245  0.4364 -0.2900  0.7911
 3477TIP3    H131846   5.614   1.278   2.264 -0.4732  0.1979 -1.0717
 3477TIP3    H231847   5.658   1.423   2.270 -0.0993  0.0815 -0.9915
 3478TIP3   OH231848   0.512   2.985  15.985  0.5391  0.0492  0.6381
 3478TIP3    H131849   0.593   3.009  15.941  0.5814 -0.5667  0.3665
 3478TIP3    H231850   0.447   3.049  15.955  0.9576  0.6416  0.9842
 3479TIP3   OH231851   0.847   5.455  12.231 -0.0417  0.1092 -0.2001
 3479TIP3    H131852   0.888   5.477  12.147 -2.7916  2.2134 -1.1152
 3479TIP3    H231853   0.851   5.359  12.234  0.7129  0.0078 -2.4247
 3480TIP3   OH231854   2.443   3.954   2.822 -0.4709  0.2795  0.2309
 3480TIP3    H131855   2.526   3.962   2.775 -0.2221 -1.2181  0.3792
 3480TIP3    H231856   2.432   4.039   2.865  1.4046  0.2187  0.9073
 3481TIP3   OH231857   3.429   1.614  13.914  0.3812  0.1379  0.1316
 3481TIP3    H131858   3.504   1.571  13.872  0.1786  0.2628 -0.3726
 3481TIP3    H231859   3.386   1.543  13.963  1.4323  0.2978  1.3198
 3482TIP3   OH231860   5.981   1.973  15.207 -0.3278 -0.2111 -0.0606
 3482TIP3    H131861   6.071   1.971  15.174 -0.1345  0.1558  0.4395
 3482TIP3    H231862   5.927   1.959  15.129  0.1113  0.8170 -0.5706
 3483TIP3   OH231863   6.461   5.304  16.405  0.9848  0.1867 -0.2003
 3483TIP3    H131864   6.410   5.253  16.342  0.8500 -0.2150  0.2227
 3483TIP3    H231865   6.522   5.354  16.351  0.9528 -0.2377 -0.6457
 3484TIP3   OH231866   3.237   2.320  16.513 -0.0712 -0.4178 -0.1261
 3484TIP3    H131867   3.178   2.347  16.583  0.4556  0.5843 -0.0461
 3484TIP3    H231868   3.217   2.228  16.498 -1.2443 -0.2390  0.2912
 3485TIP3   OH231869   0.610   3.166   1.579 -0.1692 -0.3421 -0.2139
 3485TIP3    H131870   0.632   3.215   1.499 -2.8179 -0.7438 -1.3043
 3485TIP3    H231871   0.563   3.089   1.546 -3.1443  0.4806  1.7434
 3486TIP3   OH231872   5.477   6.665   3.532  0.3812 -0.2412  0.9073
 3486TIP3    H131873   5.484   6.656   3.627 -0.6768 -0.8578  0.9318
 3486TIP3    H231874   5.395   6.622   3.509  1.4418 -1.6172 -0.5070
 3487TIP3   OH231875   1.353   6.010  17.062  0.1528  0.1610  0.2117
 3487TIP3    H131876   1.260   6.029  17.062  0.0701 -0.2070 -0.5064
 3487TIP3    H231877   1.392   6.081  17.112 -0.5459  0.1157  0.8338
 3488TIP3   OH231878   3.118   3.282   3.322 -0.1572 -0.1424  0.3044
 3488TIP3    H131879   3.039   3.320   3.283  0.4454  0.2103 -0.6177
 3488TIP3    H231880   3.140   3.209   3.264 -0.4552 -0.9719  1.2185
 3489TIP3   OH231881   2.519   3.513   4.773 -0.2250  0.1399  0.2642
 3489TIP3    H131882   2.480   3.440   4.822 -0.4766  1.7243  2.5927
 3489TIP3    H231883   2.493   3.497   4.682 -0.6794 -2.3806  0.7510
 3490TIP3   OH231884   5.928   1.543  13.607 -0.5055 -0.6776  0.4702
 3490TIP3    H131885   5.902   1.460  13.648  0.0669 -1.0869  0.0282
 3490TIP3    H231886   5.980   1.516  13.531  0.9652  0.1062  1.1574
 3491TIP3   OH231887   3.851   3.815  13.968 -0.5296  0.2226 -0.4911
 3491TIP3    H131888   3.926   3.759  13.987 -2.0373 -1.4248  1.1168
 3491TIP3    H231889   3.823   3.848  14.054 -1.0466  1.6024 -1.1663
 3492TIP3   OH231890   3.953   3.648  16.325  0.0133 -0.3615  0.4304
 3492TIP3    H131891   3.982   3.616  16.239  0.3691  1.7493 -0.2774
 3492TIP3    H231892   4.019   3.712  16.351 -1.8575  1.5671  0.6608
 3493TIP3   OH231893   4.067   0.657  12.980  0.1661  0.2032  0.1588
 3493TIP3    H131894   4.048   0.743  12.944  0.0591 -0.3171 -1.0695
 3493TIP3    H231895   4.163   0.655  12.988  0.1374  0.6184  0.7071
 3494TIP3   OH231896   2.992   1.994  15.082  0.3712  0.0273 -0.1361
 3494TIP3    H131897   3.005   2.059  15.014 -1.2661  0.1872 -0.3346
 3494TIP3    H231898   3.036   2.030  15.159  2.1079 -0.0836 -1.0273
 3495TIP3   OH231899   2.006   1.870   3.349 -0.5487 -0.0615  0.0328
 3495TIP3    H131900   1.982   1.951   3.305  0.8006  0.8217  0.8506
 3495TIP3    H231901   2.095   1.884   3.380 -0.6081 -1.5136  1.0104
 3496TIP3   OH231902   0.722   4.605   2.131 -0.8192  0.1215 -0.4909
 3496TIP3    H131903   0.634   4.605   2.169 -0.6155 -1.0372  0.0187
 3496TIP3    H231904   0.761   4.523   2.161  1.3548  1.7257  1.3921
 3497TIP3   OH231905   1.127   1.146  12.197  0.1621 -0.6815  0.0662
 3497TIP3    H131906   1.158   1.224  12.243 -0.6400 -0.1048 -0.3479
 3497TIP3    H231907   1.173   1.147  12.114  1.0472 -1.3133  0.5351
 3498TIP3   OH231908   2.032   6.716  11.469  0.3506  0.0801 -0.0791
 3498TIP3    H131909   2.089   6.681  11.401  0.1521 -0.3231 -0.0376
 3498TIP3    H231910   2.053   6.810  11.473 -0.0318  0.2156 -1.0787
 3499TIP3   OH231911   3.225   4.143  14.297  0.5894  0.2954 -0.6531
 3499TIP3    H131912   3.318   4.152  14.279  0.6480  0.7824 -0.1308
 3499TIP3    H231913   3.206   4.212  14.360 -0.0083 -0.1487 -0.3352
 3500TIP3   OH231914   1.114   3.743  15.912 -0.3145  0.3886 -0.3578
 3500TIP3    H131915   1.176   3.706  15.975 -0.8077  0.2017  0.0188
 3500TIP3    H231916   1.165   3.809  15.864  0.5600 -0.7154 -0.9974
 3501TIP3   OH231917   1.973   0.035   5.722  0.2617 -0.0193  0.4517
 3501TIP3    H131918   1.968  -0.029   5.794 -4.5853 -0.0264  0.4147
 3501TIP3    H231919   2.005  -0.016   5.647 -0.2727 -1.5666  1.2241
 3502TIP3   OH231920   5.806   4.083   2.048  0.2849 -0.3420 -0.5174
 3502TIP3    H131921   5.856   4.155   2.086  0.5011 -1.6008  1.7376
 3502TIP3    H231922   5.726   4.079   2.099 -0.0860 -1.2135 -1.1284
 3503TIP3   OH231923   1.754   0.469   1.842  1.1053  0.1366  0.0108
 3503TIP3    H131924   1.774   0.424   1.924  0.3446  0.6307  0.4853
 3503TIP3    H231925   1.764   0.562   1.862 -1.9565  0.4870  0.4453
 3504TIP3   OH231926   6.536   2.645   5.912  1.0919  0.1055 -0.0381
 3504TIP3    H131927   6.456   2.596   5.894  2.0695 -1.1936 -1.0603
 3504TIP3    H231928   6.515   2.698   5.989  0.0397 -2.1064  1.3036
 3505TIP3   OH231929   5.627   3.238   4.692  0.2649  0.8162 -0.1026
 3505TIP3    H131930   5.664   3.163   4.645 -0.4168  2.4743 -3.6062
 3505TIP3    H231931   5.548   3.260   4.643  0.6836  4.0858  0.4840
 3506TIP3   OH231932   6.220   4.059  15.628  0.0477 -0.1086  0.2419
 3506TIP3    H131933   6.196   4.139  15.674 -1.4223 -1.2445  1.5431
 3506TIP3    H231934   6.137   4.015  15.611  0.9308 -2.4078  1.5020
 3507TIP3   OH231935   4.615   3.978  13.031  0.5824 -0.3438 -0.5109
 3507TIP3    H131936   4.589   3.890  13.059 -0.6591 -0.3017 -1.4523
 3507TIP3    H231937   4.619   4.028  13.113 -0.3324 -0.8788 -0.1182
 3508TIP3   OH231938   3.770   0.847   2.293 -0.7258  0.5065  0.1421
 3508TIP3    H131939   3.797   0.769   2.245 -0.2685  0.1092  1.0135
 3508TIP3    H231940   3.758   0.914   2.226 -0.6036 -0.1645 -0.5654
 3509TIP3   OH231941   2.254   1.816  14.232 -0.0674  0.6333 -0.4928
 3509TIP3    H131942   2.297   1.901  14.221  1.5122 -0.3636 -2.8344
 3509TIP3    H231943   2.316   1.764  14.282 -0.1760  0.2727 -0.7307
 3510TIP3   OH231944   6.589   5.695  15.023 -0.0767  0.5348  0.1478
 3510TIP3    H131945   6.635   5.732  14.947 -0.0235  0.0374 -0.0674
 3510TIP3    H231946   6.636   5.613  15.041 -0.3930  0.4127  0.4188
 3511TIP3   OH231947   0.278   3.817   3.462  0.9912  0.8552  0.3308
 3511TIP3    H131948   0.310   3.907   3.455  1.3155  0.6410 -1.2760
 3511TIP3    H231949   0.194   3.817   3.416  1.5883  0.0823 -0.8139
 3512TIP3   OH231950   5.162   3.226   0.281  0.2838  0.0309  0.5291
 3512TIP3    H131951   5.119   3.148   0.314  0.7767 -0.0099  1.1034
 3512TIP3    H231952   5.107   3.298   0.310 -0.7446 -0.1455 -0.9151
 3513TIP3   OH231953   6.358   1.587   5.592 -0.0214 -0.5949 -0.2884
 3513TIP3    H131954   6.431   1.577   5.652 -0.1084 -1.9693 -0.3811
 3513TIP3    H231955   6.399   1.601   5.506  0.1233 -0.2401 -0.1585
 3514TIP3   OH231956   4.332   5.241   3.962  0.5745  0.5956 -0.3466
 3514TIP3    H131957   4.282   5.236   4.044  1.9028 -0.0604  0.4792
 3514TIP3    H231958   4.291   5.176   3.905 -0.4587  1.1595 -0.2634
 3515TIP3   OH231959   5.760   6.665   4.488 -0.1816  0.1585  0.0831
 3515TIP3    H131960   5.851   6.665   4.457 -0.1913  0.7945  0.0356
 3515TIP3    H231961   5.739   6.573   4.501  1.1455  0.0772  2.0541
 3516TIP3   OH231962   1.353   3.684  17.197  0.4142  0.1030 -0.3023
 3516TIP3    H131963   1.448   3.677  17.201  0.5232  0.3460 -1.8948
 3516TIP3    H231964   1.329   3.647  17.112 -0.9201  0.0808  0.0484
 3517TIP3   OH231965   1.525   2.785   1.026  0.3904 -0.4905  0.0536
 3517TIP3    H131966   1.566   2.870   1.043 -0.0849 -0.6166  2.2320
 3517TIP3    H231967   1.431   2.803   1.027  0.2977 -0.9467 -0.0774
 3518TIP3   OH231968   4.621   2.844  16.397  0.7502 -0.1455  0.0757
 3518TIP3    H131969   4.605   2.932  16.362  2.4541  0.2081  0.1344
 3518TIP3    H231970   4.566   2.787  16.344  2.6179  0.4668 -2.7197
 3519TIP3   OH231971   5.795   2.051  11.290  0.6173  0.6139  0.2340
 3519TIP3    H131972   5.829   2.140  11.285  1.2988  0.3196 -0.7417
 3519TIP3    H231973   5.851   2.007  11.354  0.1232  0.9364  0.9034
 3520TIP3   OH231974   6.080   1.138   2.806  0.1376 -0.0725  0.1356
 3520TIP3    H131975   6.160   1.118   2.756 -0.7006  0.5202 -1.5298
 3520TIP3    H231976   6.076   1.070   2.873  3.0878  1.0394  1.6193
 3521TIP3   OH231977   6.681   4.403  11.441  0.3542  0.3719  0.0145
 3521TIP3    H131978   6.731   4.322  11.429  0.1374  0.3497 -0.7652
 3521TIP3    H231979   6.664   4.434  11.352 -0.8330  0.4998  0.2740
 3522TIP3   OH231980   0.270   4.923   5.583 -0.0827  0.2821 -0.1899
 3522TIP3    H131981   0.265   4.859   5.512  2.0802 -0.0422 -0.1082
 3522TIP3    H231982   0.306   5.002   5.541  0.1214  0.4658  0.3273
 3523TIP3   OH231983   5.912   0.007   3.395  0.1547 -0.3149 -0.1665
 3523TIP3    H131984   5.921  -0.031   3.483 -2.2250 -0.2779  0.1656
 3523TIP3    H231985   5.977  -0.038   3.342  0.2117 -1.8782  1.1555
 3524TIP3   OH231986   1.335   4.207  16.237  0.3313  0.3312 -0.3224
 3524TIP3    H131987   1.378   4.200  16.152  0.9819  4.3322 -0.5336
 3524TIP3    H231988   1.242   4.210  16.217  0.3732 -0.5192 -0.6753
 3525TIP3   OH231989   1.173   3.752  16.958 -0.1137 -0.4521 -0.0317
 3525TIP3    H131990   1.150   3.811  16.887 -1.4332 -0.4338  0.3787
 3525TIP3    H231991   1.118   3.780  17.031  1.8439  0.1109  1.3160
 3526TIP3   OH231992   2.053   6.685   0.106 -1.0830  0.0101 -0.0498
 3526TIP3    H131993   2.128   6.668   0.163 -0.9574  0.9819  0.0892
 3526TIP3    H231994   2.079   6.649   0.021 -0.7962 -0.3892  0.2041
 3527TIP3   OH231995   3.308   6.270  15.857 -0.0554 -0.1475  0.5141
 3527TIP3    H131996   3.311   6.321  15.776  0.8067 -0.5092  0.3077
 3527TIP3    H231997   3.322   6.180  15.829  0.5332 -0.2437  1.0934
 3528TIP3   OH231998   3.634   2.104  12.520  0.0405  0.3026  0.1418
 3528TIP3    H131999   3.693   2.146  12.582 -0.2278 -0.4136  0.9020
 3528TIP3    H232000   3.691   2.059  12.458  0.3063 -0.6371  1.0467
 3529TIP3   OH232001   0.559   3.764   4.300  0.1963 -0.3789  0.3495
 3529TIP3    H132002   0.577   3.716   4.381 -0.4268 -0.6981  0.3065
 3529TIP3    H232003   0.463   3.760   4.290  0.3455 -1.2599 -0.9517
 3530TIP3   OH232004   6.584   3.724   0.986 -0.8236  0.1571 -0.2185
 3530TIP3    H132005   6.518   3.660   1.013 -0.3543  0.5503  2.0171
 3530TIP3    H232006   6.533   3.796   0.949 -1.4059 -1.0139 -1.8440
 3531TIP3   OH232007   3.165   5.645   1.606 -0.2946 -0.0684  0.4090
 3531TIP3    H132008   3.146   5.558   1.571  2.4523 -0.7228  0.3229
 3531TIP3    H232009   3.095   5.701   1.571 -0.7223 -1.7533 -1.6210
 3532TIP3   OH232010   4.770   0.468   0.794  0.1240 -0.0619  0.2940
 3532TIP3    H132011   4.754   0.535   0.728 -0.9233  0.0011  0.5915
 3532TIP3    H232012   4.841   0.504   0.848 -0.4013  0.8089  0.4324
 3533TIP3   OH232013   5.539   6.778   4.861 -0.0801 -0.0891  0.4416
 3533TIP3    H132014   5.604   6.797   4.793 -0.3307  1.4048  0.5959
 3533TIP3    H232015   5.575   6.702   4.907 -0.0770 -1.3976 -1.5566
 3534TIP3   OH232016   5.676   1.709  11.474  0.3073  0.3821  0.0213
 3534TIP3    H132017   5.688   1.642  11.541  1.0078  0.9542  0.4909
 3534TIP3    H232018   5.612   1.770  11.513 -0.5084 -0.1319 -0.5004
 3535TIP3   OH232019   3.298   1.072  16.059 -0.6423 -1.0986  0.4481
 3535TIP3    H132020   3.319   1.116  16.141 -1.7966 -0.6357  0.5113
 3535TIP3    H232021   3.256   0.990  16.086 -1.0039 -0.9558  0.3256
 3536TIP3   OH232022   4.066   5.313   1.331  0.3910 -0.5786  0.2128
 3536TIP3    H132023   4.042   5.360   1.412 -0.1167  1.8442 -1.2366
 3536TIP3    H232024   4.160   5.328   1.322  0.6106 -1.5720  0.7667
 3537TIP3   OH232025   5.094   3.106  12.566 -0.1602  0.4103  0.0386
 3537TIP3    H132026   5.113   3.072  12.479 -1.6647 -2.1448  0.5856
 3537TIP3    H232027   5.168   3.075  12.620 -0.2656  0.1683  0.0480
 3538TIP3   OH232028   1.683   3.843  13.813  0.4324  0.2534  0.0814
 3538TIP3    H132029   1.698   3.748  13.811 -0.2218  0.1544 -1.2922
 3538TIP3    H232030   1.770   3.881  13.825  0.7061 -0.5182  0.6112
 3539TIP3   OH232031   0.139   6.432  16.484  0.0810  0.3236  0.1616
 3539TIP3    H132032   0.210   6.463  16.540  0.8316  0.9078 -1.0459
 3539TIP3    H232033   0.183   6.407  16.402 -0.7405 -2.0990  0.3610
 3540TIP3   OH232034   6.665   2.086  11.558 -0.0734  0.0703  0.6613
 3540TIP3    H132035   6.678   2.106  11.465 -0.5911 -0.4094  0.4815
 3540TIP3    H232036   6.698   1.997  11.568  0.8592  0.4676  1.1440
 3541TIP3   OH232037   5.883   4.539  13.846  0.0929 -0.5926 -0.3911
 3541TIP3    H132038   5.879   4.457  13.798 -1.6450 -0.7014 -0.1103
 3541TIP3    H232039   5.943   4.594  13.795  2.1732 -2.3597 -0.0012
 3542TIP3   OH232040   5.155   2.768   3.040 -0.0667  0.5995 -0.1395
 3542TIP3    H132041   5.197   2.818   3.110 -1.0363  0.8593  0.2686
 3542TIP3    H232042   5.169   2.677   3.065  0.2508  0.6818 -0.0067
 3543TIP3   OH232043   4.834   2.498   5.045 -0.5956  0.3059  0.0107
 3543TIP3    H132044   4.752   2.512   5.093 -0.7937 -2.8525  0.7944
 3543TIP3    H232045   4.899   2.480   5.112 -0.0284 -0.4465 -0.7160
 3544TIP3   OH232046   2.898   4.030   6.519 -0.1567 -0.4535 -0.2811
 3544TIP3    H132047   2.844   3.998   6.592 -0.3521 -3.8834 -1.6969
 3544TIP3    H232048   2.988   4.018   6.548 -0.2360 -1.3210 -0.3598
 3545TIP3   OH232049   3.236   3.036  11.118  0.2008  0.1930  0.1749
 3545TIP3    H132050   3.308   3.021  11.056  0.1918 -0.9902  0.4313
 3545TIP3    H232051   3.263   3.113  11.168  0.2769  1.0987 -1.1848
 3546TIP3   OH232052   4.926   3.373  15.098  0.4645  0.1326 -0.0272
 3546TIP3    H132053   4.846   3.342  15.057  0.0975  0.3496  0.5171
 3546TIP3    H232054   4.897   3.420  15.177  1.0648  0.9739 -0.2869
 3547TIP3   OH232055   3.791   5.570  16.995  0.1020 -0.2241  0.3276
 3547TIP3    H132056   3.844   5.609  16.926  0.1171 -0.8955 -0.0544
 3547TIP3    H232057   3.765   5.484  16.960 -1.0268 -0.0187  0.6059
 3548TIP3   OH232058   4.138   0.364  15.574 -0.4156 -0.2494  0.0498
 3548TIP3    H132059   4.206   0.345  15.639 -1.1010  3.4065  2.0927
 3548TIP3    H232060   4.187   0.375  15.492  1.3017  0.7287  1.1417
 3549TIP3   OH232061   0.020   1.179  16.410 -0.2954 -0.7589 -0.0997
 3549TIP3    H132062   0.114   1.175  16.430 -0.1414  0.8582 -0.2873
 3549TIP3    H232063   0.015   1.163  16.316  0.1920  2.0205 -0.7101
 3550TIP3   OH232064   4.056   6.527   3.799 -0.0092  0.0150  0.0744
 3550TIP3    H132065   4.079   6.517   3.707 -0.6769 -2.3006  0.0807
 3550TIP3    H232066   4.129   6.485   3.846 -1.0747 -1.5980  0.3912
 3551TIP3   OH232067   5.921   0.334   5.469  0.3247 -0.2692 -0.0176
 3551TIP3    H132068   5.919   0.352   5.563  0.3005 -2.6150  0.5039
 3551TIP3    H232069   5.977   0.256   5.461  0.4045 -0.0664 -1.9634
 3552TIP3   OH232070   1.425   4.961  11.877  0.5231  0.0756  0.4441
 3552TIP3    H132071   1.498   4.899  11.877 -0.2991 -0.9342 -0.6028
 3552TIP3    H232072   1.347   4.906  11.887 -0.2973  0.8253 -1.4014
 3553TIP3   OH232073   0.825   2.896  15.655 -0.5379 -0.3564  0.4483
 3553TIP3    H132074   0.740   2.857  15.677 -0.8700  0.4092  0.5428
 3553TIP3    H232075   0.887   2.823  15.663 -0.8948 -0.5092  2.2423
 3554TIP3   OH232076   4.390   5.331   5.060 -0.1144 -0.7445 -0.7083
 3554TIP3    H132077   4.425   5.371   5.139 -1.1038 -0.2546 -0.5037
 3554TIP3    H232078   4.406   5.237   5.071  0.7568 -0.5709 -0.4514
 3555TIP3   OH232079   0.109   2.127   0.840 -0.8972  0.4715 -0.9406
 3555TIP3    H132080   0.059   2.116   0.921  1.5506  1.7843  0.9209
 3555TIP3    H232081   0.098   2.045   0.793 -2.8737 -0.1150  0.4455
 3556TIP3   OH232082   4.304   0.997  13.109  0.1804 -0.7529 -0.0425
 3556TIP3    H132083   4.226   0.986  13.165  0.7983 -0.3029  0.9349
 3556TIP3    H232084   4.301   1.088  13.081  0.6387 -0.5778  0.4549
 3557TIP3   OH232085   1.704   6.664   4.309  0.1437  0.1872  0.2628
 3557TIP3    H132086   1.645   6.656   4.235 -0.5883 -0.5403  0.9140
 3557TIP3    H232087   1.791   6.648   4.272 -0.0647  1.1707 -0.6781
 3558TIP3   OH232088   4.399   2.414  13.216 -0.2556 -1.1669 -0.4217
 3558TIP3    H132089   4.395   2.379  13.127  1.2101 -1.2823 -0.4703
 3558TIP3    H232090   4.482   2.382  13.251  1.5281  2.6125 -0.6828
 3559TIP3   OH232091   1.711   0.347   3.770  0.3615  0.1887  0.3863
 3559TIP3    H132092   1.711   0.297   3.852  1.4047  0.8553  0.8133
 3559TIP3    H232093   1.799   0.333   3.734  0.3642  1.0044  0.0690
 3560TIP3   OH232094   0.406   5.791  13.316  0.2222  0.2178 -0.6415
 3560TIP3    H132095   0.493   5.830  13.329  0.9855 -1.8791  1.1789
 3560TIP3    H232096   0.419   5.698  13.335 -2.9747  0.2412  2.8610
 3561TIP3   OH232097   2.253   4.272   5.967  0.3693 -0.0446 -0.2912
 3561TIP3    H132098   2.260   4.266   6.062  2.2277  0.7377 -0.3406
 3561TIP3    H232099   2.236   4.365   5.950 -0.0361 -0.1952 -0.7236
 3562TIP3   OH232100   5.637   3.087  11.066 -0.7142  0.4728 -0.1846
 3562TIP3    H132101   5.703   3.129  11.122 -0.8741  0.5561 -0.0542
 3562TIP3    H232102   5.629   3.146  10.991 -0.1789  0.1361 -0.5160
 3563TIP3   OH232103   1.242   5.747   6.620  1.0742  0.3382  0.2024
 3563TIP3    H132104   1.200   5.803   6.685  0.8933 -1.2234  1.5081
 3563TIP3    H232105   1.287   5.808   6.561  1.3880  1.8211  1.8860
 3564TIP3   OH232106   2.619   6.209   1.381  0.1565 -0.1964  0.1130
 3564TIP3    H132107   2.581   6.165   1.304  0.7239  1.2564 -1.0568
 3564TIP3    H232108   2.547   6.216   1.443 -1.4992  2.1046 -1.8721
 3565TIP3   OH232109   0.281   5.211  12.536  0.1070  0.4340 -0.0900
 3565TIP3    H132110   0.368   5.214  12.575 -0.5325  1.2775  1.3572
 3565TIP3    H232111   0.221   5.223  12.610 -1.2003  1.1000 -1.2154
 3566TIP3   OH232112   6.083   5.907   3.513  0.2634 -0.1674  0.0903
 3566TIP3    H132113   6.075   5.950   3.428 -0.7943 -0.5488 -0.0236
 3566TIP3    H232114   6.176   5.888   3.522  0.4216  0.1127 -0.8668
 3567TIP3   OH232115   2.501   3.121   3.152 -0.9308  0.0836 -0.3051
 3567TIP3    H132116   2.434   3.164   3.098 -0.1032  1.8805  0.0234
 3567TIP3    H232117   2.583   3.138   3.105 -0.4685 -0.2656  0.3707
 3568TIP3   OH232118   5.683   6.521  12.496  0.3029 -0.3809 -0.5694
 3568TIP3    H132119   5.607   6.463  12.498  0.3146 -0.4747 -1.9659
 3568TIP3    H232120   5.729   6.503  12.578 -0.8585 -0.7561  0.0171
 3569TIP3   OH232121   0.621   4.870   0.413  0.2490 -0.1356 -0.0787
 3569TIP3    H132122   0.550   4.904   0.469  1.0070  0.4184  0.5607
 3569TIP3    H232123   0.603   4.908   0.327  0.7350  1.4612  0.4779
 3570TIP3   OH232124   2.001   6.777  14.378  0.3218  0.4847 -0.1618
 3570TIP3    H132125   1.959   6.822  14.305 -0.4400 -1.0911 -0.7410
 3570TIP3    H232126   1.940   6.787  14.452  0.6176  1.2125 -0.0079
 3571TIP3   OH232127   6.066   6.256   1.360  0.5153  0.2960 -0.2418
 3571TIP3    H132128   6.152   6.250   1.402  0.1687 -1.7979  0.2703
 3571TIP3    H232129   6.006   6.216   1.423 -1.0121  2.4535 -0.2330
 3572TIP3   OH232130   2.045   3.732  15.220 -0.0890  0.6825 -0.0170
 3572TIP3    H132131   1.981   3.758  15.286 -0.2004  1.1300 -0.2982
 3572TIP3    H232132   2.086   3.814  15.193  1.2450  0.3241  0.7999
 3573TIP3   OH232133   3.552   3.331   5.708  0.3469  0.4067  0.5684
 3573TIP3    H132134   3.551   3.306   5.800 -0.5556 -1.0601  0.2091
 3573TIP3    H232135   3.611   3.268   5.667  0.7872  1.0829  0.1410
 3574TIP3   OH232136   5.830   2.607  16.626  0.0438  0.0281  0.3780
 3574TIP3    H132137   5.868   2.594  16.539 -0.1427  1.4916  0.0431
 3574TIP3    H232138   5.865   2.691  16.655 -0.2647 -0.2168  1.5267
 3575TIP3   OH232139   1.808   4.187  15.791  0.1648  0.3030 -0.4122
 3575TIP3    H132140   1.764   4.209  15.709  0.1545 -0.9174 -0.7594
 3575TIP3    H232141   1.756   4.230  15.859 -2.8825 -2.6998 -0.5928
 3576TIP3   OH232142   3.020   0.787   2.535 -0.1653  0.0103 -0.4445
 3576TIP3    H132143   2.993   0.748   2.452 -0.4482 -1.5633  0.3425
 3576TIP3    H232144   2.949   0.847   2.558 -0.1564  0.3439 -1.2347
 3577TIP3   OH232145   3.735   0.364  11.029 -0.1817  0.2030  0.1729
 3577TIP3    H132146   3.736   0.273  11.000  1.6326  0.8554 -2.0768
 3577TIP3    H232147   3.827   0.386  11.041 -0.5838  1.7908  0.5491
 3578TIP3   OH232148   3.562   6.169   2.620  0.2012  0.0704  0.0206
 3578TIP3    H132149   3.541   6.115   2.544 -1.9178 -0.9182  1.2192
 3578TIP3    H232150   3.579   6.256   2.584 -1.0292 -0.3049 -1.5708
 3579TIP3   OH232151   2.692   3.569   3.673 -0.0333 -0.1452 -0.0670
 3579TIP3    H132152   2.634   3.630   3.627 -0.6382  0.2912  1.2333
 3579TIP3    H232153   2.654   3.482   3.655 -0.6403  0.0714  0.1311
 3580TIP3   OH232154   5.328   2.967  14.364  0.0943  0.3238 -0.2814
 3580TIP3    H132155   5.377   2.929  14.437  0.9022 -1.8458 -1.8897
 3580TIP3    H232156   5.387   3.031  14.326  1.1928 -1.2604 -1.3273
 3581TIP3   OH232157   4.435   6.110  16.046 -0.2416  0.3636 -0.3029
 3581TIP3    H132158   4.366   6.121  16.111 -0.8672 -0.4651 -0.8044
 3581TIP3    H232159   4.437   6.015  16.030  1.6097  0.2510  0.3527
 3582TIP3   OH232160   5.943   5.656   6.726  0.1068 -0.8172 -0.0000
 3582TIP3    H132161   5.877   5.630   6.790 -0.2816  1.3241  0.5311
 3582TIP3    H232162   5.995   5.576   6.712 -2.9281 -2.7789 -0.9635
 3583TIP3   OH232163   5.526   4.446  11.518 -0.1089 -0.3686 -0.4583
 3583TIP3    H132164   5.475   4.504  11.575 -0.1944  0.1095 -1.0219
 3583TIP3    H232165   5.468   4.428  11.444 -0.8792 -2.7631  0.5831
 3584TIP3   OH232166   6.494   2.531   5.244 -0.7345  0.4942 -0.2568
 3584TIP3    H132167   6.424   2.555   5.305  0.0964 -2.1610  1.9492
 3584TIP3    H232168   6.447   2.499   5.167 -2.0268 -0.9352  1.0461
 3585TIP3   OH232169   5.158   5.646  14.385  0.1383  0.0601 -0.3397
 3585TIP3    H132170   5.113   5.591  14.322  0.0979 -0.2971 -0.0037
 3585TIP3    H232171   5.243   5.605  14.397 -0.5671 -1.0042  1.3016
 3586TIP3   OH232172   5.716   1.716  14.974  0.0569  0.0958  0.0843
 3586TIP3    H132173   5.693   1.793  14.921 -1.3873  0.8451  1.6802
 3586TIP3    H232174   5.811   1.711  14.969  0.1284  1.5543 -0.6427
 3587TIP3   OH232175   6.185   1.888   1.754  0.2332  0.4561  0.4108
 3587TIP3    H132176   6.238   1.837   1.693  0.3835 -1.3248  1.9427
 3587TIP3    H232177   6.140   1.952   1.699  0.2203 -1.1838 -1.5933
 3588TIP3   OH232178   0.444   3.743   3.204  0.4147 -0.3650 -0.0272
 3588TIP3    H132179   0.441   3.833   3.239  0.2187 -0.0381 -0.8713
 3588TIP3    H232180   0.538   3.725   3.195  0.4868 -0.5815  0.9524
 3589TIP3   OH232181   0.460   3.221   2.488  0.1464 -0.4099  0.1255
 3589TIP3    H132182   0.487   3.306   2.520  0.6804 -0.7209  0.5212
 3589TIP3    H232183   0.496   3.159   2.551 -0.8624 -0.8906  0.2524
 3590TIP3   OH232184   4.271   1.095   4.299  0.6673 -0.1933 -0.0469
 3590TIP3    H132185   4.278   1.120   4.207  0.8453  1.5143  0.4026
 3590TIP3    H232186   4.204   1.153   4.335 -2.9066 -3.8063 -0.0398
 3591TIP3   OH232187   2.138   4.795   3.993  0.1387 -0.1386 -0.0991
 3591TIP3    H132188   2.160   4.708   3.959  2.2836  0.5533 -0.6417
 3591TIP3    H232189   2.155   4.854   3.919 -1.0445  0.8006  0.3375
 3592TIP3   OH232190   3.748   3.618  14.218 -0.2121 -0.7855  0.3508
 3592TIP3    H132191   3.794   3.559  14.158  2.0049 -0.5451  1.6656
 3592TIP3    H232192   3.656   3.597  14.207  0.3922 -3.6265 -0.1830
 3593TIP3   OH232193   1.922   4.889  13.080  0.3059 -0.6112 -0.3629
 3593TIP3    H132194   1.939   4.974  13.038 -1.4813 -0.2062 -0.3491
 3593TIP3    H232195   1.996   4.834  13.055  1.9168  1.1644  0.2487
 3594TIP3   OH232196   0.533   1.209  14.058  0.0277 -0.0092 -0.1529
 3594TIP3    H132197   0.564   1.298  14.075  3.2560 -1.0284  0.0006
 3594TIP3    H232198   0.495   1.181  14.142 -2.4003  1.6107 -0.6071
 3595TIP3   OH232199   3.317   0.696   2.087  0.0021 -0.5190 -0.0406
 3595TIP3    H132200   3.333   0.790   2.089 -0.6035 -0.4289  1.1622
 3595TIP3    H232201   3.230   0.688   2.048  0.5836 -0.6765 -1.3554
 3596TIP3   OH232202   3.520   1.054   1.978  0.2107  0.1184 -0.3825
 3596TIP3    H132203   3.606   1.033   2.016  0.1928  1.3049  0.3664
 3596TIP3    H232204   3.463   1.068   2.054  0.5373  4.0513 -0.6660
 3597TIP3   OH232205   5.241   1.997   0.678  0.4909  0.4872  0.0130
 3597TIP3    H132206   5.244   2.052   0.756 -0.1876  1.1462 -0.4089
 3597TIP3    H232207   5.313   2.029   0.623  0.9032  0.0925  0.3227
 3598TIP3   OH232208   2.518   5.136   0.252  0.6776 -0.1907 -1.1525
 3598TIP3    H132209   2.500   5.229   0.238 -1.8962 -0.4251  0.1997
 3598TIP3    H232210   2.496   5.095   0.168 -2.8255 -0.0898 -0.4046
 3599TIP3   OH232211   6.615   6.530   5.298  0.1902  0.6673 -0.5635
 3599TIP3    H132212   6.602   6.553   5.390  1.8893 -2.0984  0.5127
 3599TIP3    H232213   6.527   6.528   5.260 -0.6191  1.1354  1.2087
 3600TIP3   OH232214   6.074   2.789   5.827  0.4867 -0.1066  0.3870
 3600TIP3    H132215   6.061   2.834   5.910 -0.1544 -0.5145  0.5111
 3600TIP3    H232216   6.154   2.828   5.791 -0.1509  1.2878  0.3958
 3601TIP3   OH232217   2.156   6.269  12.990 -0.0637 -0.1188 -0.3070
 3601TIP3    H132218   2.153   6.193  12.931 -0.1885 -0.0502 -0.3886
 3601TIP3    H232219   2.072   6.313  12.976 -1.5491 -1.8655  2.2577
 3602TIP3   OH232220   1.582   3.237  13.340 -0.2645 -0.7674 -0.1305
 3602TIP3    H132221   1.644   3.213  13.271  0.6569  0.8048  0.1039
 3602TIP3    H232222   1.618   3.318  13.378 -2.0120 -0.2873  0.5973
 3603TIP3   OH232223   6.090   6.502   1.523 -0.1814  0.1207  0.7382
 3603TIP3    H132224   6.011   6.473   1.478  1.3650  1.0886 -2.9203
 3603TIP3    H232225   6.106   6.590   1.490  2.1436  0.1788  1.7934
 3604TIP3   OH232226   5.411   5.906  13.944 -0.1779 -0.2273  0.1600
 3604TIP3    H132227   5.502   5.921  13.916 -0.2187  0.1474  0.2198
 3604TIP3    H232228   5.418   5.892  14.038  0.1097 -2.7674 -0.1846
 3605TIP3   OH232229   4.914   6.081  14.970 -0.3246 -0.0819 -0.1073
 3605TIP3    H132230   4.863   6.062  14.892 -0.2325  0.8862 -0.4216
 3605TIP3    H232231   4.936   5.996  15.006  0.8053 -0.5931 -1.8909
 3606TIP3   OH232232   3.884   4.523  15.962  0.4254 -0.0771  0.1713
 3606TIP3    H132233   3.839   4.524  15.878 -2.0642  4.1287  1.2310
 3606TIP3    H232234   3.837   4.459  16.014 -0.1392 -0.3816 -0.6891
 3607TIP3   OH232235   5.731   5.965   0.779  0.0412  0.2587  0.8571
 3607TIP3    H132236   5.795   6.030   0.808 -1.6437  1.9739  0.9801
 3607TIP3    H232237   5.698   5.926   0.860 -0.4333  0.7998  0.9380
 3608TIP3   OH232238   0.094   0.190  15.958 -0.6175  0.1855  0.9187
 3608TIP3    H132239   0.015   0.240  15.940 -0.7093 -0.4647 -0.6197
 3608TIP3    H232240   0.126   0.224  16.042 -1.0338  2.3185  0.2570
 3609TIP3   OH232241   3.393   5.532  10.639  0.1238  0.0774  0.3871
 3609TIP3    H132242   3.477   5.489  10.655  0.5897  0.5334 -0.7373
 3609TIP3    H232243   3.336   5.462  10.609  1.1478  0.2979 -2.3884
 3610TIP3   OH232244   1.401   0.668   5.647 -0.3739  0.4169  0.2590
 3610TIP3    H132245   1.453   0.598   5.687  0.7958  1.2771  0.2857
 3610TIP3    H232246   1.400   0.646   5.554 -1.3148 -0.4338  0.4391
 3611TIP3   OH232247   6.003   4.653  13.638  0.2902 -0.6325 -0.1736
 3611TIP3    H132248   5.980   4.734  13.592 -0.5948 -0.7847 -0.0237
 3611TIP3    H232249   5.976   4.583  13.578  0.8265 -0.8236 -0.1992
 3612TIP3   OH232250   5.998   1.720  15.000 -0.3256  0.6478  0.1497
 3612TIP3    H132251   5.979   1.812  14.981 -3.4700  0.6495  2.5232
 3612TIP3    H232252   6.017   1.717  15.094  1.3726 -0.9839 -0.1674
 3613TIP3   OH232253   5.166   2.347  14.302  1.1013  0.2494  0.0968
 3613TIP3    H132254   5.233   2.280  14.315 -0.5547 -1.4651  0.2536
 3613TIP3    H232255   5.135   2.332  14.212 -0.5607 -0.4727  0.7496
 3614TIP3   OH232256   1.480   1.396  14.350 -0.2139 -0.2227 -0.3902
 3614TIP3    H132257   1.439   1.380  14.265  0.4116 -1.6402 -0.4463
 3614TIP3    H232258   1.564   1.438  14.329  0.7049 -2.0925 -0.6052
 3615TIP3   OH232259   2.309   6.152   3.281  0.1548 -0.2882 -0.6364
 3615TIP3    H132260   2.397   6.142   3.317  0.6127 -0.1361 -1.6954
 3615TIP3    H232261   2.264   6.071   3.306  0.4289 -0.1626  0.3189
 3616TIP3   OH232262   2.260   6.270  11.903 -0.2097  0.2702  0.0080
 3616TIP3    H132263   2.255   6.289  11.997 -0.0998  2.3104 -0.3622
 3616TIP3    H232264   2.168   6.265  11.876 -0.2385  0.0160  0.1393
 3617TIP3   OH232265   1.281   5.722   0.850  0.6878 -0.7278 -0.3832
 3617TIP3    H132266   1.345   5.739   0.919 -1.9420  2.0343  1.6486
 3617TIP3    H232267   1.303   5.784   0.780 -0.8265  1.7770  1.2161
 3618TIP3   OH232268   1.670   0.566   2.399 -0.2106 -0.4522  0.3710
 3618TIP3    H132269   1.606   0.526   2.458 -0.9294 -0.9522 -0.7228
 3618TIP3    H232270   1.755   0.533   2.431 -0.4319  0.5065  2.0531
 3619TIP3   OH232271   3.625   3.399  11.184  0.1803 -0.3098  0.1478
 3619TIP3    H132272   3.657   3.405  11.274 -0.9741  0.9672  0.5097
 3619TIP3    H232273   3.669   3.471  11.138  0.8252 -1.0037 -0.3563
 3620TIP3   OH232274   1.555   0.670   4.182 -0.3984 -0.2457  0.4039
 3620TIP3    H132275   1.484   0.729   4.206  0.7722  1.1070  0.7218
 3620TIP3    H232276   1.553   0.666   4.086 -0.8231 -0.1261  0.4083
 3621TIP3   OH232277   6.173   4.887  17.036 -0.2549 -0.6388 -0.4785
 3621TIP3    H132278   6.156   4.975  17.071  0.3323 -0.5413 -0.4285
 3621TIP3    H232279   6.139   4.890  16.946  1.6065  0.3137 -1.2039
 3622TIP3   OH232280   3.893   2.806  11.500  0.3920 -0.1536 -0.2200
 3622TIP3    H132281   3.945   2.845  11.429 -1.4292 -1.4790 -2.4300
 3622TIP3    H232282   3.926   2.716  11.507  0.1759 -0.2018  0.2330
 3623TIP3   OH232283   4.638   0.952  12.478  0.6109  0.1814  0.2831
 3623TIP3    H132284   4.620   0.858  12.480 -2.5374  0.6186 -0.8018
 3623TIP3    H232285   4.706   0.962  12.412  1.3987 -1.3671  0.8185
 3624TIP3   OH232286   3.786   5.485   5.098 -0.2365 -0.0785  0.2055
 3624TIP3    H132287   3.722   5.475   5.169 -0.6566  0.6027 -0.0632
 3624TIP3    H232288   3.866   5.514   5.142 -0.9774  2.1091  0.2751
 3625TIP3   OH232289   0.590   2.114  13.240 -0.2249  0.4702  0.3236
 3625TIP3    H132290   0.495   2.108  13.236 -0.2038 -1.7096  1.6069
 3625TIP3    H232291   0.620   2.083  13.155 -0.6192  0.9886 -0.0188
 3626TIP3   OH232292   6.531   3.849  15.864 -0.3557  0.0486  0.6143
 3626TIP3    H132293   6.522   3.840  15.769 -0.4984 -1.9053  0.7831
 3626TIP3    H232294   6.446   3.823  15.898 -0.6033  1.6271  1.2589
 3627TIP3   OH232295   6.393   5.080  13.028  0.0158 -0.4127  0.1046
 3627TIP3    H132296   6.427   5.030  12.953 -2.5866 -0.7586 -0.9613
 3627TIP3    H232297   6.300   5.091  13.008  0.4519  6.0517 -0.4790
 3628TIP3   OH232298   1.665   4.131  15.287 -0.4844 -0.2763  0.1273
 3628TIP3    H132299   1.746   4.099  15.246  0.1254  2.2066 -0.7909
 3628TIP3    H232300   1.598   4.068  15.261  0.8711 -1.5583 -0.3892
 3629TIP3   OH232301   4.532   6.300   2.276 -0.3132 -0.5128 -0.2608
 3629TIP3    H132302   4.521   6.232   2.342 -0.1538 -0.7464 -0.4722
 3629TIP3    H232303   4.571   6.255   2.201 -0.9711 -0.3655 -0.7090
 3630TIP3   OH232304   5.088   0.712   3.013 -0.5652  0.6741  0.1848
 3630TIP3    H132305   5.181   0.703   2.994 -0.3978  1.1809  0.7191
 3630TIP3    H232306   5.049   0.744   2.931 -0.0689  1.6089  0.3021
 3631TIP3   OH232307   2.114   4.924   2.355  0.0613  0.2278  0.4174
 3631TIP3    H132308   2.175   4.851   2.364  0.1319  0.1248 -0.7627
 3631TIP3    H232309   2.170   5.002   2.358  0.0168  0.2293  1.3944
 3632TIP3   OH232310   1.856   0.596   1.411 -0.1569  0.3746  0.4053
 3632TIP3    H132311   1.893   0.670   1.364  0.1532  0.3997  0.6811
 3632TIP3    H232312   1.932   0.550   1.446 -0.2230 -1.1591 -1.3475
 3633TIP3   OH232313   3.004   1.160  12.946  0.1966 -0.2634  0.0746
 3633TIP3    H132314   3.044   1.115  13.020  1.8646 -0.0986 -0.6798
 3633TIP3    H232315   2.973   1.243  12.982  1.0665 -0.1524  0.5853
 3634TIP3   OH232316   4.940   6.485  13.845  0.1644  0.7581  0.7815
 3634TIP3    H132317   4.908   6.397  13.823 -1.1509  1.1981  0.8415
 3634TIP3    H232318   4.944   6.485  13.940  0.9289  0.5114  0.7521
 3635TIP3   OH232319   4.996   3.987  16.395 -0.2954 -0.1175  0.4573
 3635TIP3    H132320   5.088   3.966  16.381 -0.6505 -1.0678 -0.5756
 3635TIP3    H232321   4.988   4.079  16.372  0.2905 -0.1655  0.0529
 3636TIP3   OH232322   2.800   0.377   5.009  0.0711 -0.0189  0.1606
 3636TIP3    H132323   2.767   0.287   5.004 -0.0025  0.0810 -1.8287
 3636TIP3    H232324   2.861   0.385   4.936 -1.3129  2.0739 -0.8521
 3637TIP3   OH232325   2.373   1.343   0.021  0.3079  0.2759 -0.0769
 3637TIP3    H132326   2.436   1.414   0.037  0.1439  0.4566 -0.2307
 3637TIP3    H232327   2.333   1.365  -0.063  1.0883 -0.6099 -0.6954
 3638TIP3   OH232328   2.304   5.479  12.424  0.1204 -0.6738  0.1004
 3638TIP3    H132329   2.257   5.467  12.507  1.3599  1.4005  1.1940
 3638TIP3    H232330   2.379   5.534  12.447  0.1860  0.4746 -2.5064
 3639TIP3   OH232331   6.382   4.888  13.957 -0.1547 -0.3066 -0.3933
 3639TIP3    H132332   6.322   4.936  14.014  1.8227  2.5783 -0.5137
 3639TIP3    H232333   6.356   4.910  13.868  0.8897  0.8357 -0.4484
 3640TIP3   OH232334   4.402   0.844  12.189 -0.4670  0.3508  0.2085
 3640TIP3    H132335   4.451   0.802  12.260  1.3055  2.0170  0.0346
 3640TIP3    H232336   4.419   0.789  12.112  0.4476  0.4437  0.3386
 3641TIP3   OH232337   2.173   6.080   1.777  0.0251  0.2188  0.4402
 3641TIP3    H132338   2.134   5.993   1.788 -0.2748  0.2974  0.0270
 3641TIP3    H232339   2.154   6.104   1.687  0.6049  0.4749  0.3774
 3642TIP3   OH232340   5.958   3.439   3.547  0.0334  0.4922 -0.0564
 3642TIP3    H132341   5.946   3.387   3.468 -0.7461 -0.1223  0.4510
 3642TIP3    H232342   5.872   3.480   3.562  0.8347  2.6775 -0.9388
 3643TIP3   OH232343   3.447   6.542  14.209  0.1344 -0.0951  0.1214
 3643TIP3    H132344   3.363   6.556  14.165  1.0563  0.6230 -1.5047
 3643TIP3    H232345   3.441   6.594  14.289 -0.9908 -0.1138  0.0654
 3644TIP3   OH232346   4.711   5.628   1.367  0.2785 -0.7302 -0.2042
 3644TIP3    H132347   4.636   5.569   1.362 -0.4387  0.2479 -2.9064
 3644TIP3    H232348   4.785   5.576   1.334  0.1111 -0.7765 -0.5112
 3645TIP3   OH232349   5.717   5.413   2.626  0.2411 -0.0398  0.6387
 3645TIP3    H132350   5.655   5.465   2.678 -1.0416 -0.8917  0.0084
 3645TIP3    H232351   5.732   5.335   2.679 -0.2217 -0.4121  0.2283
 3646TIP3   OH232352   2.477   0.508  15.260 -0.1589  0.2171  0.1169
 3646TIP3    H132353   2.435   0.512  15.346 -0.4552 -1.3924  0.0836
 3646TIP3    H232354   2.537   0.583  15.259  0.7015 -0.3526  2.2106
 3647TIP3   OH232355   1.367   3.234  11.000 -0.4600  1.1446 -0.2468
 3647TIP3    H132356   1.335   3.164  11.058 -1.2653  0.8007 -1.0785
 3647TIP3    H232357   1.386   3.189  10.917 -0.6040  1.8540 -0.6692
 3648TIP3   OH232358   5.624   1.923  11.936 -0.0980 -0.1763  0.0474
 3648TIP3    H132359   5.613   2.004  11.986  0.2541  0.3641 -0.7393
 3648TIP3    H232360   5.687   1.872  11.987  0.5274  0.5213 -0.0208
 3649TIP3   OH232361   4.085   2.834  14.110 -0.0232 -0.4033  0.7665
 3649TIP3    H132362   3.994   2.812  14.130  0.2640 -1.5612  0.8696
 3649TIP3    H232363   4.092   2.822  14.015  0.3092 -1.4569  0.9165
 3650TIP3   OH232364   4.964   3.332  10.835  0.4447 -0.1996  0.2172
 3650TIP3    H132365   4.885   3.298  10.792  0.5455  0.9993 -0.9702
 3650TIP3    H232366   4.948   3.426  10.843  1.1059 -0.1730  1.3976
 3651TIP3   OH232367   3.346   2.860   0.374 -0.3261 -0.2903  0.1275
 3651TIP3    H132368   3.425   2.818   0.407 -0.0414  0.9021  1.0298
 3651TIP3    H232369   3.274   2.815   0.418 -0.1068 -0.6960  0.0789
 3652TIP3   OH232370   5.372   4.097  17.132 -0.1384  0.1792 -0.2563
 3652TIP3    H132371   5.433   4.039  17.178  0.8058 -0.6610 -2.3923
 3652TIP3    H232372   5.353   4.051  17.050 -2.5109  1.1288 -0.3152
 3653TIP3   OH232373   5.956   2.770   1.153  0.1500  0.3427 -0.2671
 3653TIP3    H132374   5.912   2.731   1.078  0.6273 -0.0925 -0.3288
 3653TIP3    H232375   5.908   2.738   1.229  1.3969 -1.5558 -0.2318
 3654TIP3   OH232376   3.743   4.431  17.201 -0.1357  0.1592  0.3599
 3654TIP3    H132377   3.735   4.382  17.283  0.2928 -0.4195  0.0648
 3654TIP3    H232378   3.703   4.375  17.135  0.3304  0.2162  0.0233
 3655TIP3   OH232379   5.040   1.922   0.451  0.1155  0.5096 -0.5049
 3655TIP3    H132380   5.083   1.936   0.367 -1.7159  0.3734 -1.5363
 3655TIP3    H232381   4.995   2.005   0.469  0.9463  0.7269  0.6356
 3656TIP3   OH232382   3.353   1.923  15.789  1.0675 -0.2271 -0.2575
 3656TIP3    H132383   3.361   1.841  15.740  0.5759 -0.5048  0.1096
 3656TIP3    H232384   3.293   1.902  15.861  2.5153 -0.1063  1.0377
 3657TIP3   OH232385   4.944   6.700   2.651 -0.0300 -0.6582 -0.2386
 3657TIP3    H132386   4.868   6.714   2.708 -0.4306 -1.6781 -0.4822
 3657TIP3    H232387   5.017   6.739   2.697 -0.6343 -0.0422  0.2110
 3658TIP3   OH232388   2.961   4.234   4.791 -0.2006  0.2841  0.7498
 3658TIP3    H132389   2.904   4.161   4.816 -0.5634 -0.3793 -1.7752
 3658TIP3    H232390   3.037   4.194   4.750 -0.1313  1.3004 -0.1656
 3659TIP3   OH232391   4.085   4.668   1.764 -0.2358 -0.0478  0.0914
 3659TIP3    H132392   3.996   4.657   1.799  0.6285 -0.4456  2.3109
 3659TIP3    H232393   4.103   4.585   1.720 -1.1634  0.2696 -0.9482
 3660TIP3   OH232394   3.401   4.562  16.649 -0.0210  0.6514  0.3541
 3660TIP3    H132395   3.350   4.565  16.730 -1.6758 -0.4557 -0.5677
 3660TIP3    H232396   3.335   4.558  16.579  1.3108 -0.8861 -0.9180
 3661TIP3   OH232397   2.175   3.222   1.439  0.3687  0.3668 -0.0319
 3661TIP3    H132398   2.162   3.305   1.392  0.9300  0.0280 -0.8172
 3661TIP3    H232399   2.188   3.157   1.369  0.2478 -0.3271  0.5789
 3662TIP3   OH232400   5.783   4.805  14.298  0.2369  1.0289  0.4257
 3662TIP3    H132401   5.803   4.762  14.214 -0.7567 -1.6914  1.4761
 3662TIP3    H232402   5.819   4.747  14.364  0.4443  2.8108  1.9600
 3663TIP3   OH232403   5.479   3.800  11.420  0.7572  0.7205 -0.0301
 3663TIP3    H132404   5.559   3.778  11.373  0.9550 -0.7389  0.9265
 3663TIP3    H232405   5.451   3.883  11.382  0.7245 -0.4977 -2.9384
 3664TIP3   OH232406   0.815   2.083  12.548 -0.4730  0.2698 -0.2920
 3664TIP3    H132407   0.876   2.014  12.573  0.0007  0.4398 -0.9767
 3664TIP3    H232408   0.728   2.044  12.561 -0.3405  0.6948  2.7043
 3665TIP3   OH232409   1.235   1.247   1.390 -0.1611 -0.3548 -0.2110
 3665TIP3    H132410   1.176   1.310   1.431 -0.2949  1.0532 -2.3775
 3665TIP3    H232411   1.303   1.301   1.349 -1.1441 -1.3519 -3.5079
 3666TIP3   OH232412   6.756   1.710  13.289 -0.1508  0.5312 -0.2456
 3666TIP3    H132413   6.747   1.743  13.379  0.7128  0.5892 -0.1751
 3666TIP3    H232414   6.802   1.627  13.298 -0.6549  0.2062 -0.5881
 3667TIP3   OH232415   6.288   5.939  10.668 -0.1688 -0.1300 -0.0159
 3667TIP3    H132416   6.263   5.875  10.602 -2.2959  1.0464 -0.4670
 3667TIP3    H232417   6.332   5.888  10.736  0.6962 -1.6012 -1.5995
 3668TIP3   OH232418   2.171   3.017   4.230  0.2699  0.8586 -0.0980
 3668TIP3    H132419   2.229   3.087   4.259 -0.0722  1.5033 -0.9067
 3668TIP3    H232420   2.139   3.047   4.145  0.5796 -0.5557 -0.7422
 3669TIP3   OH232421   5.450   2.328   3.878 -0.6742 -0.8114 -0.0400
 3669TIP3    H132422   5.452   2.414   3.918 -0.9971  0.5219 -2.6607
 3669TIP3    H232423   5.357   2.307   3.869 -0.6198 -2.2929  2.1327
 3670TIP3   OH232424   3.703   0.829  12.404  0.0595 -0.7457  0.1880
 3670TIP3    H132425   3.764   0.820  12.477  0.3085  0.0473  0.0894
 3670TIP3    H232426   3.685   0.923  12.400  1.4725 -0.5107 -1.9136
 3671TIP3   OH232427   1.235   0.331   2.028  0.2267  0.1511 -0.0517
 3671TIP3    H132428   1.264   0.409   1.982 -0.3652  0.6781  0.4306
 3671TIP3    H232429   1.146   0.353   2.058  1.2944  0.6773  3.1177
 3672TIP3   OH232430   2.644   1.356   5.782  0.4024  0.1184  0.1680
 3672TIP3    H132431   2.650   1.327   5.873  0.2846 -1.2729 -0.2414
 3672TIP3    H232432   2.733   1.381   5.758  1.1583 -2.7112 -0.3081
 3673TIP3   OH232433   3.071   2.354  14.621 -0.3697 -0.1363  0.4016
 3673TIP3    H132434   3.010   2.397  14.680 -1.5603 -0.6444 -0.4322
 3673TIP3    H232435   3.042   2.263  14.618  0.4401 -0.3944 -0.0037
 3674TIP3   OH232436   0.843   6.618  13.977  0.1070 -0.2047 -0.5950
 3674TIP3    H132437   0.836   6.685  14.046  0.7716  1.0995 -1.7510
 3674TIP3    H232438   0.775   6.641  13.914 -0.4456 -1.3417 -0.4381
 3675TIP3   OH232439   0.120   2.918   0.389 -0.0157  0.3268 -0.1835
 3675TIP3    H132440   0.103   2.919   0.295  0.1237  0.9827 -0.2062
 3675TIP3    H232441   0.147   2.828   0.408  1.7903  0.6198 -1.1114
 3676TIP3   OH232442   5.325   4.986  11.790  0.0097 -0.1388 -0.4941
 3676TIP3    H132443   5.365   5.069  11.819 -1.0748  1.0263 -2.1604
 3676TIP3    H232444   5.390   4.948  11.732 -0.0647  0.2675 -0.8506
 3677TIP3   OH232445   5.072   5.440  16.844  0.1901  0.1548  0.2379
 3677TIP3    H132446   5.152   5.455  16.894  1.4138 -0.9303 -1.2933
 3677TIP3    H232447   5.081   5.497  16.767 -1.5308  1.5972  1.0185
 3678TIP3   OH232448   6.673   5.221  17.220 -0.0551  0.4194 -0.5679
 3678TIP3    H132449   6.604   5.185  17.276  1.1524  0.6816  1.1767
 3678TIP3    H232450   6.700   5.302  17.265  1.9587 -0.1200 -0.7079
 3679TIP3   OH232451   1.941   4.424  15.677 -0.1795 -0.4491 -0.0455
 3679TIP3    H132452   1.990   4.357  15.629 -0.2522  0.5862 -1.6492
 3679TIP3    H232453   1.849   4.408  15.654 -0.3727 -0.8489  0.9555
 3680TIP3   OH232454   3.703   5.179   5.421  0.6833 -0.1435  0.0020
 3680TIP3    H132455   3.645   5.243   5.463  0.0460 -0.1093 -0.8837
 3680TIP3    H232456   3.649   5.141   5.352  0.5079 -2.8220  1.4865
 3681TIP3   OH232457   0.576   0.364  12.608  0.0682 -0.0883  0.1374
 3681TIP3    H132458   0.530   0.434  12.655 -0.1942 -0.1033 -0.0957
 3681TIP3    H232459   0.667   0.373  12.634  0.4990  1.9133 -1.8244
 3682TIP3   OH232460   0.546   5.970   1.884  0.1522 -0.0947 -0.1993
 3682TIP3    H132461   0.452   5.961   1.868 -0.2057 -1.0502  2.0031
 3682TIP3    H232462   0.576   5.880   1.896  1.1256  0.2775  0.2316
 3683TIP3   OH232463   2.679   5.269  14.376  0.0984  0.5650 -0.2624
 3683TIP3    H132464   2.772   5.284  14.393  0.0660  0.3162  0.1298
 3683TIP3    H232465   2.677   5.228  14.290  0.4982 -1.2764  0.5570
 3684TIP3   OH232466   2.239   5.935   0.200  0.1809 -0.4456 -0.5594
 3684TIP3    H132467   2.234   6.027   0.225 -0.0200 -0.8529  1.0417
 3684TIP3    H232468   2.327   5.924   0.165  1.5325 -0.3124  2.4455
 3685TIP3   OH232469   0.975   3.009   2.775 -0.1099  0.4713 -0.1896
 3685TIP3    H132470   0.914   2.938   2.755 -0.6112  1.0077 -0.6308
 3685TIP3    H232471   1.021   2.980   2.853 -1.4466  0.3600  0.5932
 3686TIP3   OH232472   4.896   1.978  11.106 -0.1073  0.1909  0.4008
 3686TIP3    H132473   4.990   1.997  11.112 -0.0273 -0.1623  0.2792
 3686TIP3    H232474   4.890   1.884  11.123 -0.5601  0.4206  1.5980
 3687TIP3   OH232475   6.231   1.612  17.145 -0.0378  0.0578 -0.2749
 3687TIP3    H132476   6.300   1.549  17.165  0.6755  0.3287 -1.7402
 3687TIP3    H232477   6.277   1.692  17.120 -0.9162  0.7656  0.3265
 3688TIP3   OH232478   4.744   3.819  13.276 -0.2570  0.5052 -0.1805
 3688TIP3    H132479   4.741   3.840  13.369  2.3323 -1.0063  0.3283
 3688TIP3    H232480   4.652   3.804  13.253 -1.0302  1.4443  1.9566
 3689TIP3   OH232481   6.093   5.729  16.625 -0.1872 -0.6288 -0.6738
 3689TIP3    H132482   6.157   5.800  16.615 -0.1663 -0.5541 -0.0148
 3689TIP3    H232483   6.009   5.770  16.604 -0.3796 -0.0010  1.1421
 3690TIP3   OH232484   1.453   1.436  13.719 -0.1471  1.4196  0.4334
 3690TIP3    H132485   1.358   1.433  13.704 -0.0444  0.8175 -0.1727
 3690TIP3    H232486   1.471   1.360  13.775  0.1911  0.5129 -0.8541
 3691TIP3   OH232487   3.581   4.219   1.241 -0.4610  0.0487  0.1743
 3691TIP3    H132488   3.539   4.133   1.235 -0.4849 -0.0746  1.6797
 3691TIP3    H232489   3.663   4.202   1.287  0.1373  0.6514 -0.6451
 3692TIP3   OH232490   5.170   2.411   6.050  0.2372  0.2036 -0.0386
 3692TIP3    H132491   5.094   2.370   6.010  0.6109  0.4114 -0.9781
 3692TIP3    H232492   5.235   2.341   6.057  0.6755  0.4877 -1.1249
 3693TIP3   OH232493   0.628   5.094   4.433  0.5496  0.6580 -0.1586
 3693TIP3    H132494   0.705   5.131   4.391 -0.2003  1.4283 -0.9059
 3693TIP3    H232495   0.621   5.140   4.517  0.0588  1.6858 -0.7469
 3694TIP3   OH232496   5.444   4.889   3.243  0.7102  0.1880 -0.0468
 3694TIP3    H132497   5.374   4.879   3.178  1.5450  0.1444 -0.9651
 3694TIP3    H232498   5.415   4.962   3.298  0.6198  1.1868 -1.3541
 3695TIP3   OH232499   5.584   5.873   2.841  0.3536 -0.2325 -0.2647
 3695TIP3    H132500   5.650   5.835   2.783  0.0972  0.9117 -1.3458
 3695TIP3    H232501   5.630   5.884   2.924  1.2792 -0.2534 -0.7546
 3696TIP3   OH232502   3.599   6.704  14.963 -0.9781  0.0690 -0.4482
 3696TIP3    H132503   3.619   6.754  15.041  1.2632 -0.6105 -0.5110
 3696TIP3    H232504   3.539   6.635  14.993 -0.3231 -0.0469  0.6283
 3697TIP3   OH232505   3.985   3.380   3.941  0.0092 -0.0907 -1.2208
 3697TIP3    H132506   4.015   3.293   3.968 -2.4195 -0.7589 -0.3529
 3697TIP3    H232507   4.038   3.441   3.993 -1.0963 -1.2415  1.4759
 3698TIP3   OH232508   0.510   1.734   0.245  0.3794 -0.4621 -0.2062
 3698TIP3    H132509   0.472   1.819   0.267  0.1335 -0.0151 -2.1908
 3698TIP3    H232510   0.446   1.693   0.187 -0.5907 -3.0542  2.4413
 3699TIP3   OH232511   2.753   5.161  15.825 -0.4237  0.2666 -0.5031
 3699TIP3    H132512   2.698   5.083  15.825 -1.4011  0.9292 -0.8156
 3699TIP3    H232513   2.726   5.209  15.747  0.3529  0.7890 -0.4620
 3700TIP3   OH232514   1.111   6.702  16.175 -0.1868 -0.4137  0.3401
 3700TIP3    H132515   1.071   6.721  16.260 -0.0699 -0.7393  0.4667
 3700TIP3    H232516   1.047   6.648  16.129 -0.3940  0.0390  0.0892
 3701TIP3   OH232517   3.796   1.955  13.374  0.5650  0.1593 -0.0774
 3701TIP3    H132518   3.788   1.995  13.461 -0.3800 -1.4395  0.6167
 3701TIP3    H232519   3.884   1.918  13.372  0.6974  0.4638  0.0760
 3702TIP3   OH232520   2.658   5.812   0.052 -0.4054  0.7393  0.0895
 3702TIP3    H132521   2.685   5.776   0.137  1.1024  2.4527  0.4058
 3702TIP3    H232522   2.694   5.752  -0.013  0.0983  0.4597  0.6251
 3703TIP3   OH232523   2.527   5.636   1.335  0.7368  0.3572 -0.1930
 3703TIP3    H132524   2.604   5.693   1.344  2.1076 -1.3667 -0.5057
 3703TIP3    H232525   2.498   5.648   1.245  2.6418 -1.3288 -1.0980
 3704TIP3   OH232526   5.358   0.515   0.601 -0.0529 -0.5325  0.5333
 3704TIP3    H132527   5.330   0.424   0.616  0.4075 -0.9674 -1.0431
 3704TIP3    H232528   5.287   0.555   0.552  1.0354 -1.0127 -1.5716
 3705TIP3   OH232529   5.765   2.975  15.538  0.1410  0.4925 -0.0491
 3705TIP3    H132530   5.841   3.032  15.524  0.9168 -0.7495 -1.1260
 3705TIP3    H232531   5.783   2.898  15.484 -1.0321 -0.6304  1.0988
 3706TIP3   OH232532   5.358   6.392  13.225 -0.4485  0.8981 -0.4678
 3706TIP3    H132533   5.415   6.467  13.205  0.2492  0.7003  0.6811
 3706TIP3    H232534   5.332   6.406  13.316 -1.7363  0.6434 -0.7824
 3707TIP3   OH232535   1.022   1.034  14.501  0.0992 -0.3676 -0.3122
 3707TIP3    H132536   1.044   1.013  14.592  0.7298  0.6831 -0.2164
 3707TIP3    H232537   1.095   1.087  14.470 -1.9652  2.8476 -0.1276
 3708TIP3   OH232538   0.177   0.288   3.205 -0.8209  0.0278  0.0203
 3708TIP3    H132539   0.190   0.217   3.143 -2.3648  0.5105 -0.9111
 3708TIP3    H232540   0.249   0.348   3.188 -0.3125 -0.6250 -0.1673
 3709TIP3   OH232541   1.850   3.823   0.141  0.6647  0.2779 -0.2761
 3709TIP3    H132542   1.814   3.743   0.179  2.2751 -0.2583  0.1901
 3709TIP3    H232543   1.920   3.849   0.200  0.7775  1.5258 -0.9156
 3710TIP3   OH232544   5.096   5.214   5.982 -0.1810 -0.2284 -0.2317
 3710TIP3    H132545   5.044   5.134   5.978  1.2392 -1.1286 -1.8398
 3710TIP3    H232546   5.185   5.185   6.001  0.2464  1.0225 -0.2060
 3711TIP3   OH232547   3.709   2.500  14.842 -0.1619 -0.0248  0.2058
 3711TIP3    H132548   3.704   2.544  14.757 -0.4152 -0.2345  0.1120
 3711TIP3    H232549   3.798   2.518  14.873  0.0609 -0.2898 -0.2867
 3712TIP3   OH232550   6.344   4.487   5.098 -0.4624 -0.2059 -0.5351
 3712TIP3    H132551   6.262   4.481   5.048 -0.4739  0.6309 -0.6263
 3712TIP3    H232552   6.386   4.566   5.065 -0.6718  0.6170  1.0923
 3713TIP3   OH232553   5.101   3.253   6.027  0.0301 -0.4286 -0.1726
 3713TIP3    H132554   5.142   3.190   6.086 -3.1888 -2.0632  0.5240
 3713TIP3    H232555   5.082   3.203   5.947 -1.0228  0.0844 -0.2657
 3714TIP3   OH232556   5.074   5.711  16.684  0.4474  0.2103  0.2334
 3714TIP3    H132557   5.033   5.796  16.700 -0.4847 -0.0006 -0.8486
 3714TIP3    H232558   5.046   5.688  16.595  2.6495 -0.1375 -0.4189
 3715TIP3   OH232559   4.438   3.185   6.381  0.0083 -0.1439  0.3418
 3715TIP3    H132560   4.495   3.212   6.310 -0.4709 -0.7143 -0.2730
 3715TIP3    H232561   4.352   3.217   6.357  0.0973  1.0077  1.4304
 3716TIP3   OH232562   2.897   2.294  15.431 -0.1261 -0.6439  0.2250
 3716TIP3    H132563   2.886   2.331  15.343 -0.4691 -2.1927 -0.4304
 3716TIP3    H232564   2.902   2.370  15.489 -1.8670  0.4185 -0.9029
 3717TIP3   OH232565   0.438   4.517   0.246 -0.0092 -0.2345 -0.1363
 3717TIP3    H132566   0.476   4.436   0.278  0.0734 -0.4100 -0.6598
 3717TIP3    H232567   0.489   4.538   0.167  0.6621  0.8903  0.5740
 3718TIP3   OH232568   3.535   1.965  14.681 -0.3237  0.4105  0.0128
 3718TIP3    H132569   3.534   2.032  14.750 -0.9305  1.3968 -0.9200
 3718TIP3    H232570   3.442   1.953  14.659 -0.0792  0.8121 -1.2825
 3719TIP3   OH232571   3.340   4.069  12.375  0.0035 -0.1211 -0.1774
 3719TIP3    H132572   3.270   4.042  12.317  0.3273  0.9195 -1.0756
 3719TIP3    H232573   3.306   4.054  12.463 -0.6405 -1.3395 -0.6149
 3720TIP3   OH232574   1.444   3.903   3.060 -0.0202 -0.1992 -0.0061
 3720TIP3    H132575   1.514   3.949   3.107  0.8201 -0.7063 -0.7365
 3720TIP3    H232576   1.370   3.963   3.064 -0.1670 -0.4240  2.3967
 3721TIP3   OH232577   6.351   3.930  13.846 -0.5251 -0.6405 -0.3490
 3721TIP3    H132578   6.314   4.004  13.799 -0.4228 -0.7965 -0.6834
 3721TIP3    H232579   6.373   3.964  13.933  0.3538 -0.0402 -0.7917
 3722TIP3   OH232580   4.266   4.000   0.888  0.4600 -0.0335 -0.6195
 3722TIP3    H132581   4.253   4.058   0.812 -0.8992 -0.9477 -1.1230
 3722TIP3    H232582   4.246   3.913   0.854 -0.5613 -0.4131  0.8844
 3723TIP3   OH232583   3.045   0.033  17.155  0.1507  0.3787  0.3738
 3723TIP3    H132584   2.981   0.078  17.100 -0.4513 -0.4725  0.3549
 3723TIP3    H232585   3.092  -0.025  17.095  1.7814  1.8306  0.1594
 3724TIP3   OH232586   1.287   5.446   4.158 -0.1125  0.0673  0.5081
 3724TIP3    H132587   1.332   5.431   4.075 -1.5181  3.0806 -0.9475
 3724TIP3    H232588   1.353   5.485   4.215  0.9748 -2.3905  1.0822
 3725TIP3   OH232589   1.810   1.263   1.737  0.7000  0.5142  0.3699
 3725TIP3    H132590   1.765   1.347   1.728 -1.5300 -0.6055  0.4969
 3725TIP3    H232591   1.818   1.250   1.832 -0.3779 -0.1017  0.3908
 3726TIP3   OH232592   2.516   2.986  15.461  0.1382 -0.0106 -0.5640
 3726TIP3    H132593   2.542   3.043  15.389 -4.3705  0.8672 -1.7867
 3726TIP3    H232594   2.497   3.045  15.533  1.3700 -0.6101  0.2905
 3727TIP3   OH232595   0.175   5.448  13.206  0.3948 -0.3892  0.8302
 3727TIP3    H132596   0.142   5.377  13.151  0.0445 -0.2822  0.9038
 3727TIP3    H232597   0.097   5.494  13.237  0.6344  0.5949  0.0470
 3728TIP3   OH232598   5.341   5.384  14.411  0.4101  0.0578  1.1376
 3728TIP3    H132599   5.300   5.404  14.326 -0.1424  2.3130  1.8620
 3728TIP3    H232600   5.305   5.299  14.435 -0.5369  0.0299 -0.2489
 3729TIP3   OH232601   0.264   5.960   1.782 -0.2826  0.2187 -0.2059
 3729TIP3    H132602   0.238   6.010   1.859 -1.1888 -1.0669  0.3495
 3729TIP3    H232603   0.288   6.026   1.718  0.6880  1.3176  1.2328
 3730TIP3   OH232604   6.417   0.246   5.245  0.1568  0.5532 -0.2082
 3730TIP3    H132605   6.345   0.184   5.257  0.4289  0.3065  0.1953
 3730TIP3    H232606   6.462   0.214   5.166 -0.9784  1.5223 -1.2922
 3731TIP3   OH232607   4.034   1.258  14.272 -0.0711  0.3521  0.3588
 3731TIP3    H132608   3.942   1.239  14.290 -0.3254  1.0004 -0.2092
 3731TIP3    H232609   4.036   1.353  14.261  0.8693  0.4882  1.5098
 3732TIP3   OH232610   1.987   0.490   1.661 -0.0637 -0.2269 -0.0751
 3732TIP3    H132611   1.898   0.484   1.695 -0.8486  1.0621 -1.7540
 3732TIP3    H232612   1.998   0.582   1.637  1.7315 -0.3615  0.0918
 3733TIP3   OH232613   1.124   6.560   0.948  0.1054 -0.2760 -0.0946
 3733TIP3    H132614   1.112   6.549   1.042  1.1109 -1.5983 -0.0947
 3733TIP3    H232615   1.176   6.640   0.940  0.5537 -0.5005  0.5159
 3734TIP3   OH232616   2.638   6.150   4.437  0.0090  0.2881 -0.7549
 3734TIP3    H132617   2.608   6.173   4.349 -0.2971  1.3944 -0.3801
 3734TIP3    H232618   2.733   6.142   4.429  0.0153  0.7046 -1.1147
 3735TIP3   OH232619   2.205   2.291  17.062 -0.3679  0.1723 -0.0306
 3735TIP3    H132620   2.135   2.315  17.122 -2.4862  3.3136 -3.3387
 3735TIP3    H232621   2.258   2.370  17.054  1.8147 -1.1881  0.0384
 3736TIP3   OH232622   1.943   2.801  12.125  0.4261  0.2611  0.2043
 3736TIP3    H132623   1.850   2.802  12.150  0.4515 -1.3899  0.4888
 3736TIP3    H232624   1.988   2.839  12.201 -0.0149  1.2779 -0.0252
 3737TIP3   OH232625   5.365   5.147  12.743 -0.1365  0.1086 -0.0115
 3737TIP3    H132626   5.439   5.200  12.772  0.2614  1.4932 -3.1734
 3737TIP3    H232627   5.290   5.180  12.793  0.9555  0.1102  1.7049
 3738TIP3   OH232628   6.151   6.038  15.908  0.1969 -0.1487 -0.4192
 3738TIP3    H132629   6.152   5.969  15.974  1.1315  0.1841 -0.0761
 3738TIP3    H232630   6.058   6.056  15.894 -0.0204  0.7595  1.8428
 3739TIP3   OH232631   2.101   3.242  14.494  0.0424 -0.2532  0.0317
 3739TIP3    H132632   2.126   3.153  14.467  1.1346 -0.3985  1.4592
 3739TIP3    H232633   2.057   3.278  14.417 -0.8464 -2.1888 -0.4263
 3740TIP3   OH232634   2.541   1.959  13.863  0.6596 -0.0771  0.5817
 3740TIP3    H132635   2.571   2.007  13.940  1.4260 -1.0398  0.8982
 3740TIP3    H232636   2.607   1.978  13.796 -0.7240  1.8963 -0.3249
 3741TIP3   OH232637   1.870   2.485   2.454  0.4688  0.1298  0.0532
 3741TIP3    H132638   1.951   2.536   2.450  1.0463 -0.7734  0.0049
 3741TIP3    H232639   1.840   2.481   2.363 -0.1788  1.2981  0.1933
 3742TIP3   OH232640   2.092   2.182  11.875 -0.2548  0.1900  0.2133
 3742TIP3    H132641   2.162   2.189  11.809 -0.9603  0.3142 -0.5401
 3742TIP3    H232642   2.016   2.223  11.833 -1.0805 -0.9395  0.5872
 3743TIP3   OH232643   0.562   5.532  15.783  0.1017  0.1909 -0.0834
 3743TIP3    H132644   0.630   5.482  15.737  1.1934 -0.6185  2.2763
 3743TIP3    H232645   0.505   5.465  15.821  0.8734  0.6831  2.0827
 3744TIP3   OH232646   0.479   5.237  11.356 -0.4191 -0.2505 -0.7066
 3744TIP3    H132647   0.412   5.279  11.302  1.1345  2.5291 -0.6538
 3744TIP3    H232648   0.560   5.251  11.308  0.4748 -1.3257  0.4304
 3745TIP3   OH232649   2.408   1.564   2.991  0.2090 -0.8136 -0.0452
 3745TIP3    H132650   2.315   1.548   2.977 -0.1828  0.8923  0.3057
 3745TIP3    H232651   2.416   1.572   3.086  0.6227 -0.5012 -0.1064
 3746TIP3   OH232652   6.384   6.750   4.154 -0.3769  0.0860  1.1551
 3746TIP3    H132653   6.381   6.657   4.130  2.1627  0.2388 -0.0949
 3746TIP3    H232654   6.395   6.796   4.071  2.6059  1.1325  2.0063
 3747TIP3   OH232655   1.029   1.780  11.931 -0.0752  0.1507 -0.0528
 3747TIP3    H132656   0.970   1.828  11.989  0.7827  2.1802 -0.7835
 3747TIP3    H232657   1.103   1.756  11.986 -0.1531  0.3516  0.1397
 3748TIP3   OH232658   5.625   5.490  13.105 -0.2759 -0.2408 -0.0501
 3748TIP3    H132659   5.556   5.516  13.166 -0.1806 -0.1102  0.0027
 3748TIP3    H232660   5.696   5.552  13.121 -0.6216  0.4044 -0.9809
 3749TIP3   OH232661   1.229   3.865  15.666  1.0806 -0.1656 -0.5612
 3749TIP3    H132662   1.225   3.794  15.602  0.4159 -0.3143 -0.3583
 3749TIP3    H232663   1.319   3.898  15.660  1.1342 -0.4353 -1.2915
 3750TIP3   OH232664   3.835   6.043   2.424  0.1947  0.2801  0.4898
 3750TIP3    H132665   3.742   6.043   2.404  0.5984 -0.3859 -1.5899
 3750TIP3    H232666   3.876   6.089   2.351  1.7019 -1.4723  0.1527
 3751TIP3   OH232667   5.595   6.058   4.646  0.5723 -0.2070  0.2104
 3751TIP3    H132668   5.522   6.001   4.671  0.0111  0.7714  0.8530
 3751TIP3    H232669   5.639   6.078   4.729  1.9393 -1.2360 -0.2255
 3752TIP3   OH232670   3.049   1.130   6.129  0.3407  0.2877  0.0996
 3752TIP3    H132671   3.023   1.089   6.047  0.1600  0.0396  0.2812
 3752TIP3    H232672   3.116   1.194   6.103 -0.2373  0.7251 -0.3315
 3753TIP3   OH232673   2.732   3.924   3.990  0.1605 -0.0267  0.3982
 3753TIP3    H132674   2.686   3.967   3.918  0.2046 -0.2238  0.2497
 3753TIP3    H232675   2.674   3.934   4.065  0.0183  0.0013  0.2854
 3754TIP3   OH232676   6.095   2.153   5.521 -0.2908 -0.0905 -0.4949
 3754TIP3    H132677   6.104   2.146   5.616  0.2221  2.0895 -0.3247
 3754TIP3    H232678   6.157   2.089   5.486  0.6094  0.1268  0.6523
 3755TIP3   OH232679   2.216   6.192   5.428 -0.2891  0.0732  0.9710
 3755TIP3    H132680   2.250   6.126   5.488  0.5248 -0.1273  0.3161
 3755TIP3    H232681   2.135   6.154   5.393 -0.2735 -0.2060  1.2409
 3756TIP3   OH232682   1.751   0.537   0.038 -0.4470 -0.5856 -0.3828
 3756TIP3    H132683   1.819   0.498   0.093 -0.8586  1.1056  1.4622
 3756TIP3    H232684   1.790   0.618   0.005 -0.5362 -1.1221 -1.8763
 3757TIP3   OH232685   5.723   2.625  13.959 -0.5233 -0.8628  0.4727
 3757TIP3    H132686   5.788   2.558  13.979 -0.7142 -1.5301 -1.0044
 3757TIP3    H232687   5.651   2.577  13.917 -1.6968 -0.0507  1.4835
 3758TIP3   OH232688   1.397   4.470   2.454  0.5523 -0.1188  0.1693
 3758TIP3    H132689   1.444   4.480   2.537  2.2566 -0.4638 -0.7122
 3758TIP3    H232690   1.399   4.376   2.436 -1.0514 -0.2287  0.3982
 3759TIP3   OH232691   0.383   2.370  13.188  0.2405  0.1876  0.1798
 3759TIP3    H132692   0.405   2.446  13.242  2.0262  1.7912 -2.5881
 3759TIP3    H232693   0.295   2.388  13.156  1.0139  1.6200 -1.2194
 3760TIP3   OH232694   0.168   0.810   6.280  0.5095  0.1792 -0.1868
 3760TIP3    H132695   0.250   0.762   6.264  0.6835  0.7741 -1.1191
 3760TIP3    H232696   0.144   0.845   6.195 -0.1026  0.9851  0.3136
 3761TIP3   OH232697   0.573   3.565  16.806  0.2881  0.1035  0.2914
 3761TIP3    H132698   0.616   3.560  16.720 -0.6405  0.3035 -0.1895
 3761TIP3    H232699   0.646   3.573  16.868  0.9641  3.6548 -0.7164
 3762TIP3   OH232700   5.025   6.331  14.887  0.0506 -0.0584 -0.1617
 3762TIP3    H132701   4.992   6.348  14.798  3.1135 -1.7848 -1.7957
 3762TIP3    H232702   4.965   6.264  14.922 -1.5834  1.1077 -0.5917
 3763TIP3   OH232703   5.141   3.094   4.205 -0.7999  0.0594 -0.0495
 3763TIP3    H132704   5.048   3.103   4.183 -0.5685 -2.3070 -2.5164
 3763TIP3    H232705   5.186   3.152   4.143 -0.5443  1.8903  1.7106
 3764TIP3   OH232706   2.142   1.914  14.541  0.0841  0.0185 -0.5843
 3764TIP3    H132707   2.193   1.898  14.461 -1.4664 -2.0388 -1.2310
 3764TIP3    H232708   2.205   1.903  14.612  0.7318 -1.8046 -1.3884
 3765TIP3   OH232709   3.430   2.072   3.483  0.3401 -0.0861 -0.0890
 3765TIP3    H132710   3.425   2.006   3.552  1.8051  0.0042  0.1395
 3765TIP3    H232711   3.396   2.152   3.523 -0.3186 -0.4124  0.0119
 3766TIP3   OH232712   6.715   1.860  13.583 -0.2865 -0.4401 -0.8123
 3766TIP3    H132713   6.798   1.814  13.591 -0.7016 -1.0747  0.0499
 3766TIP3    H232714   6.735   1.951  13.607 -0.0874 -0.8569  0.7015
 3767TIP3   OH232715   4.719   3.557   1.845 -0.4275  0.4270 -0.1084
 3767TIP3    H132716   4.794   3.526   1.793  0.3457  0.9070  0.7090
 3767TIP3    H232717   4.674   3.618   1.787 -0.0623  0.3106 -0.5243
 3768TIP3   OH232718   4.881   2.214  14.413 -0.2564  0.8079 -0.1974
 3768TIP3    H132719   4.847   2.255  14.333 -2.0936  0.4977  0.3750
 3768TIP3    H232720   4.966   2.178  14.387 -1.9368 -1.7074 -2.8440
 3769TIP3   OH232721   4.442   0.027   3.929 -0.5959 -0.2182  0.4507
 3769TIP3    H132722   4.456  -0.035   3.857 -2.4928 -1.5776  1.1940
 3769TIP3    H232723   4.395   0.100   3.889 -0.7730 -0.5141  0.1167
 3770TIP3   OH232724   0.393   3.213  14.846  0.4222  0.5060  0.1256
 3770TIP3    H132725   0.359   3.266  14.773 -0.2768  1.8002  1.3257
 3770TIP3    H232726   0.314   3.187  14.895  0.8633 -0.4971  0.3220
 3771TIP3   OH232727   3.614   3.810   0.889 -0.1412 -0.0692  0.7078
 3771TIP3    H132728   3.622   3.781   0.798  0.5209 -2.0670  1.3505
 3771TIP3    H232729   3.688   3.769   0.934  0.7173  2.4674  1.8161
 3772TIP3   OH232730   5.332   0.051  13.829  0.9141  0.4318 -0.4983
 3772TIP3    H132731   5.366   0.059  13.740 -3.3359  0.2813 -2.3409
 3772TIP3    H232732   5.290  -0.035  13.831 -0.7099  1.1969  0.9559
 3773TIP3   OH232733   4.106   3.799   3.458  0.8892  0.0086 -0.2796
 3773TIP3    H132734   4.016   3.792   3.491  0.5009 -0.4468 -1.3985
 3773TIP3    H232735   4.102   3.870   3.394  1.5435  0.5904  0.3078
 3774TIP3   OH232736   6.277   0.031   0.602  0.2318 -0.2731 -0.0267
 3774TIP3    H132737   6.282   0.122   0.632 -0.9751 -0.0821 -0.3432
 3774TIP3    H232738   6.246   0.037   0.511 -1.5105 -1.0402  0.4732
 3775TIP3   OH232739   5.443   6.698  11.083 -0.3602 -0.5570 -0.0418
 3775TIP3    H132740   5.521   6.747  11.057  0.0649 -1.4419 -0.5006
 3775TIP3    H232741   5.466   6.606  11.065 -1.4315 -0.8459  0.0115
 3776TIP3   OH232742   2.579   1.697   1.256 -0.0149 -0.0638  0.2524
 3776TIP3    H132743   2.571   1.792   1.261 -2.7932 -0.2176  0.0410
 3776TIP3    H232744   2.522   1.671   1.184 -0.0742 -1.9742  0.9282
 3777TIP3   OH232745   5.847   5.512   6.018  0.4423  0.3123  0.5996
 3777TIP3    H132746   5.792   5.494   6.094  1.6945 -1.3610  1.1880
 3777TIP3    H232747   5.787   5.514   5.944 -0.5182 -0.6749  1.3257
 3778TIP3   OH232748   3.358   0.430  10.776  0.4220 -0.7298 -0.4057
 3778TIP3    H132749   3.454   0.426  10.775  0.4359 -0.3977 -1.2602
 3778TIP3    H232750   3.338   0.507  10.829  0.6642 -0.1713 -1.1067
 3779TIP3   OH232751   0.091   2.111   2.030 -0.1328  0.4827 -0.7351
 3779TIP3    H132752   0.151   2.037   2.035  1.9781  2.1400  3.7541
 3779TIP3    H232753   0.017   2.086   2.085 -0.1401  1.1190 -0.4426
 3780TIP3   OH232754   1.894   6.537  16.397 -0.0520 -0.0540  0.0259
 3780TIP3    H132755   1.896   6.600  16.325 -1.1015 -1.1694 -1.0452
 3780TIP3    H232756   1.805   6.542  16.431  0.2168 -0.0798  0.7520
 3781TIP3   OH232757   2.013   2.173  13.582  0.0319 -0.4263  0.4664
 3781TIP3    H132758   2.029   2.087  13.543 -0.9872 -0.7242  0.6726
 3781TIP3    H232759   1.978   2.153  13.669  0.6817  0.2143  0.8780
 3782TIP3   OH232760   3.181   3.981   6.590  0.0372 -0.2049  0.5041
 3782TIP3    H132761   3.240   4.056   6.588  0.1565 -0.1335  2.8969
 3782TIP3    H232762   3.212   3.924   6.520 -0.2936  2.0804 -1.6397
 3783TIP3   OH232763   5.765   5.843  15.266 -0.1962  0.1913 -0.4768
 3783TIP3    H132764   5.793   5.757  15.234  1.1349  1.6929 -3.8076
 3783TIP3    H232765   5.840   5.900  15.249  0.1911  1.6189  4.4509
 3784TIP3   OH232766   1.266   5.736  10.970 -0.2527  0.0309 -0.1048
 3784TIP3    H132767   1.220   5.652  10.969  0.5819 -0.4406  0.4637
 3784TIP3    H232768   1.355   5.714  10.995  0.2500  0.9563 -1.0239
 3785TIP3   OH232769   4.630   1.169  11.941 -0.7588 -0.1189  0.2144
 3785TIP3    H132770   4.537   1.145  11.938 -1.0798  1.1372 -0.8686
 3785TIP3    H232771   4.632   1.249  11.994 -0.7354  1.4327 -1.9660
 3786TIP3   OH232772   5.810   4.450  11.517 -0.5118  0.0698  0.2948
 3786TIP3    H132773   5.722   4.414  11.505 -0.4616 -0.0337  0.2342
 3786TIP3    H232774   5.804   4.541  11.488  0.4609 -1.0609 -4.0431
 3787TIP3   OH232775   4.436   0.933  13.434 -0.5540  0.2392 -0.3454
 3787TIP3    H132776   4.498   0.903  13.501 -2.8946  0.6488  2.1968
 3787TIP3    H232777   4.400   0.853  13.397 -1.3051 -0.0823  1.0095
 3788TIP3   OH232778   0.745   2.208  13.944  0.2912  0.2949  0.7319
 3788TIP3    H132779   0.832   2.240  13.920 -0.0258 -0.2357 -1.2386
 3788TIP3    H232780   0.704   2.283  13.989  0.6270  1.6837 -1.1641
 3789TIP3   OH232781   6.745   5.265  11.275  0.6591 -0.3132  0.1383
 3789TIP3    H132782   6.708   5.352  11.290  1.5055 -0.2904  2.4034
 3789TIP3    H232783   6.746   5.256  11.179 -2.5915  0.7384 -0.1255
 3790TIP3   OH232784   1.773   1.753   5.108  0.3148  0.5246 -0.2764
 3790TIP3    H132785   1.710   1.779   5.041  0.8359 -0.4857 -1.1838
 3790TIP3    H232786   1.843   1.710   5.060 -0.6295 -2.8866  1.1126
 3791TIP3   OH232787   0.761   4.480  11.416  0.0373  0.2792  0.7769
 3791TIP3    H132788   0.730   4.390  11.416 -2.2838  1.0202  0.8367
 3791TIP3    H232789   0.780   4.499  11.508 -1.9154  0.5830  1.1569
 3792TIP3   OH232790   0.940   4.843   5.572 -0.2950  0.2938 -0.0180
 3792TIP3    H132791   0.846   4.826   5.580  0.0214 -0.9008  1.9985
 3792TIP3    H232792   0.974   4.769   5.521 -0.5874  1.4437 -1.9743
 3793TIP3   OH232793   6.447   1.308   2.081  0.3196  1.2037 -0.3084
 3793TIP3    H132794   6.394   1.314   2.161 -0.7463 -0.5664 -0.8252
 3793TIP3    H232795   6.530   1.352   2.104  0.7193 -0.6992  2.3554
 3794TIP3   OH232796   2.974   0.807  13.764  0.6343 -0.1458 -0.0477
 3794TIP3    H132797   2.998   0.798  13.856  2.1943 -0.4552 -0.4580
 3794TIP3    H232798   2.943   0.719  13.739 -1.3389  0.3202  0.5522
 3795TIP3   OH232799   6.375   2.112  13.376 -0.6128  0.1135 -0.1155
 3795TIP3    H132800   6.357   2.027  13.417  2.1630 -0.1086  0.9041
 3795TIP3    H232801   6.420   2.162  13.445  1.1923  0.9791 -1.8183
 3796TIP3   OH232802   3.740   6.471   1.949  0.4908 -0.4763 -0.1618
 3796TIP3    H132803   3.791   6.469   2.030 -2.5123 -3.4378  1.8918
 3796TIP3    H232804   3.666   6.529   1.969  0.2234 -0.4505 -1.1893
 3797TIP3   OH232805   2.433   4.058   5.821  0.7086  0.1755  0.2766
 3797TIP3    H132806   2.415   4.020   5.907  1.6539  0.0306  0.4217
 3797TIP3    H232807   2.393   4.145   5.825 -1.9788 -0.9365 -0.2566
 3798TIP3   OH232808   3.309   3.408  12.448 -0.0902 -0.0557  0.4670
 3798TIP3    H132809   3.382   3.371  12.498 -0.3424 -1.0750  0.1167
 3798TIP3    H232810   3.303   3.353  12.370 -1.9974 -0.7759  1.0666
 3799TIP3   OH232811   1.778   4.404   4.849 -1.0356 -0.3115  0.2139
 3799TIP3    H132812   1.856   4.352   4.864 -0.3427  0.3328 -0.9623
 3799TIP3    H232813   1.722   4.349   4.794  0.1593  0.5112 -1.9438
 3800TIP3   OH232814   3.467   2.910   2.179 -0.4911 -0.1041 -0.3063
 3800TIP3    H132815   3.424   2.995   2.173  0.7155  0.4253 -2.8082
 3800TIP3    H232816   3.413   2.852   2.126 -0.3439 -0.4661 -0.0643
 3801TIP3   OH232817   3.770   0.172   1.297  0.2665  0.5591  0.2722
 3801TIP3    H132818   3.779   0.175   1.202 -0.8324  0.2522  0.1546
 3801TIP3    H232819   3.734   0.257   1.320 -0.9577  0.0628  0.2398
 3802TIP3   OH232820   0.324   1.730  17.173  0.9156 -0.3163  0.5191
 3802TIP3    H132821   0.365   1.647  17.147 -1.0037 -0.5172 -2.2632
 3802TIP3    H232822   0.350   1.792  17.105  0.2776  0.7247  1.1909
 3803TIP3   OH232823   4.753   6.288  15.227 -0.4144  0.2708  0.2373
 3803TIP3    H132824   4.846   6.277  15.205 -0.5056 -0.0792 -0.0009
 3803TIP3    H232825   4.730   6.207  15.274 -0.1638  1.1057  1.8791
 3804TIP3   OH232826   4.646   2.088   4.123  0.3847 -0.5315  0.1052
 3804TIP3    H132827   4.598   2.170   4.114 -0.9044 -1.3373 -0.7524
 3804TIP3    H232828   4.636   2.065   4.216 -0.1875 -0.2570  0.1189
 3805TIP3   OH232829   3.782   5.944  16.071  0.0853  0.2798 -0.5860
 3805TIP3    H132830   3.761   6.037  16.075  0.2102  0.2847  0.1256
 3805TIP3    H232831   3.876   5.940  16.088 -0.0850 -0.0383  0.3172
 3806TIP3   OH232832   2.428   4.440   1.268 -0.0391  0.0618  0.5522
 3806TIP3    H132833   2.418   4.366   1.328 -0.6227  0.5432  1.0683
 3806TIP3    H232834   2.507   4.485   1.297  0.6484 -0.6780 -0.1287
 3807TIP3   OH232835   4.513   1.819  12.300 -0.2108 -0.1045  0.0635
 3807TIP3    H132836   4.440   1.816  12.238 -0.1310  0.9053 -0.0960
 3807TIP3    H232837   4.587   1.849  12.247 -0.2446  1.2073  0.7338
 3808TIP3   OH232838   5.187   2.491  15.662  0.2384  0.0573 -0.5789
 3808TIP3    H132839   5.257   2.545  15.625 -0.1270  0.7763 -0.2363
 3808TIP3    H232840   5.130   2.472  15.587  0.1720  0.4565 -0.6305
 3809TIP3   OH232841   3.528   0.740   4.045  0.2373  0.0460  0.2319
 3809TIP3    H132842   3.542   0.652   4.081 -0.9000  0.3264  1.4336
 3809TIP3    H232843   3.435   0.758   4.062 -0.1728  0.5379 -2.1672
 3810TIP3   OH232844   4.570   3.358  14.467 -0.5270 -0.7791 -0.8190
 3810TIP3    H132845   4.660   3.360  14.500 -0.8756 -0.8580  0.1894
 3810TIP3    H232846   4.569   3.419  14.394  0.5150 -1.3147 -1.3003
 3811TIP3   OH232847   2.446   6.051   0.718  0.0506  0.1886  0.1595
 3811TIP3    H132848   2.384   6.070   0.789  0.8420  0.8962  0.6798
 3811TIP3    H232849   2.505   6.127   0.717  1.0788 -0.5962 -0.1366
 3812TIP3   OH232850   0.982   1.354   3.192  0.1086  0.2932  0.0160
 3812TIP3    H132851   1.038   1.332   3.267 -1.3822 -0.5747  0.9112
 3812TIP3    H232852   1.028   1.318   3.116  0.5956 -0.7367  0.7752
 3813TIP3   OH232853   4.894   0.403  15.806 -0.4762  0.0117 -0.0990
 3813TIP3    H132854   4.909   0.400  15.711 -0.4226 -1.2954 -0.0723
 3813TIP3    H232855   4.881   0.311  15.830  0.0789  0.2708  1.2499
 3814TIP3   OH232856   5.399   0.734   1.209  0.3300 -0.4083 -0.0346
 3814TIP3    H132857   5.351   0.803   1.163  0.3662 -1.3051 -1.4695
 3814TIP3    H232858   5.330   0.684   1.254  0.1650 -0.2812 -0.1421
 3815TIP3   OH232859   6.441   2.113   4.981 -0.3807  0.3677 -0.2454
 3815TIP3    H132860   6.421   2.019   4.986  0.4076  0.2394  0.6495
 3815TIP3    H232861   6.357   2.156   4.993 -0.5306 -0.2082  0.8566
 3816TIP3   OH232862   6.563   5.521   3.579 -0.0570  0.2094 -0.1222
 3816TIP3    H132863   6.512   5.455   3.627  0.8288 -0.4188 -0.0198
 3816TIP3    H232864   6.571   5.486   3.491  2.1273 -0.8350  0.4390
 3817TIP3   OH232865   0.321   1.794  14.978 -0.1569  0.5123  0.1227
 3817TIP3    H132866   0.337   1.701  14.965 -2.1149  0.2978 -1.1933
 3817TIP3    H232867   0.278   1.800  15.063  1.0368  0.3863  0.7553
 3818TIP3   OH232868   0.627   3.102  11.883 -0.4417  0.1377 -0.0111
 3818TIP3    H132869   0.682   3.123  11.808 -0.9505 -0.5423 -0.5939
 3818TIP3    H232870   0.610   3.186  11.925 -0.2255  0.5400 -0.7085
 3819TIP3   OH232871   3.986   0.525   1.529  1.0149  0.1257  0.0178
 3819TIP3    H132872   3.941   0.561   1.604 -0.5226 -1.9703  0.1888
 3819TIP3    H232873   3.918   0.511   1.463  2.0336  0.3046 -1.1319
 3820TIP3   OH232874   4.946   2.483  15.477  0.0989 -0.0255 -0.1520
 3820TIP3    H132875   4.965   2.463  15.385 -0.2215 -0.7742 -0.0585
 3820TIP3    H232876   4.929   2.578  15.477  0.9095  0.1273 -0.7177
 3821TIP3   OH232877   1.994   2.813   0.737 -0.5668 -0.2550  0.1304
 3821TIP3    H132878   2.080   2.787   0.770 -0.1936  0.5272 -0.2046
 3821TIP3    H232879   1.984   2.764   0.656  0.3520  0.9620 -0.7606
 3822TIP3   OH232880   5.469   4.356  13.883 -0.1265 -0.1103  0.5667
 3822TIP3    H132881   5.486   4.342  13.790  0.0058 -0.1062  0.5903
 3822TIP3    H232882   5.398   4.295  13.904 -0.9829  0.7227  0.1895
 3823TIP3   OH232883   2.889   1.427   0.228  0.1607 -0.5712  0.3701
 3823TIP3    H132884   2.873   1.333   0.241  2.9856 -0.8991  2.2503
 3823TIP3    H232885   2.878   1.466   0.314 -0.6544  0.8495 -0.3283
 3824TIP3   OH232886   6.638   1.621   0.439 -0.1845  0.0229  0.3884
 3824TIP3    H132887   6.688   1.698   0.414 -0.1439 -0.4404 -1.0238
 3824TIP3    H232888   6.581   1.651   0.510  0.9729  0.9350  0.9579
 3825TIP3   OH232889   4.010   2.051   3.508 -0.4162  0.7204 -0.1646
 3825TIP3    H132890   3.968   2.017   3.587  0.2177  2.2366  0.8687
 3825TIP3    H232891   4.068   2.120   3.539  0.8818  0.4453 -1.8339
 3826TIP3   OH232892   6.465   1.257   3.776 -0.6182 -0.3397 -0.3433
 3826TIP3    H132893   6.386   1.203   3.777 -2.1188  1.7293 -0.0475
 3826TIP3    H232894   6.477   1.281   3.684 -1.5158  0.8708 -0.1829
 3827TIP3   OH232895   2.571   4.239  14.338 -0.3132  0.2329  0.6602
 3827TIP3    H132896   2.485   4.255  14.299  0.3858  3.0579  0.0367
 3827TIP3    H232897   2.566   4.280  14.424  0.7281  1.5117  0.1489
 3828TIP3   OH232898   3.180   4.389   5.907  0.0985 -0.1181  0.3478
 3828TIP3    H132899   3.139   4.453   5.966  0.4766  0.9710 -0.5492
 3828TIP3    H232900   3.107   4.336   5.875 -0.3121  0.3072  0.5730
 3829TIP3   OH232901   5.012   6.277  15.204  0.1485 -0.0698  0.9308
 3829TIP3    H132902   5.054   6.255  15.121  0.4357  1.4121  0.6546
 3829TIP3    H232903   5.053   6.218  15.267  0.3807 -0.7856  0.1376
 3830TIP3   OH232904   0.337   3.670  14.061  0.2161  0.3337 -0.4028
 3830TIP3    H132905   0.398   3.619  14.007 -0.1135  0.1036 -0.5682
 3830TIP3    H232906   0.379   3.675  14.146  1.4594  2.0044 -1.0646
 3831TIP3   OH232907   4.560   4.955   2.058 -0.2298 -0.4304 -0.4760
 3831TIP3    H132908   4.525   4.991   2.140  1.5130 -0.0035  0.1126
 3831TIP3    H232909   4.633   5.013   2.036  0.1808 -1.3483 -1.6058
 3832TIP3   OH232910   1.695   2.760  11.706  0.1715 -0.3642 -0.5061
 3832TIP3    H132911   1.769   2.744  11.764 -0.8307 -0.6344  0.7482
 3832TIP3    H232912   1.620   2.720  11.751 -0.8470  0.4276 -1.4340
 3833TIP3   OH232913   5.121   5.039  15.388  0.0059  0.0397 -0.3471
 3833TIP3    H132914   5.060   5.112  15.379 -1.0566 -0.6479  0.8636
 3833TIP3    H232915   5.194   5.075  15.439 -1.2587 -0.0836  1.6974
 3834TIP3   OH232916   4.824   2.456  13.572  0.1933  0.4446  0.0576
 3834TIP3    H132917   4.912   2.425  13.594  1.3326  2.2738 -1.6035
 3834TIP3    H232918   4.797   2.509  13.647  0.6075  0.0931  0.4622
 3835TIP3   OH232919   3.619   2.532   4.187  0.1458 -0.5766 -1.2225
 3835TIP3    H132920   3.555   2.485   4.133 -1.3366  0.2198 -0.2207
 3835TIP3    H232921   3.617   2.486   4.272  1.3703 -0.9140 -1.3547
 3836TIP3   OH232922   3.471   2.433  12.242  0.5973  0.0686  0.0953
 3836TIP3    H132923   3.435   2.518  12.267  0.5169 -0.1647  0.7739
 3836TIP3    H232924   3.395   2.375  12.235  0.6581  0.0317 -0.3009
 3837TIP3   OH232925   6.262   1.784   1.023 -0.0604 -0.4302  0.0338
 3837TIP3    H132926   6.325   1.774   1.095 -0.2007 -1.5714  0.0174
 3837TIP3    H232927   6.295   1.726   0.955 -0.9475 -0.7646 -0.1081
 3838TIP3   OH232928   1.574   1.365   4.632 -0.4229  0.3420  0.9647
 3838TIP3    H132929   1.628   1.315   4.571  0.7622  1.8641  0.6906
 3838TIP3    H232930   1.504   1.305   4.657 -2.1855  0.1849 -3.4026
 3839TIP3   OH232931   0.230   3.626   3.773 -0.3141  0.1453  0.1816
 3839TIP3    H132932   0.302   3.627   3.710  0.3171 -0.3917  0.8648
 3839TIP3    H232933   0.206   3.533   3.780 -0.6437  0.2465  0.4368
 3840TIP3   OH232934   2.811   0.938  16.048  0.4731 -0.4741 -0.4732
 3840TIP3    H132935   2.863   0.943  16.128 -1.2195  0.3726  0.6394
 3840TIP3    H232936   2.866   0.889  15.986  1.3989 -2.1268  1.5356
 3841TIP3   OH232937   0.426   5.000  15.288  0.0678  0.0690  0.7200
 3841TIP3    H132938   0.486   5.018  15.216 -3.7432  1.4106 -2.5157
 3841TIP3    H232939   0.414   5.085  15.331 -0.2907  0.0456  0.6685
 3842TIP3   OH232940   0.472   5.562   4.849 -0.0350 -0.1614 -0.1089
 3842TIP3    H132941   0.508   5.596   4.767  1.7622  0.0717  0.7183
 3842TIP3    H232942   0.508   5.473   4.855 -1.3040 -0.6949 -0.2398
 3843TIP3   OH232943   2.677   3.892   6.226  0.4043 -0.2195 -0.6151
 3843TIP3    H132944   2.747   3.828   6.241  0.1366 -0.4368 -0.2844
 3843TIP3    H232945   2.681   3.910   6.132  1.5870  0.5492 -0.4484
 3844TIP3   OH232946   1.305   5.606  15.578  0.0342  0.3977 -0.4826
 3844TIP3    H132947   1.389   5.648  15.557  1.0976 -1.0860  0.5967
 3844TIP3    H232948   1.297   5.617  15.673 -1.5838  1.5034 -0.7086
 3845TIP3   OH232949   3.948   1.058   3.904  0.4839 -0.2119 -0.3793
 3845TIP3    H132950   3.924   1.049   3.996 -1.5036  1.0220 -0.7083
 3845TIP3    H232951   3.865   1.049   3.857  1.2743  0.3798 -1.9533
 3846TIP3   OH232952   6.320   0.090   6.005 -0.1038  0.2507  0.3446
 3846TIP3    H132953   6.333  -0.004   6.020  0.9753 -0.0320 -1.8484
 3846TIP3    H232954   6.247   0.114   6.062  0.1945 -1.7047  1.6458
 3847TIP3   OH232955   3.704   6.763  12.448  0.3980 -0.0924 -0.0356
 3847TIP3    H132956   3.749   6.771  12.532 -1.8640 -0.8640  1.3360
 3847TIP3    H232957   3.642   6.836  12.447  0.5743  0.0632 -1.1796
 3848TIP3   OH232958   1.596   2.352  13.743 -0.1557 -0.4869 -0.6583
 3848TIP3    H132959   1.627   2.290  13.810 -0.0073 -0.1837 -0.4456
 3848TIP3    H232960   1.662   2.345  13.673  0.3853  0.1340 -0.2201
 3849TIP3   OH232961   1.686   3.053  14.128 -0.0499 -0.0631  0.3409
 3849TIP3    H132962   1.608   3.073  14.077  1.2398 -0.0156 -1.7274
 3849TIP3    H232963   1.662   2.974  14.178 -0.7372 -1.4598 -2.0183
 3850TIP3   OH232964   5.241   0.028  17.300 -0.1672  0.0413 -0.1001
 3850TIP3    H132965   5.308   0.019  17.367  0.0800 -0.1634 -0.3695
 3850TIP3    H232966   5.236   0.122  17.282  2.5906 -0.1280 -2.5963
 3851TIP3   OH232967   0.532   0.905   4.755 -0.0442  0.3496 -0.2691
 3851TIP3    H132968   0.566   0.884   4.668  0.7678  0.2046  0.0725
 3851TIP3    H232969   0.503   0.996   4.748  1.1754  0.7602 -0.3709
 3852TIP3   OH232970   3.868   1.219   2.677 -0.1982 -0.1531  0.0789
 3852TIP3    H132971   3.863   1.254   2.766  0.8014  0.0233  0.0762
 3852TIP3    H232972   3.838   1.129   2.685 -2.5629  0.5650  0.1305
 3853TIP3   OH232973   5.291   3.361   5.073  0.2102 -0.0955 -0.0507
 3853TIP3    H132974   5.345   3.358   5.152 -0.1330  0.1691  0.2012
 3853TIP3    H232975   5.272   3.454   5.061 -1.1624 -0.2588  0.5520
 3854TIP3   OH232976   5.450   6.287   0.180 -0.0396 -0.7730  0.1606
 3854TIP3    H132977   5.486   6.320   0.262 -1.3540 -1.0462  0.8688
 3854TIP3    H232978   5.527   6.265   0.127  0.8330 -1.1271  1.5304
 3855TIP3   OH232979   0.592   5.803  12.138 -0.1427  0.3998 -0.3555
 3855TIP3    H132980   0.569   5.750  12.062  2.5206 -0.5063 -0.6541
 3855TIP3    H232981   0.649   5.746  12.190 -0.8514  1.4511  1.6896
 3856TIP3   OH232982   4.625   4.681   0.567  0.0665 -0.1442 -0.4811
 3856TIP3    H132983   4.670   4.756   0.605 -0.8897 -0.1347  0.7110
 3856TIP3    H232984   4.543   4.717   0.533 -0.2664 -0.5978 -0.1690
 3857TIP3   OH232985   5.595   2.688  13.527  0.4649  0.2573 -0.0813
 3857TIP3    H132986   5.622   2.714  13.439  0.7815 -0.3184 -0.1643
 3857TIP3    H232987   5.656   2.618  13.551  0.2299  0.2414  0.4995
 3858TIP3   OH232988   5.869   0.225   4.627  0.3644  0.1803  0.2706
 3858TIP3    H132989   5.831   0.312   4.633 -0.9967 -0.1291 -2.3185
 3858TIP3    H232990   5.795   0.169   4.602  1.7679 -1.1198 -1.1985
 3859TIP3   OH232991   1.531   6.701  16.989  0.1956  0.3056 -0.1391
 3859TIP3    H132992   1.611   6.662  17.024 -0.7004 -1.7913 -0.2411
 3859TIP3    H232993   1.461   6.641  17.018 -1.1801  1.3924 -1.0785
 3860TIP3   OH232994   0.998   4.079   0.332 -0.2694  0.2568  0.4900
 3860TIP3    H132995   1.002   4.172   0.312  0.6478 -0.0333 -0.7740
 3860TIP3    H232996   1.080   4.043   0.300  0.5677 -0.6077  3.2646
 3861TIP3   OH232997   0.570   6.079   6.161 -0.0099  0.0629 -0.0942
 3861TIP3    H132998   0.638   6.030   6.208  1.3900  0.1635 -1.8870
 3861TIP3    H232999   0.619   6.136   6.102 -1.6250 -0.8088 -2.4098
 3862TIP3   OH233000   6.228   0.412  13.103  0.4736 -0.1148 -0.0801
 3862TIP3    H133001   6.259   0.424  13.013  2.0148 -0.0299  0.4322
 3862TIP3    H233002   6.141   0.374  13.094  0.4111  0.3377 -1.6104
 3863TIP3   OH233003   0.738   3.717  11.762 -0.0601  0.5200  0.6129
 3863TIP3    H133004   0.713   3.786  11.701  0.8645 -0.2190 -0.6619
 3863TIP3    H233005   0.833   3.729  11.773 -0.2844  0.9304  2.3022
 3864TIP3   OH233006   5.701   1.635  13.749 -0.2681  0.1819 -0.1311
 3864TIP3    H133007   5.637   1.563  13.741 -0.1446 -0.2332  2.0477
 3864TIP3    H233008   5.763   1.619  13.678 -0.0421 -2.0993  0.4981
 3865TIP3   OH233009   2.572   1.789   2.535 -0.0040 -0.4824 -0.3585
 3865TIP3    H133010   2.568   1.734   2.614  0.0640  0.8879  0.6356
 3865TIP3    H233011   2.650   1.843   2.548 -0.4213  0.2914 -1.0148
 3866TIP3   OH233012   0.347   2.260  13.442  0.0452 -0.1652 -0.2845
 3866TIP3    H133013   0.398   2.339  13.459  2.3929 -1.9290  1.7457
 3866TIP3    H233014   0.337   2.258  13.347 -0.4797  2.7238 -0.3852
 3867TIP3   OH233015   4.106   1.909   3.925  0.3355 -0.0831  0.2713
 3867TIP3    H133016   4.068   1.874   4.005  0.6237  0.8284  0.8198
 3867TIP3    H233017   4.060   1.863   3.855 -0.4396 -0.3609  0.9443
 3868TIP3   OH233018   5.862   5.319  16.020 -0.3670  0.0969  0.1343
 3868TIP3    H133019   5.850   5.225  16.025 -0.8531  0.1578  0.1606
 3868TIP3    H233020   5.773   5.355  16.018 -0.1877  0.5270 -0.4162
 3869TIP3   OH233021   2.725   1.776  11.796 -0.3849  0.9741  0.3250
 3869TIP3    H133022   2.766   1.853  11.757  0.2940  0.1009 -0.7314
 3869TIP3    H233023   2.702   1.721  11.722 -0.7043  0.0743  1.0765
 3870TIP3   OH233024   0.753   1.136   4.433  0.2787 -0.1425 -0.1507
 3870TIP3    H133025   0.824   1.184   4.389 -0.4622  2.0084  0.8520
 3870TIP3    H233026   0.678   1.145   4.373 -0.1238  0.8475  0.4770
 3871TIP3   OH233027   3.308   1.396  16.986  0.5414  0.2951 -0.4083
 3871TIP3    H133028   3.338   1.306  16.999 -1.1003 -0.1800  0.4174
 3871TIP3    H233029   3.386   1.444  16.958  1.3123 -1.5187 -1.5594
 3872TIP3   OH233030   3.442   1.099   1.679  0.3591  0.6015 -0.7204
 3872TIP3    H133031   3.511   1.036   1.657  0.5115  0.7633 -0.7097
 3872TIP3    H233032   3.442   1.102   1.774  0.2674  0.5248 -0.7183
 3873TIP3   OH233033   0.593   3.621   4.530  0.2196 -0.0068  0.7565
 3873TIP3    H133034   0.668   3.590   4.580  0.1523 -1.5653 -0.0625
 3873TIP3    H233035   0.517   3.599   4.585  0.3487  2.5506  2.0941
 3874TIP3   OH233036   1.319   6.075   1.933  0.3542  0.0160 -0.3729
 3874TIP3    H133037   1.396   6.047   1.984 -0.6138 -0.3847  0.9131
 3874TIP3    H233038   1.269   6.129   1.993 -0.5530 -0.0184 -1.0813
 3875TIP3   OH233039   1.695   1.579   4.795 -0.1697  0.3209  0.4857
 3875TIP3    H133040   1.685   1.506   4.733 -0.5625  0.6609  0.1459
 3875TIP3    H233041   1.615   1.577   4.847 -1.0078  1.5970 -0.6924
 3876TIP3   OH233042   6.779   6.159  13.416  0.5976 -0.1248 -0.2665
 3876TIP3    H133043   6.731   6.091  13.368  1.5870 -0.2483 -1.0895
 3876TIP3    H233044   6.740   6.241  13.387 -0.0797 -0.2763  0.1592
 3877TIP3   OH233045   6.052   5.612   5.802  0.8004  0.5106 -0.0642
 3877TIP3    H133046   5.962   5.581   5.810  1.6236 -1.6583  1.6788
 3877TIP3    H233047   6.061   5.635   5.709 -1.1492 -0.5067 -0.5550
 3878TIP3   OH233048   6.381   1.037   0.482 -0.9928  0.0361  0.1520
 3878TIP3    H133049   6.338   1.001   0.404 -0.0900 -0.6024 -0.0567
 3878TIP3    H233050   6.473   1.016   0.471 -0.5146  1.8394  0.3443
 3879TIP3   OH233051   5.861   6.352   4.232  0.0329  0.3881 -0.0765
 3879TIP3    H133052   5.898   6.352   4.144 -0.4696 -1.0645 -0.3250
 3879TIP3    H233053   5.769   6.375   4.220 -1.2775 -4.0717 -0.6548
 3880TIP3   OH233054   5.535   4.386   2.172 -0.0946  0.2217  0.2699
 3880TIP3    H133055   5.617   4.418   2.136  0.4782  0.6946  1.9184
 3880TIP3    H233056   5.552   4.374   2.265 -1.9770  0.6262  0.7087
 3881TIP3   OH233057   4.725   6.311   3.864 -0.3189  0.8551  0.1708
 3881TIP3    H133058   4.797   6.297   3.804  0.5913  2.4311  0.8320
 3881TIP3    H233059   4.729   6.236   3.924  0.8165  0.9450  0.2332
 3882TIP3   OH233060   3.942   2.891  13.240  0.1172 -0.1047 -0.5088
 3882TIP3    H133061   3.877   2.961  13.231 -0.1902 -0.2663  0.3239
 3882TIP3    H233062   3.922   2.831  13.169  0.3879  0.6548 -1.2368
 3883TIP3   OH233063   5.470   6.479  15.476  0.4731  0.0104 -0.7697
 3883TIP3    H133064   5.434   6.392  15.495 -0.3848  0.1661 -1.6199
 3883TIP3    H233065   5.550   6.462  15.427 -0.5836 -0.3140 -2.4731
 3884TIP3   OH233066   4.789   2.797   1.368  0.0447 -0.0274 -0.0893
 3884TIP3    H133067   4.799   2.850   1.446 -2.2210 -1.4806  1.2770
 3884TIP3    H233068   4.701   2.761   1.373 -0.1503 -0.3102 -3.2638
 3885TIP3   OH233069   2.955   4.549  16.634 -0.1045  0.0207  0.4390
 3885TIP3    H133070   3.023   4.500  16.586 -2.4700 -2.7537 -0.3557
 3885TIP3    H233071   2.971   4.528  16.726  1.0389  0.7403  0.4300
 3886TIP3   OH233072   0.385   3.552   1.700 -0.5778  0.6577 -0.0397
 3886TIP3    H133073   0.427   3.470   1.726 -0.4924  0.3042 -1.2311
 3886TIP3    H233074   0.450   3.596   1.645  0.1416  2.4589  2.1120
 3887TIP3   OH233075   2.099   5.540   4.173  0.2823 -0.5069 -0.5042
 3887TIP3    H133076   2.073   5.586   4.093  0.0865  2.2313  1.0145
 3887TIP3    H233077   2.193   5.557   4.180 -0.2493  2.4282  1.5495
 3888TIP3   OH233078   4.673   6.478  12.048 -0.0711  0.0388  0.0871
 3888TIP3    H133079   4.673   6.541  11.976 -0.4719  0.3551  0.3634
 3888TIP3    H233080   4.676   6.531  12.127 -1.5834 -0.2358  0.3590
 3889TIP3   OH233081   3.573   5.138  13.093 -0.0676 -0.0677 -0.2579
 3889TIP3    H133082   3.582   5.220  13.045 -0.3207 -0.4771 -1.0186
 3889TIP3    H233083   3.486   5.143  13.133  0.5862  0.7633  1.1209
 3890TIP3   OH233084   3.275   5.817  16.360 -0.1358 -0.6459  0.3566
 3890TIP3    H133085   3.314   5.730  16.348  0.2189 -0.2607 -1.6072
 3890TIP3    H233086   3.188   5.811  16.321  0.4584  0.2546 -1.2008
 3891TIP3   OH233087   0.352   3.042  16.572 -0.0066 -0.2732 -0.4931
 3891TIP3    H133088   0.345   3.095  16.651 -2.3334 -0.8559 -0.2611
 3891TIP3    H233089   0.342   2.952  16.602 -0.8425 -0.5077 -1.4224
 3892TIP3   OH233090   4.607   4.987  11.008  0.2479  0.2695 -0.3392
 3892TIP3    H133091   4.513   5.003  11.012  0.1557 -0.0981 -0.9232
 3892TIP3    H233092   4.618   4.898  11.042  0.3888  0.3302 -0.2243
 3893TIP3   OH233093   4.355   3.406  17.138  0.0750  0.5630  0.1564
 3893TIP3    H133094   4.424   3.372  17.081 -0.6199 -1.2833  0.3485
 3893TIP3    H233095   4.281   3.422  17.079 -0.6865 -1.4685  0.4896
 3894TIP3   OH233096   3.092   1.219  11.714  0.0498 -0.2975 -0.3689
 3894TIP3    H133097   3.030   1.177  11.654  1.0825 -2.9985  0.3379
 3894TIP3    H233098   3.136   1.285  11.659 -0.9405 -0.7867 -1.8234
 3895TIP3   OH233099   0.253   5.390   4.166  0.6805 -1.0292 -0.0055
 3895TIP3    H133100   0.266   5.298   4.189  0.8564 -2.1142 -3.7489
 3895TIP3    H233101   0.162   5.408   4.190 -0.1560 -3.0284 -1.4060
 3896TIP3   OH233102   5.030   3.632   2.388 -0.1199 -0.3388  0.7111
 3896TIP3    H133103   5.053   3.685   2.465 -1.4904  0.4070  0.6318
 3896TIP3    H233104   5.084   3.553   2.397 -1.8811 -1.3506  3.7136
 3897TIP3   OH233105   5.760   5.296  16.793 -0.1852 -0.3344  0.2611
 3897TIP3    H133106   5.824   5.318  16.726  0.9335 -2.2705  0.5954
 3897TIP3    H233107   5.705   5.229  16.752  0.8751 -1.9668  1.3810
 3898TIP3   OH233108   6.026   6.242  17.150 -0.3288  0.5001  0.6700
 3898TIP3    H133109   6.015   6.175  17.217 -1.0250  0.2578  0.3223
 3898TIP3    H233110   6.016   6.195  17.067  2.6193  0.3689  0.2569
 3899TIP3   OH233111   6.261   4.472  13.275 -0.0889  0.1977  0.1029
 3899TIP3    H133112   6.201   4.475  13.201  1.4100 -1.0658 -1.2471
 3899TIP3    H233113   6.286   4.563  13.291 -1.6001  0.6377  0.1044
 3900TIP3   OH233114   3.352   1.989  16.092 -0.1503 -0.0343  0.2509
 3900TIP3    H133115   3.301   1.927  16.040  1.7128  0.6882 -2.6724
 3900TIP3    H233116   3.386   2.052  16.028  2.0405  1.1342  2.4099
 3901TIP3   OH233117   2.791   5.197   5.958 -0.0544 -0.8154  0.8279
 3901TIP3    H133118   2.711   5.248   5.943 -0.2527 -1.7840 -1.9816
 3901TIP3    H233119   2.763   5.106   5.946  1.0874 -1.3194  1.8459
 3902TIP3   OH233120   4.770   0.809  11.030  0.2242 -0.1733  0.1174
 3902TIP3    H133121   4.765   0.876  10.962 -0.7782 -0.7508 -0.3889
 3902TIP3    H233122   4.681   0.804  11.065  0.2275 -1.4074 -0.0163
 3903TIP3   OH233123   5.326   0.208   4.814  0.2777 -0.6882 -0.7263
 3903TIP3    H133124   5.422   0.197   4.813  0.3466 -0.1704  0.0954
 3903TIP3    H233125   5.311   0.282   4.873 -0.5427  0.1584 -1.9491
 3904TIP3   OH233126   3.184   6.546   0.616 -0.1916  0.2007 -0.5871
 3904TIP3    H133127   3.101   6.517   0.654 -0.7769  0.8893 -1.3028
 3904TIP3    H233128   3.226   6.466   0.585  0.2882 -0.3857  1.4379
 3905TIP3   OH233129   2.209   0.319  13.535  0.3055 -0.3816  0.6489
 3905TIP3    H133130   2.159   0.265  13.595 -1.3655  0.3375 -0.0422
 3905TIP3    H233131   2.265   0.257  13.487 -0.9215 -1.3930  0.4952
 3906TIP3   OH233132   5.893   6.616  15.672  0.3354  0.1810 -0.0642
 3906TIP3    H133133   5.809   6.601  15.716 -0.2728  2.3508 -0.3742
 3906TIP3    H233134   5.910   6.709  15.685  1.1689  0.4453 -2.6164
 3907TIP3   OH233135   0.886   1.807   6.121 -0.1635  0.2553 -0.3797
 3907TIP3    H133136   0.908   1.853   6.202  0.4874  2.2914 -1.6353
 3907TIP3    H233137   0.957   1.828   6.061 -1.1789 -0.2626 -1.8335
 3908TIP3   OH233138   2.503   3.212  17.165  0.1011 -0.1326 -0.3251
 3908TIP3    H133139   2.556   3.138  17.138  0.6211 -0.1416  0.6878
 3908TIP3    H233140   2.512   3.216  17.260 -1.0061  0.4047 -0.2174
 3909TIP3   OH233141   1.334   3.209   0.846  0.3773  0.2447  0.5158
 3909TIP3    H133142   1.327   3.205   0.750 -1.1978  3.5978  0.3461
 3909TIP3    H233143   1.343   3.118   0.873 -1.3653 -1.0381 -2.6825
 3910TIP3   OH233144   4.085   2.360   5.460 -0.4379 -0.5002  0.3736
 3910TIP3    H133145   4.120   2.371   5.372 -0.6199  0.9146  0.4456
 3910TIP3    H233146   4.100   2.268   5.481  0.4956 -0.6265 -0.7482
 3911TIP3   OH233147   0.117   2.137  12.670  0.5180  0.4832 -0.0713
 3911TIP3    H133148   0.134   2.206  12.735  0.2284 -1.3612  2.0921
 3911TIP3    H233149   0.025   2.115  12.682  0.6369 -0.3577 -0.6276
 3912TIP3   OH233150   2.155   4.490  16.447  0.0914 -0.3107 -0.0917
 3912TIP3    H133151   2.198   4.525  16.369  0.1750 -0.3888 -0.0803
 3912TIP3    H233152   2.227   4.454  16.500  0.1477  0.5275  0.4247
 3913TIP3   OH233153   2.633   2.623   4.936 -0.4770 -0.0615  0.1207
 3913TIP3    H133154   2.704   2.684   4.955  1.5144 -2.1859  0.0450
 3913TIP3    H233155   2.553   2.674   4.947  1.0646  2.9379 -1.4955
 3914TIP3   OH233156   3.654   6.184  15.912 -0.0836  0.0739  0.5477
 3914TIP3    H133157   3.577   6.211  15.962  0.4082 -1.2692  2.1224
 3914TIP3    H233158   3.630   6.201  15.821 -1.5359  1.3426  1.1237
 3915TIP3   OH233159   5.712   3.296   5.225 -0.0664  0.0437  0.0643
 3915TIP3    H133160   5.734   3.368   5.284 -3.6218 -1.0244  3.0180
 3915TIP3    H233161   5.699   3.338   5.140 -0.0732  2.5623  1.2285
 3916TIP3   OH233162   4.094   6.505   1.495  0.0885 -0.1180  0.7632
 3916TIP3    H133163   4.171   6.483   1.546 -0.7286 -1.1656  1.5908
 3916TIP3    H233164   4.028   6.530   1.560 -0.1840  1.1209  0.0603
 3917TIP3   OH233165   4.071   1.558   0.550  0.5240 -0.4203  0.3922
 3917TIP3    H133166   4.162   1.528   0.546  0.1702 -1.8388  1.8647
 3917TIP3    H233167   4.033   1.532   0.466  0.5941 -3.1010  1.0739
 3918TIP3   OH233168   1.645   6.463  15.092  0.2502 -0.1616  0.1329
 3918TIP3    H133169   1.628   6.412  15.013 -0.3880 -2.5910  1.7130
 3918TIP3    H233170   1.575   6.528  15.094  0.0037 -0.3702 -1.0562
 3919TIP3   OH233171   3.467   0.154   6.335 -0.5369  0.1945  0.5659
 3919TIP3    H133172   3.552   0.199   6.329  0.5315 -1.6448  1.2452
 3919TIP3    H233173   3.419   0.203   6.401  1.4113 -0.8141  2.8668
 3920TIP3   OH233174   4.773   5.494  14.526  0.0151 -0.0502  0.1237
 3920TIP3    H133175   4.787   5.428  14.458 -2.2212  1.3519 -1.8104
 3920TIP3    H233176   4.843   5.558  14.512  0.7941 -0.7783  0.5298
 3921TIP3   OH233177   0.673   4.012   4.270 -0.2763  0.1378 -0.1335
 3921TIP3    H133178   0.636   3.923   4.264 -0.2715 -0.0231  1.6918
 3921TIP3    H233179   0.667   4.034   4.363  1.2738  1.3950 -0.2956
 3922TIP3   OH233180   1.298   6.123   3.786 -0.3802  0.1038  0.0332
 3922TIP3    H133181   1.264   6.035   3.803 -0.9795  0.7126  2.3145
 3922TIP3    H233182   1.256   6.150   3.705 -1.1265 -1.2606 -0.0608
 3923TIP3   OH233183   6.249   1.173   4.105 -0.4624  0.2106  0.1827
 3923TIP3    H133184   6.280   1.125   4.182 -0.0170 -1.1402 -0.8154
 3923TIP3    H233185   6.272   1.118   4.031 -0.4080  1.7273 -0.9790
 3924TIP3   OH233186   1.724   2.459  17.258  0.2233  0.6200 -0.3614
 3924TIP3    H133187   1.780   2.386  17.233 -0.3493 -0.2389  0.7678
 3924TIP3    H233188   1.674   2.426  17.333 -0.2928  2.0609 -0.0454
 3925TIP3   OH233189   3.911   3.088   0.705  0.5696 -0.2955  0.3319
 3925TIP3    H133190   3.971   3.031   0.754  0.2906 -1.4422 -0.6132
 3925TIP3    H233191   3.900   3.044   0.621  0.4916  1.2880 -0.5073
 3926TIP3   OH233192   6.060   2.094   2.387 -0.0374  0.5835  0.2463
 3926TIP3    H133193   6.074   2.111   2.480 -0.9910  1.4981  0.2461
 3926TIP3    H233194   6.017   2.174   2.355 -0.6005 -0.1052 -0.7612
 3927TIP3   OH233195   3.757   5.825   1.600  0.3676  0.5979  0.0258
 3927TIP3    H133196   3.797   5.830   1.687  2.2617 -0.4022 -0.7167
 3927TIP3    H233197   3.719   5.912   1.586 -1.7680  0.2130  2.5856
 3928TIP3   OH233198   3.033   4.951   3.989 -0.3657 -0.3057  0.3590
 3928TIP3    H133199   3.041   4.856   3.981 -0.5495 -0.4159  1.3219
 3928TIP3    H233200   3.123   4.984   3.981  0.0480 -0.7834  2.3835
 3929TIP3   OH233201   4.271   3.278  11.436 -0.4713 -0.3610  0.1891
 3929TIP3    H133202   4.252   3.200  11.487 -0.5192 -0.3674  0.1618
 3929TIP3    H233203   4.185   3.312  11.411 -0.4949  0.2697  1.0634
 3930TIP3   OH233204   4.429   4.440   6.264 -1.0511 -0.1049  0.3329
 3930TIP3    H133205   4.380   4.512   6.303  0.8249  1.1825  0.4032
 3930TIP3    H233206   4.469   4.395   6.339  0.2127  0.6302  0.1256
 3931TIP3   OH233207   4.034   6.147   2.012 -0.3944 -0.3925  0.2939
 3931TIP3    H133208   4.018   6.182   2.099  0.7685 -1.1410  0.8272
 3931TIP3    H233209   4.095   6.208   1.972  1.4625 -1.5908  1.1453
 3932TIP3   OH233210   4.959   2.927   3.905  0.6971  0.2228  0.2848
 3932TIP3    H133211   5.026   2.859   3.919 -1.6285 -2.5498 -0.9818
 3932TIP3    H233212   4.942   2.961   3.993  0.6209 -2.3206  1.3659
 3933TIP3   OH233213   2.613   3.253  16.581  0.3447  0.2222  0.4293
 3933TIP3    H133214   2.583   3.323  16.524  0.1204 -0.9685 -0.9805
 3933TIP3    H233215   2.650   3.298  16.657 -0.7739  1.8255  0.0827
 3934TIP3   OH233216   1.570   2.232   3.364 -0.0025  0.2865  0.2716
 3934TIP3    H133217   1.573   2.295   3.293  2.1001 -0.0933 -0.0404
 3934TIP3    H233218   1.477   2.212   3.374 -0.4824  1.4913 -1.3243
 3935TIP3   OH233219   2.154   0.512   0.889 -0.1732 -0.3525 -0.0353
 3935TIP3    H133220   2.202   0.536   0.968 -1.6054  0.3875  0.6566
 3935TIP3    H233221   2.220   0.508   0.821  1.2514 -1.8058  1.3330
 3936TIP3   OH233222   4.767   4.092   2.683  0.4904 -0.5556  0.4597
 3936TIP3    H133223   4.796   4.067   2.771  1.1409 -1.8048 -0.0903
 3936TIP3    H233224   4.749   4.009   2.639 -0.9869  0.0948 -0.2279
 3937TIP3   OH233225   5.172   2.420  12.745  0.1710 -0.7345 -0.0768
 3937TIP3    H133226   5.222   2.436  12.825 -0.7292 -1.4566  0.6602
 3937TIP3    H233227   5.189   2.328  12.725 -1.8440 -1.4003  0.9514
 3938TIP3   OH233228   6.734   3.747  15.576 -0.3414 -0.5318 -0.0113
 3938TIP3    H133229   6.641   3.724  15.586 -0.3444 -0.0780  1.1635
 3938TIP3    H233230   6.780   3.684  15.630 -0.2157  1.0157  1.7997
 3939TIP3   OH233231   1.479   0.597   5.387  0.2526 -0.5052  0.2331
 3939TIP3    H133232   1.530   0.519   5.368 -0.5357 -0.7684 -0.8986
 3939TIP3    H233233   1.398   0.585   5.338 -0.7987  0.0200  1.7781
 3940TIP3   OH233234   4.765   0.594  11.204 -0.0264  0.2543 -0.2285
 3940TIP3    H133235   4.749   0.679  11.164 -2.3575 -0.0495 -0.1258
 3940TIP3    H233236   4.797   0.539  11.133  1.4743  1.1852 -0.2981
 3941TIP3   OH233237   2.789   3.680   2.348  0.6108  0.1712 -0.1339
 3941TIP3    H133238   2.844   3.758   2.342 -0.2372  0.9354  1.3007
 3941TIP3    H233239   2.806   3.632   2.268  2.0887  1.2206 -0.4869
 3942TIP3   OH233240   4.590   2.797  15.029 -0.4084 -0.1343 -0.4508
 3942TIP3    H133241   4.672   2.764  15.066 -1.1725 -0.7529  0.7338
 3942TIP3    H233242   4.618   2.860  14.962  1.0299  0.0184  0.2519
 3943TIP3   OH233243   5.461   1.653   2.322 -0.3749  0.6674 -0.8978
 3943TIP3    H133244   5.392   1.588   2.336 -1.5581  2.0217 -0.1705
 3943TIP3    H233245   5.425   1.713   2.257  0.4413  0.9670 -1.0865
 3944TIP3   OH233246   3.757   4.830   4.477  0.0965  0.4048 -0.3456
 3944TIP3    H133247   3.755   4.789   4.564 -1.0067  0.1664 -0.4672
 3944TIP3    H233248   3.816   4.774   4.426  0.6620  0.4826  0.2162
 3945TIP3   OH233249   3.280   2.269   2.990  0.0332 -0.0326  0.2776
 3945TIP3    H133250   3.340   2.272   3.064 -0.2723  0.4994  0.5061
 3945TIP3    H233251   3.333   2.296   2.915 -0.2771  1.9917  0.7215
 3946TIP3   OH233252   2.691   3.678  11.503  0.8605 -0.1990 -0.6142
 3946TIP3    H133253   2.693   3.711  11.592 -1.1113 -2.4834  0.3836
 3946TIP3    H233254   2.611   3.714  11.465  1.9183  1.1365 -1.6875
 3947TIP3   OH233255   3.548   3.255  16.371  0.7464 -0.5245 -0.0087
 3947TIP3    H133256   3.454   3.261  16.387  0.7833  1.7027 -0.2957
 3947TIP3    H233257   3.588   3.264  16.457  0.7109  0.7488 -0.1047
 3948TIP3   OH233258   1.688   5.603   1.142 -0.0133 -0.3120  0.2545
 3948TIP3    H133259   1.771   5.586   1.098 -0.9890 -0.0775 -1.8269
 3948TIP3    H233260   1.627   5.542   1.101 -1.2080  0.6380  0.5720
 3949TIP3   OH233261   5.069   2.013   1.244 -0.4225  0.4724  0.3380
 3949TIP3    H133262   5.148   2.024   1.297  0.1724  0.7104 -0.5721
 3949TIP3    H233263   5.003   1.982   1.306  0.4115  0.1518  1.0934
 3950TIP3   OH233264   3.437   4.888   3.104 -0.2192  0.1171 -0.0055
 3950TIP3    H133265   3.360   4.837   3.129  0.5996 -0.9144  0.5088
 3950TIP3    H233266   3.403   4.975   3.083 -1.2708  0.3351  2.3275
 3951TIP3   OH233267   4.661   1.859   4.623 -0.1427 -0.2598 -0.9155
 3951TIP3    H133268   4.581   1.906   4.598 -0.1526 -0.9363 -2.2494
 3951TIP3    H233269   4.725   1.928   4.642 -0.9121  0.2834 -0.2660
 3952TIP3   OH233270   0.336   2.262   0.795 -0.3365 -0.0101 -0.0788
 3952TIP3    H133271   0.247   2.233   0.815 -0.0952  0.1095  1.2708
 3952TIP3    H233272   0.386   2.181   0.786 -0.2496 -0.0726  0.8521
 3953TIP3   OH233273   3.447   3.503  16.276 -0.1095  0.4751 -0.2666
 3953TIP3    H133274   3.443   3.513  16.371  0.7383  2.6586 -0.4111
 3953TIP3    H233275   3.540   3.505  16.255 -0.2859 -0.0117 -1.1590
 3954TIP3   OH233276   2.329   3.797   6.668  0.2022 -0.3253 -0.5149
 3954TIP3    H133277   2.344   3.891   6.684  2.1980 -0.7292  0.3674
 3954TIP3    H233278   2.400   3.754   6.716 -1.4402 -2.3819  0.1905
 3955TIP3   OH233279   4.848   1.128   6.438 -0.2355 -0.9127 -0.1015
 3955TIP3    H133280   4.908   1.194   6.403 -0.3024 -0.2647  0.9730
 3955TIP3    H233281   4.894   1.045   6.428 -0.2379 -0.7567 -1.6739
 3956TIP3   OH233282   5.522   3.657  17.243  0.4300 -0.5209 -0.5756
 3956TIP3    H133283   5.450   3.645  17.181 -0.1152  1.4244 -0.3641
 3956TIP3    H233284   5.509   3.588  17.308 -0.5813 -0.8935 -1.1513
 3957TIP3   OH233285   1.389   3.825   3.742 -0.7223  0.1547  0.4973
 3957TIP3    H133286   1.346   3.803   3.824 -0.7222 -0.7720  0.2554
 3957TIP3    H233287   1.322   3.812   3.675  0.3430 -3.2210 -0.1247
 3958TIP3   OH233288   1.413   3.631   3.135 -0.0206 -0.2861  0.5269
 3958TIP3    H133289   1.420   3.723   3.109 -1.3090 -0.2931  0.0708
 3958TIP3    H233290   1.372   3.633   3.221  0.9288 -0.4071  0.9947
 3959TIP3   OH233291   2.940   2.426   1.139  0.0771  0.2698 -0.0447
 3959TIP3    H133292   2.949   2.463   1.051 -0.7043  0.0647 -0.2197
 3959TIP3    H233293   2.892   2.493   1.188  0.4831  0.3694  0.2150
 3960TIP3   OH233294   0.615   3.601  11.970 -0.2982 -0.5518 -0.0685
 3960TIP3    H133295   0.646   3.650  11.894  1.1241  0.9410  1.3818
 3960TIP3    H233296   0.591   3.516  11.935 -3.3743  1.2015 -2.8245
 3961TIP3   OH233297   3.352   5.231  13.333  0.2519  0.8354 -0.2613
 3961TIP3    H133298   3.284   5.271  13.386  2.5357  3.3888  0.9733
 3961TIP3    H233299   3.363   5.143  13.369  0.3717  1.8152  2.2658
 3962TIP3   OH233300   6.493   1.543   5.361  0.1398  0.4543  0.2433
 3962TIP3    H133301   6.456   1.504   5.282 -0.1565  0.6778  0.2734
 3962TIP3    H233302   6.584   1.511   5.362 -0.7207 -2.3109  1.5911
 3963TIP3   OH233303   5.927   1.408   3.245  0.0064 -0.5466 -0.4247
 3963TIP3    H133304   5.979   1.454   3.179 -1.3519  0.1861 -1.0194
 3963TIP3    H233305   5.854   1.370   3.197 -1.4232  0.6151  0.7050
 3964TIP3   OH233306   6.019   2.043   1.962 -0.1290  0.5069 -0.4020
 3964TIP3    H133307   6.032   2.134   1.936 -1.0252  0.0096 -2.8888
 3964TIP3    H233308   6.096   1.997   1.928 -0.8019 -0.0042 -1.2735
 3965TIP3   OH233309   2.494   4.662   5.407 -0.0523 -0.1619 -0.5467
 3965TIP3    H133310   2.419   4.673   5.349 -1.9251  0.0091  1.7418
 3965TIP3    H233311   2.496   4.569   5.426  1.3150 -0.4026 -1.8184
 3966TIP3   OH233312   4.499   0.724  15.487 -0.4431  0.2773 -0.3633
 3966TIP3    H133313   4.573   0.687  15.533 -0.7587 -0.1332 -0.1831
 3966TIP3    H233314   4.423   0.703  15.542 -0.8305 -0.2626 -1.0891
 3967TIP3   OH233315   2.890   1.296   0.761 -0.0008  0.4904 -0.6679
 3967TIP3    H133316   2.813   1.310   0.705 -1.3628 -1.0363  0.7241
 3967TIP3    H233317   2.879   1.360   0.832 -0.9041 -0.7840  0.3882
 3968TIP3   OH233318   1.275   4.955  14.923 -0.0847  0.0904 -0.0436
 3968TIP3    H133319   1.360   4.940  14.883  0.6119  0.3486  1.2785
 3968TIP3    H233320   1.295   4.990  15.010 -1.5440  0.4402  0.1855
 3969TIP3   OH233321   6.091   3.522   0.918 -0.3733  0.1581  0.5771
 3969TIP3    H133322   6.025   3.512   0.987  0.2216  0.0762  1.1485
 3969TIP3    H233323   6.108   3.617   0.915 -0.3992  0.1616  0.5415
 3970TIP3   OH233324   1.985   0.437   6.219 -0.3596 -0.0095 -0.2002
 3970TIP3    H133325   2.028   0.358   6.250  0.0535  1.3786  3.2933
 3970TIP3    H233326   1.892   0.417   6.222 -0.1942 -0.9656 -1.2892
 3971TIP3   OH233327   6.280   0.602  15.513 -0.8976  0.1580  0.9960
 3971TIP3    H133328   6.210   0.565  15.460 -1.5955  2.5779  0.0670
 3971TIP3    H233329   6.236   0.662  15.573  0.1768 -0.1447  2.1305
 3972TIP3   OH233330   4.945   5.852  15.871  0.5671 -0.1627 -0.4831
 3972TIP3    H133331   4.867   5.904  15.890  1.7082  0.8772  1.6329
 3972TIP3    H233332   5.003   5.912  15.824  0.2531 -0.8613 -1.8257
 3973TIP3   OH233333   3.735   4.222  14.146  0.4291  0.1128 -0.6445
 3973TIP3    H133334   3.744   4.169  14.066 -2.2770  0.3688 -1.2426
 3973TIP3    H233335   3.792   4.297  14.132 -0.3227  0.3963 -2.6283
 3974TIP3   OH233336   2.568   3.691   2.804  0.1134 -0.5487 -0.4786
 3974TIP3    H133337   2.513   3.760   2.843 -0.3371  0.1853 -2.3018
 3974TIP3    H233338   2.524   3.609   2.829  0.4657 -0.2168  1.4294
 3975TIP3   OH233339   3.084   0.673   1.074 -0.5207 -0.0000 -0.1020
 3975TIP3    H133340   3.105   0.581   1.089  1.2755  0.6485  1.9676
 3975TIP3    H233341   3.080   0.712   1.162 -2.1481  1.7492 -0.8610
 3976TIP3   OH233342   1.986   5.143  14.844  0.8640 -0.5317  0.0876
 3976TIP3    H133343   2.039   5.139  14.765  0.8460 -0.6881  0.0823
 3976TIP3    H233344   2.044   5.110  14.913  0.6548 -1.0542  0.0184
 3977TIP3   OH233345   6.592   4.793   3.647 -0.0822  0.2390  0.0454
 3977TIP3    H133346   6.562   4.768   3.734 -0.7236  1.8496  0.3198
 3977TIP3    H233347   6.619   4.884   3.656 -1.3476  0.8366 -1.7029
 3978TIP3   OH233348   0.072   4.308   4.068  0.4145 -0.1890 -0.1019
 3978TIP3    H133349   0.099   4.298   4.159  0.6586  0.6056 -0.0802
 3978TIP3    H233350   0.060   4.402   4.057 -1.7228 -0.4344 -0.2872
 3979TIP3   OH233351   5.018   4.799   4.563  0.0876 -0.5240  0.2404
 3979TIP3    H133352   5.071   4.841   4.496  0.9352 -0.4834  0.9137
 3979TIP3    H233353   4.929   4.805   4.530 -0.2417  3.8749  1.2532
 3980TIP3   OH233354   2.732   0.285   0.081 -0.4131 -0.5714  0.4986
 3980TIP3    H133355   2.783   0.220   0.128  0.1895 -0.3254  0.1861
 3980TIP3    H233356   2.661   0.307   0.142 -0.8956 -1.8408  0.4325
 3981TIP3   OH233357   2.421   5.494  13.852  0.2317  0.5335  0.6204
 3981TIP3    H133358   2.435   5.457  13.939 -0.9253 -0.4239  0.4313
 3981TIP3    H233359   2.492   5.457  13.799 -0.5303 -0.9756  0.5928
 3982TIP3   OH233360   1.685   3.084   1.461 -0.3185 -0.5354  0.4289
 3982TIP3    H133361   1.752   3.084   1.529  1.2409 -1.2267 -1.0399
 3982TIP3    H233362   1.696   3.000   1.416 -0.1815  0.5500 -1.6996
 3983TIP3   OH233363   3.455   6.327   6.498  0.4734 -0.4246  0.4799
 3983TIP3    H133364   3.526   6.283   6.453  0.1404 -0.2348 -0.2440
 3983TIP3    H233365   3.376   6.286   6.464  0.1896  0.2003  0.3662
 3984TIP3   OH233366   5.819   5.823   3.712  0.6639 -0.6334 -0.6094
 3984TIP3    H133367   5.840   5.916   3.708 -1.2090 -0.1850 -1.2589
 3984TIP3    H233368   5.759   5.808   3.638  0.2922 -2.1703 -0.0515
 3985TIP3   OH233369   3.588   4.295  17.017  0.3612  0.0332  0.6439
 3985TIP3    H133370   3.497   4.280  17.041  0.7386 -0.5610  1.7996
 3985TIP3    H233371   3.584   4.335  16.930 -0.9435 -1.9855 -0.3177
 3986TIP3   OH233372   2.601   3.205   4.926 -0.1926  0.0195  0.8894
 3986TIP3    H133373   2.549   3.203   5.006  0.1208  0.3300  1.1044
 3986TIP3    H233374   2.692   3.202   4.956 -0.0688  0.3020  0.5535
 3987TIP3   OH233375   6.110   4.120   4.619 -0.5484 -0.4701 -0.4812
 3987TIP3    H133376   6.072   4.206   4.636  0.4941  0.1978 -1.3419
 3987TIP3    H233377   6.205   4.135   4.625 -0.3704 -1.9409  1.0463
 3988TIP3   OH233378   1.066   3.743   5.473  0.3210  0.2472 -0.2920
 3988TIP3    H133379   1.037   3.802   5.404 -0.2475  0.4650  0.1275
 3988TIP3    H233380   1.028   3.778   5.553 -0.4978 -0.9979 -0.1147
 3989TIP3   OH233381   3.076   1.684   0.188 -0.0083 -0.2978 -0.2247
 3989TIP3    H133382   3.048   1.740   0.115  1.2558  0.0996 -0.4218
 3989TIP3    H233383   3.020   1.711   0.261  0.3304  0.9941 -0.4156
 3990TIP3   OH233384   1.213   4.676   3.745 -0.0277  0.6729 -0.0138
 3990TIP3    H133385   1.191   4.665   3.837 -0.6962  1.8140 -0.0171
 3990TIP3    H233386   1.128   4.684   3.701  0.2906  0.3595 -0.7010
 3991TIP3   OH233387   5.657   1.729  14.304 -0.2074  0.3344 -0.5372
 3991TIP3    H133388   5.752   1.724  14.292  0.5853 -0.2594  4.0493
 3991TIP3    H233389   5.626   1.641  14.286  0.6102 -0.1854  0.4618
 3992TIP3   OH233390   1.193   2.985  16.792  0.6723 -0.3286 -0.3966
 3992TIP3    H133391   1.220   2.898  16.764 -0.7860 -1.0994  0.4976
 3992TIP3    H233392   1.224   3.043  16.722 -0.7123 -1.8816 -2.4162
 3993TIP3   OH233393   0.539   4.892   4.044 -0.4500 -0.4929 -0.6322
 3993TIP3    H133394   0.461   4.838   4.060 -1.6532  0.4741 -2.8233
 3993TIP3    H233395   0.597   4.834   3.994 -0.5725 -0.6313 -0.6170
 3994TIP3   OH233396   1.019   4.920   2.034  0.3479 -0.5933 -0.0855
 3994TIP3    H133397   1.041   4.981   1.963  2.4655 -2.8896 -1.5771
 3994TIP3    H233398   0.949   4.865   1.997  1.4674 -1.8056 -0.4891
 3995TIP3   OH233399   3.722   2.978  12.856  0.5110 -0.5647 -0.0470
 3995TIP3    H133400   3.767   3.008  12.935 -2.3175  1.5273  0.9717
 3995TIP3    H233401   3.665   2.907  12.886  0.9006 -1.1498 -0.6645
 3996TIP3   OH233402   1.406   6.737  13.624 -0.3942 -0.0243 -0.1498
 3996TIP3    H133403   1.370   6.819  13.589 -0.0505 -0.2256 -1.0118
 3996TIP3    H233404   1.469   6.709  13.558  0.6179 -0.2004  0.8698
 3997TIP3   OH233405   3.676   1.495  12.729  0.0617 -0.0237  0.1437
 3997TIP3    H133406   3.706   1.574  12.773  1.0607  0.0934 -0.6996
 3997TIP3    H233407   3.591   1.519  12.690  0.7518  0.9206 -0.8321
 3998TIP3   OH233408   3.466   3.735  13.893 -0.6768  0.3634  0.0925
 3998TIP3    H133409   3.381   3.694  13.876 -1.1359  1.1829  0.3952
 3998TIP3    H233410   3.530   3.667  13.870 -1.4088 -0.2701 -0.1072
 3999TIP3   OH233411   2.692   6.633  14.283 -0.4301 -0.5953  0.2261
 3999TIP3    H133412   2.617   6.636  14.224 -1.5422 -0.0359  1.5906
 3999TIP3    H233413   2.674   6.701  14.348  1.0441 -0.7562  0.8411
 4000TIP3   OH233414   0.808   3.178   2.504  1.2570  0.3874  0.4071
 4000TIP3    H133415   0.767   3.260   2.478 -0.8898 -0.6128  0.3655
 4000TIP3    H233416   0.842   3.141   2.422  1.2506  0.7351  0.2479
 4001TIP3   OH233417   2.131   0.346  10.438  0.1688  0.0499  0.2108
 4001TIP3    H133418   2.121   0.264  10.389  1.3645  0.3008 -0.4632
 4001TIP3    H233419   2.143   0.317  10.529 -1.0217 -0.4438  0.2426
 4002TIP3   OH233420   3.639   5.270  15.879 -0.6603 -0.0033 -0.7129
 4002TIP3    H133421   3.690   5.215  15.939 -0.6005 -1.5748 -2.1310
 4002TIP3    H233422   3.704   5.324  15.835 -0.4299 -0.5266 -1.0290
 4003TIP3   OH233423   0.884   1.577  14.712  0.7871  0.9436  0.0125
 4003TIP3    H133424   0.951   1.525  14.756 -0.6270 -0.3961  0.6836
 4003TIP3    H233425   0.847   1.632  14.781  0.3645  0.7624 -0.0638
 4004TIP3   OH233426   1.536   5.042   2.735 -0.0836 -0.7758  0.1488
 4004TIP3    H133427   1.460   5.090   2.767  0.8795  0.7288  0.2719
 4004TIP3    H233428   1.501   4.957   2.708 -1.8066 -0.0967  0.1200
 4005TIP3   OH233429   2.382   2.338   0.636 -0.5718 -0.1945  0.0087
 4005TIP3    H133430   2.417   2.252   0.613  0.1730 -0.1373  0.8919
 4005TIP3    H233431   2.345   2.326   0.724 -1.7055  0.0555 -0.4093
 4006TIP3   OH233432   2.694   1.766   6.300 -0.3015  0.0178  0.1829
 4006TIP3    H133433   2.710   1.672   6.297 -0.8369 -0.1155 -3.5636
 4006TIP3    H233434   2.764   1.801   6.354  2.2751 -2.1861 -1.4645
 4007TIP3   OH233435   4.860   1.128  12.277  0.2091 -0.2273 -0.3862
 4007TIP3    H133436   4.781   1.182  12.286  0.3045 -0.0613 -0.5360
 4007TIP3    H233437   4.929   1.181  12.316  0.3436 -0.1465 -0.7310
 4008TIP3   OH233438   2.611   5.858  15.178  0.3150  0.4867 -0.5718
 4008TIP3    H133439   2.611   5.829  15.086 -0.0291 -0.8077 -0.1948
 4008TIP3    H233440   2.594   5.778  15.227  1.4060  1.0061  0.6864
 4009TIP3   OH233441   1.177   5.761  16.960  0.2333 -0.7299  0.3571
 4009TIP3    H133442   1.272   5.755  16.962  0.2757 -0.0601  0.9103
 4009TIP3    H233443   1.152   5.738  16.871  1.0285  0.5885 -0.2362
 4010TIP3   OH233444   0.804   3.273   0.265  0.0316 -0.3667 -0.5841
 4010TIP3    H133445   0.741   3.251   0.197 -1.6656  0.9106  0.4925
 4010TIP3    H233446   0.786   3.211   0.336 -0.4749  0.3931 -0.0303
 4011TIP3   OH233447   2.066   0.767   4.352 -0.0851 -0.3663  0.0394
 4011TIP3    H133448   2.051   0.682   4.394  3.0912 -2.0088 -1.7286
 4011TIP3    H233449   2.102   0.822   4.421 -0.8170 -0.9255  0.8891
 4012TIP3   OH233450   5.119   2.131   4.815 -0.3990  0.3535 -0.2314
 4012TIP3    H133451   5.072   2.057   4.853 -2.1713  0.9944 -1.0531
 4012TIP3    H233452   5.086   2.137   4.725  1.0828  1.0236 -0.7679
 4013TIP3   OH233453   0.401   4.628  15.753  0.0960  0.1979 -0.1743
 4013TIP3    H133454   0.497   4.637  15.753  0.2194 -1.0424 -0.1689
 4013TIP3    H233455   0.380   4.593  15.667 -0.3019 -0.0734  0.0334
 4014TIP3   OH233456   5.918   2.418  12.232  0.7659 -0.0970 -0.0220
 4014TIP3    H133457   5.974   2.465  12.171  2.1315 -0.7892  0.6509
 4014TIP3    H233458   5.961   2.333  12.244  0.5548  0.0261  1.8989
 4015TIP3   OH233459   1.757   0.161  13.879  0.0461 -0.2330 -0.3083
 4015TIP3    H133460   1.833   0.187  13.826 -0.7007 -2.7028 -2.7986
 4015TIP3    H233461   1.789   0.090  13.934  0.0966  0.4097  0.5217
 4016TIP3   OH233462   2.620   0.051   3.611  0.3979  0.6819  0.6996
 4016TIP3    H133463   2.715   0.066   3.603  0.5575  0.4587  2.0643
 4016TIP3    H233464   2.585   0.077   3.525  1.3659  3.3632  1.0205
 4017TIP3   OH233465   2.002   0.117  17.154 -0.3015  0.6369  0.6384
 4017TIP3    H133466   1.996   0.026  17.185 -1.9849  0.1843 -0.8306
 4017TIP3    H233467   1.994   0.170  17.233  0.1237 -0.4920  1.4574
 4018TIP3   OH233468   1.070   5.153   1.476  0.4522  0.8155 -0.2799
 4018TIP3    H133469   1.064   5.068   1.432  0.3941  0.7403 -0.1273
 4018TIP3    H233470   0.991   5.158   1.530  1.1130  0.3578  0.7740
 4019TIP3   OH233471   6.629   1.714  17.219  0.2054  0.5805  0.1453
 4019TIP3    H133472   6.603   1.704  17.127 -0.8923  1.6995  0.3065
 4019TIP3    H233473   6.640   1.809  17.230 -0.4251  0.5283  1.3641
 4020TIP3   OH233474   5.140   5.153  12.921  0.1382 -0.5430  0.5821
 4020TIP3    H133475   5.195   5.138  12.998  0.2003 -1.4850  0.3573
 4020TIP3    H233476   5.056   5.183  12.957  1.0259  1.7643  0.9030
 4021TIP3   OH233477   4.708   0.432   2.746  0.0945 -0.1514  0.0759
 4021TIP3    H133478   4.634   0.492   2.754 -1.1423 -1.8376  2.0038
 4021TIP3    H233479   4.785   0.489   2.753 -0.9367  1.6069 -1.7317
 4022TIP3   OH233480   3.833   2.011  16.434  0.4841 -0.4754  0.1213
 4022TIP3    H133481   3.865   1.946  16.496 -0.5480 -1.3189 -0.1931
 4022TIP3    H233482   3.739   2.017  16.452 -0.0685 -1.5620 -2.0318
 4023TIP3   OH233483   3.636   4.440  15.185 -0.1265  0.1427 -0.3211
 4023TIP3    H133484   3.559   4.475  15.140 -1.2815 -0.3868  1.1276
 4023TIP3    H233485   3.687   4.397  15.117 -0.6645  1.2669 -1.4642
 4024TIP3   OH233486   3.253   2.502  13.726  0.2689  0.0734 -0.8826
 4024TIP3    H133487   3.285   2.414  13.742  1.6522  0.3637 -1.8547
 4024TIP3    H233488   3.277   2.552  13.804 -1.6863 -0.6588  0.2536
 4025TIP3   OH233489   3.786   4.229  12.105  0.5298  0.2224 -0.4509
 4025TIP3    H133490   3.742   4.209  12.187 -1.5993  1.5125 -1.1736
 4025TIP3    H233491   3.860   4.285  12.130 -0.3602  0.9952  0.5874
 4026TIP3   OH233492   3.103   5.507  11.784 -0.1439 -0.2418  0.1734
 4026TIP3    H133493   3.058   5.433  11.824 -1.5772  1.0321  1.0505
 4026TIP3    H233494   3.172   5.530  11.845 -2.5744  1.9542  2.3456
 4027TIP3   OH233495   2.845   4.727   2.284 -0.3013 -0.0506  0.2522
 4027TIP3    H133496   2.907   4.759   2.349  3.0265 -1.2851 -2.0607
 4027TIP3    H233497   2.827   4.637   2.312  1.9153 -0.9280 -0.9126
 4028TIP3   OH233498   2.749   6.036  11.348 -0.2642  0.2329 -0.6433
 4028TIP3    H133499   2.699   6.062  11.270 -0.5422  1.0038 -0.2185
 4028TIP3    H233500   2.767   5.943  11.335 -1.6080 -0.0105 -0.9257
 4029TIP3   OH233501   1.365   3.174  16.634 -0.1847 -0.4409 -0.3328
 4029TIP3    H133502   1.354   3.264  16.602  0.3100  0.2551  1.3139
 4029TIP3    H233503   1.443   3.142  16.591 -0.3189 -0.0549 -0.8744
 4030TIP3   OH233504   0.128   4.697   2.149 -0.4357 -0.2405  0.5308
 4030TIP3    H133505   0.150   4.783   2.186 -1.2005 -0.3100  1.1822
 4030TIP3    H233506   0.205   4.673   2.098  1.3431 -0.8033  3.2576
 4031TIP3   OH233507   3.725   5.838   2.560 -0.5746  0.1853  0.2179
 4031TIP3    H133508   3.719   5.778   2.486  0.3068 -0.3514  0.5678
 4031TIP3    H233509   3.782   5.908   2.529 -0.3012  0.0201  0.3412
 4032TIP3   OH233510   1.283   2.350  14.453 -0.2102  0.0079 -0.2177
 4032TIP3    H133511   1.375   2.336  14.430  0.4533  4.0099 -0.7488
 4032TIP3    H233512   1.242   2.264  14.441  3.2490 -1.7587 -0.7375
 4033TIP3   OH233513   6.466   0.309   4.379 -0.4121 -0.1182  0.0110
 4033TIP3    H133514   6.507   0.260   4.308 -0.9341 -1.2510  0.4671
 4033TIP3    H233515   6.512   0.280   4.458  1.0703  2.0838  0.0695
 4034TIP3   OH233516   6.385   2.834  16.587 -0.1913 -0.0506 -0.2603
 4034TIP3    H133517   6.426   2.779  16.654  0.7058 -0.0392 -0.7876
 4034TIP3    H233518   6.391   2.782  16.507 -0.5446  0.2717 -0.4977
 4035TIP3   OH233519   4.555   5.539  13.373 -0.2723  0.0667  0.3853
 4035TIP3    H133520   4.466   5.541  13.338  0.6145 -0.8432 -2.1465
 4035TIP3    H233521   4.572   5.446  13.390 -0.2724  0.3756  2.2755
 4036TIP3   OH233522   3.764   3.897  14.208 -0.1213 -0.3937  0.5247
 4036TIP3    H133523   3.741   3.804  14.220 -0.3668 -0.2806  0.9505
 4036TIP3    H233524   3.688   3.945  14.240 -0.2186 -0.0470 -0.2121
 4037TIP3   OH233525   4.486   0.756   5.975  0.1129  0.1160 -0.2128
 4037TIP3    H133526   4.447   0.669   5.984  0.4137 -0.0443 -0.4526
 4037TIP3    H233527   4.577   0.740   5.951  0.5760  0.4702  1.1780
 4038TIP3   OH233528   4.622   0.723  12.704 -0.3723 -0.1852 -0.0444
 4038TIP3    H133529   4.600   0.812  12.732  0.0428  0.2661 -1.0856
 4038TIP3    H233530   4.582   0.666  12.769  0.1469  0.7984  1.1683
 4039TIP3   OH233531   2.504   5.045  16.674  0.2658  0.2894 -0.0404
 4039TIP3    H133532   2.535   4.960  16.704  0.4893  0.4431  0.1732
 4039TIP3    H233533   2.543   5.107  16.736  0.0901  0.5428 -0.1835
 4040TIP3   OH233534   4.957   3.235  16.535  0.4333 -0.4838 -0.4890
 4040TIP3    H133535   4.962   3.218  16.441 -1.0133 -1.8447 -0.3681
 4040TIP3    H233536   4.986   3.325  16.545  2.3307 -0.8505 -2.0190
 4041TIP3   OH233537   2.893   0.126  16.135 -0.0596  0.3649 -0.2894
 4041TIP3    H133538   2.866   0.037  16.157  1.8847 -0.2718 -0.2598
 4041TIP3    H233539   2.940   0.117  16.051  1.0604  1.1621  0.2183
 4042TIP3   OH233540   5.493   5.776  14.859  0.1648  0.2445  0.1576
 4042TIP3    H133541   5.586   5.752  14.856  0.0841 -0.0274 -0.1335
 4042TIP3    H233542   5.472   5.776  14.953  0.0240 -1.3691  0.1485
 4043TIP3   OH233543   6.755   5.806  14.783  0.1034 -0.7829  0.1798
 4043TIP3    H133544   6.765   5.746  14.709  0.6921 -0.5494  0.0682
 4043TIP3    H233545   6.726   5.888  14.743  1.3764 -0.3556  0.0756
 4044TIP3   OH233546   2.938   0.174   4.609 -0.5371  0.8209  0.2985
 4044TIP3    H133547   2.982   0.259   4.607 -0.0308  0.5784  0.9284
 4044TIP3    H233548   2.848   0.194   4.633 -0.1031  1.0710  1.8193
 4045TIP3   OH233549   0.756   3.424  13.186  0.2787  0.2701 -0.3381
 4045TIP3    H133550   0.743   3.519  13.192  0.5396  0.2815  0.0597
 4045TIP3    H233551   0.845   3.415  13.153  0.3472  0.1575 -0.1169
 4046TIP3   OH233552   1.941   6.456   3.168 -0.6716 -0.5797  0.6133
 4046TIP3    H133553   1.952   6.541   3.126 -0.3864 -1.1670 -0.5233
 4046TIP3    H233554   2.023   6.410   3.150 -0.8687 -1.1397  1.1245
 4047TIP3   OH233555   1.097   5.004  12.884  0.6332  0.1689 -0.0416
 4047TIP3    H133556   1.177   5.009  12.935  2.1218 -0.8482 -2.1686
 4047TIP3    H233557   1.111   5.066  12.812 -0.8919  0.6447  0.0320
 4048TIP3   OH233558   3.040   4.884  11.599  0.3522  0.1000  0.7022
 4048TIP3    H133559   2.985   4.869  11.523  0.0717 -0.9876  1.1085
 4048TIP3    H233560   3.125   4.912  11.563 -0.1817  0.9214  0.0553
 4049TIP3   OH233561   4.576   3.919   5.719  0.1936 -0.0216 -0.4896
 4049TIP3    H133562   4.618   3.865   5.651  0.5781  0.6229 -0.7718
 4049TIP3    H233563   4.616   4.005   5.708 -1.0454  0.5508 -0.6072
 4050TIP3   OH233564   0.062   4.302  14.716 -0.5015 -0.1674  0.5460
 4050TIP3    H133565   0.139   4.339  14.758  1.4275 -3.3364  0.0882
 4050TIP3    H233566   0.021   4.248  14.784  0.2339 -1.9599 -0.3823
 4051TIP3   OH233567   6.102   5.050  14.108 -0.1893  0.6110 -0.3409
 4051TIP3    H133568   6.014   5.055  14.072 -1.2579 -0.2688  1.9936
 4051TIP3    H233569   6.100   4.975  14.167  1.6129  1.6149  1.1139
 4052TIP3   OH233570   6.747   3.423  15.353 -0.2230 -0.3372 -0.4762
 4052TIP3    H133571   6.656   3.454  15.351  0.0357  0.7705  1.5230
 4052TIP3    H233572   6.790   3.470  15.281 -0.6107  1.4637  0.4080
 4053TIP3   OH233573   0.345   3.687   1.341  0.7851  0.1650  0.3134
 4053TIP3    H133574   0.412   3.705   1.408  0.8158  0.9285  0.0852
 4053TIP3    H233575   0.381   3.614   1.291  1.7236  0.9155 -0.1562
 4054TIP3   OH233576   0.206   4.869  11.498  1.0090  0.7851 -0.7676
 4054TIP3    H133577   0.223   4.781  11.465  1.0398  0.0192  1.1382
 4054TIP3    H233578   0.118   4.865  11.536  0.9663  1.5957 -0.7586
 4055TIP3   OH233579   2.925   6.067   0.083 -0.6813 -0.2918 -0.0879
 4055TIP3    H133580   2.888   5.988   0.123  0.6596 -0.7706  0.2405
 4055TIP3    H233581   3.007   6.082   0.130  0.7976 -0.6862 -2.4217
 4056TIP3   OH233582   1.872   0.226   3.411 -0.0484 -0.5827  0.1194
 4056TIP3    H133583   1.901   0.224   3.502  1.3395 -0.2938 -0.2925
 4056TIP3    H233584   1.825   0.309   3.403  0.3870 -0.2980  0.4271
 4057TIP3   OH233585   0.734   3.452   3.505  0.5306 -0.3404  0.7207
 4057TIP3    H133586   0.700   3.384   3.562  0.5210 -0.2289  0.8493
 4057TIP3    H233587   0.677   3.528   3.520  0.5041 -0.3213  0.5350
 4058TIP3   OH233588   6.125   5.296  11.218 -0.0550  0.8596 -0.8159
 4058TIP3    H133589   6.113   5.313  11.312 -2.0754 -0.5350 -0.7668
 4058TIP3    H233590   6.198   5.353  11.193  1.1355  0.6458  1.7725
 4059TIP3   OH233591   0.964   3.596   1.850 -0.3207  1.3636  0.4759
 4059TIP3    H133592   1.038   3.537   1.840 -0.1182  1.6243  0.4129
 4059TIP3    H233593   0.927   3.574   1.935 -1.9116 -0.7112 -0.6599
 4060TIP3   OH233594   2.616   5.296   2.045 -0.2955  0.4928 -0.6268
 4060TIP3    H133595   2.700   5.301   2.091 -1.2825 -0.3489  1.4009
 4060TIP3    H233596   2.593   5.203   2.047 -1.3942  0.7454 -0.9332
 4061TIP3   OH233597   5.240   1.102   3.345 -0.4657 -0.4693  0.4928
 4061TIP3    H133598   5.325   1.065   3.367 -0.4335 -1.5368 -1.2162
 4061TIP3    H233599   5.177   1.040   3.381 -0.4369 -1.1939 -0.6295
 4062TIP3   OH233600   2.430   3.946   3.449 -0.7465  0.3221  0.0548
 4062TIP3    H133601   2.452   3.949   3.356  0.4975  0.4088  0.3366
 4062TIP3    H233602   2.443   4.036   3.480  3.0884 -0.4553  1.1889
 4063TIP3   OH233603   4.164   5.408  12.348 -0.3384 -0.2382  0.0306
 4063TIP3    H133604   4.073   5.405  12.377 -0.2791 -0.4255  0.2020
 4063TIP3    H233605   4.190   5.499  12.358 -0.4149 -0.2430  0.2742
 4064TIP3   OH233606   5.379   3.466  12.686  0.3351 -0.4091 -0.5797
 4064TIP3    H133607   5.431   3.469  12.606  0.5839  0.5096 -0.4018
 4064TIP3    H233608   5.288   3.470  12.657  0.4435  1.7364 -0.7898
 4065TIP3   OH233609   2.932   5.986  12.896 -0.3066  0.2586  0.6004
 4065TIP3    H133610   2.953   5.973  12.988  0.7974 -1.7788  0.1299
 4065TIP3    H233611   2.987   5.923  12.850 -1.8614  0.2230 -1.3597
 4066TIP3   OH233612   5.063   3.485  16.603 -0.5694  0.0355  0.0193
 4066TIP3    H133613   5.128   3.537  16.554 -0.1042 -0.9289 -0.4002
 4066TIP3    H233614   5.112   3.446  16.675 -0.5096 -1.2666 -0.7022
 4067TIP3   OH233615   2.304   5.711   1.508 -0.2125 -0.4755 -0.0748
 4067TIP3    H133616   2.325   5.795   1.467 -2.1407 -0.6882 -1.6631
 4067TIP3    H233617   2.312   5.647   1.437  1.8563 -1.8161  1.2440
 4068TIP3   OH233618   1.600   3.473  14.257  0.6296 -0.0035 -0.4614
 4068TIP3    H133619   1.576   3.553  14.209 -1.6461  0.0167  0.5903
 4068TIP3    H233620   1.656   3.425  14.196 -1.3675  0.4432 -2.8317
 4069TIP3   OH233621   0.057   3.768  11.979 -0.4604  0.1631  0.2133
 4069TIP3    H133622  -0.029   3.810  11.972 -1.4253 -1.5516  1.0715
 4069TIP3    H233623   0.040   3.687  12.027  2.2044  1.3031  3.4546
 4070TIP3   OH233624   3.211   0.555  17.323  0.9997  0.2158 -0.2632
 4070TIP3    H133625   3.240   0.615  17.392 -0.3379 -0.5292  1.0041
 4070TIP3    H233626   3.120   0.535  17.345  1.0481 -1.3672 -1.3093
 4071TIP3   OH233627   1.596   1.564  15.950 -0.3282 -0.1480 -0.1978
 4071TIP3    H133628   1.514   1.555  15.901 -1.3219 -0.2761  1.4176
 4071TIP3    H233629   1.641   1.636  15.906 -1.2719 -0.1094 -1.1672
 4072TIP3   OH233630   3.938   6.095   5.238  0.0297  0.1839 -0.0764
 4072TIP3    H133631   3.967   6.044   5.162  0.6851 -1.1037  0.9994
 4072TIP3    H233632   3.882   6.163   5.201  1.9029  0.8323 -1.9246
 4073TIP3   OH233633   0.701   4.003  15.667 -0.3096 -0.2902 -0.1639
 4073TIP3    H133634   0.736   4.051  15.742  1.4319 -1.9860  0.2064
 4073TIP3    H233635   0.778   3.975  15.619 -1.2610 -1.9319 -0.8236
 4074TIP3   OH233636   3.858   5.815   1.834 -0.5385  0.2691  0.2353
 4074TIP3    H133637   3.861   5.910   1.826 -0.9945  0.2740  0.1054
 4074TIP3    H233638   3.950   5.788   1.837 -0.4034  0.6820 -0.1065
 4075TIP3   OH233639   2.164   1.917  11.181  0.4517 -0.2185 -0.8256
 4075TIP3    H133640   2.157   1.839  11.235  0.9392  1.4058  1.7159
 4075TIP3    H233641   2.255   1.919  11.153  0.9638  0.4674  0.8075
 4076TIP3   OH233642   3.834   5.349   5.708 -0.8738 -0.0412 -0.0382
 4076TIP3    H133643   3.900   5.405   5.666 -0.8500 -0.4697 -0.5961
 4076TIP3    H233644   3.869   5.332   5.795 -1.9046  2.5739  0.9926
 4077TIP3   OH233645   1.439   4.164   5.690  0.0565  0.1511  0.0710
 4077TIP3    H133646   1.384   4.183   5.614  0.8037 -0.8932 -0.7475
 4077TIP3    H233647   1.514   4.224   5.681 -0.7964  1.4325  1.0800
 4078TIP3   OH233648   3.605   3.067  14.905  0.5354 -0.9926 -0.3274
 4078TIP3    H133649   3.652   3.142  14.943  0.8137 -0.6865 -1.2450
 4078TIP3    H233650   3.656   2.991  14.932  1.9665 -0.6186 -1.8293
 4079TIP3   OH233651   6.011   3.363  12.456 -0.5542 -0.4086  0.1769
 4079TIP3    H133652   5.958   3.405  12.524  2.9380  2.6595  1.3524
 4079TIP3    H233653   6.006   3.422  12.381  0.3893 -0.5682 -0.0291
 4080TIP3   OH233654   0.496   1.185  11.646 -0.3190 -0.4716  0.4293
 4080TIP3    H133655   0.454   1.266  11.676  1.0121  1.2925 -2.0350
 4080TIP3    H233656   0.579   1.182  11.693 -0.4413 -0.4945  0.6442
 4081TIP3   OH233657   3.552   0.055   2.207  0.1747 -0.0026 -0.0943
 4081TIP3    H133658   3.589   0.028   2.291  0.0335 -0.1275 -0.0702
 4081TIP3    H233659   3.527   0.147   2.219  1.0267  0.2667 -0.3043
 4082TIP3   OH233660   3.982   3.300  15.000  0.2906 -0.4853 -0.2776
 4082TIP3    H133661   3.984   3.240  14.925  1.3807 -0.5960 -0.1775
 4082TIP3    H233662   3.996   3.243  15.076  0.2059 -0.2420 -0.0791
 4083TIP3   OH233663   3.525   4.359  12.082 -0.0097 -0.1351  0.0894
 4083TIP3    H133664   3.511   4.449  12.113  1.0910  0.4433 -0.9997
 4083TIP3    H233665   3.595   4.325  12.137  0.8913  0.3595 -0.7257
 4084TIP3   OH233666   5.830   1.135  17.083 -0.2894 -0.5247  0.5025
 4084TIP3    H133667   5.844   1.220  17.043  0.5199 -0.7799  0.2276
 4084TIP3    H233668   5.885   1.075  17.033 -1.1649 -1.2945  0.4182
 4085TIP3   OH233669   3.010   2.223  13.335  0.3371  0.1374 -0.4506
 4085TIP3    H133670   2.963   2.142  13.355  0.1180  0.2735 -0.4089
 4085TIP3    H233671   3.063   2.201  13.258  1.9752 -0.6832  0.8664
 4086TIP3   OH233672   5.510   3.235  15.250  0.4795 -0.0444 -0.6987
 4086TIP3    H133673   5.432   3.199  15.294  1.3490 -0.3226  0.6625
 4086TIP3    H233674   5.503   3.330  15.263  0.8628 -0.1390  0.3219
 4087TIP3   OH233675   0.444   4.502   3.381 -0.4295  0.3462 -0.3956
 4087TIP3    H133676   0.442   4.496   3.285 -0.5041  3.1835 -0.6585
 4087TIP3    H233677   0.371   4.560   3.402  0.5797  1.0772  1.2425
 4088TIP3   OH233678   0.852   6.492  11.889  0.1871 -0.5586 -0.1902
 4088TIP3    H133679   0.806   6.565  11.929  0.4707  0.0441 -0.9391
 4088TIP3    H233680   0.809   6.480  11.804  0.9597 -0.4228 -0.6109
 4089TIP3   OH233681   1.757   2.408   2.938  0.4887 -0.3614  0.4844
 4089TIP3    H133682   1.798   2.472   2.996  2.3929 -1.0256 -0.0639
 4089TIP3    H233683   1.756   2.451   2.852  0.0463 -0.3702  0.4800
 4090TIP3   OH233684   4.991   1.724  11.166  0.1386 -0.4790 -0.0521
 4090TIP3    H133685   5.011   1.654  11.228 -0.0911  0.2094  0.8308
 4090TIP3    H233686   5.068   1.729  11.110 -0.7976 -3.0676 -1.7735
 4091TIP3   OH233687   6.424   3.535   1.256 -0.1831  0.2738 -0.5548
 4091TIP3    H133688   6.458   3.596   1.321  0.2282  1.4778 -1.8396
 4091TIP3    H233689   6.367   3.589   1.201  1.8487  0.1088 -3.0415
 4092TIP3   OH233690   2.511   2.485   4.425 -0.4042 -0.2399  0.1259
 4092TIP3    H133691   2.498   2.558   4.485  0.1194 -0.0499  0.0227
 4092TIP3    H233692   2.445   2.421   4.449 -2.5835  1.2942 -1.4074
 4093TIP3   OH233693   1.147   2.153   3.929  0.1473 -0.3742  0.0050
 4093TIP3    H133694   1.205   2.229   3.921 -0.4065 -0.0963 -1.8337
 4093TIP3    H233695   1.199   2.080   3.894  0.5650 -0.8318  1.4824
 4094TIP3   OH233696   5.083   3.213  13.384  0.2874 -0.0393 -0.4755
 4094TIP3    H133697   5.138   3.264  13.325 -1.8883  1.2043 -1.5666
 4094TIP3    H233698   5.143   3.183  13.453  2.1418  1.8990 -1.1257
 4095TIP3   OH233699   5.987   2.967   4.190 -0.1213  0.1594 -0.4685
 4095TIP3    H133700   6.076   2.952   4.158  0.6932 -1.0570  2.1354
 4095TIP3    H233701   5.996   3.040   4.251 -0.7891 -0.4301  0.3454
 4096TIP3   OH233702   2.700   5.725  15.883 -0.1731 -0.1890 -0.3235
 4096TIP3    H133703   2.764   5.657  15.858 -0.0112 -1.3892  2.8529
 4096TIP3    H233704   2.627   5.676  15.921  0.0232  1.3335  2.2329
 4097TIP3   OH233705   0.744   3.643  12.493 -0.0559  0.3476  0.5419
 4097TIP3    H133706   0.698   3.589  12.429  0.0547  0.5743  0.2647
 4097TIP3    H233707   0.675   3.686  12.543 -0.1449 -0.2289  0.9197
 4098TIP3   OH233708   3.105   0.675   3.846 -0.1064  0.5461  0.4477
 4098TIP3    H133709   3.021   0.718   3.860 -0.1639  0.9679 -0.9917
 4098TIP3    H233710   3.147   0.728   3.778  0.6636 -0.5378  0.0609
 4099TIP3   OH233711   5.396   4.811   4.456  0.0209  0.1092 -0.2616
 4099TIP3    H133712   5.369   4.892   4.499 -1.4803 -0.6536  0.3038
 4099TIP3    H233713   5.443   4.762   4.523  0.6542  0.3643 -0.5113
 4100TIP3   OH233714   6.069   0.192  10.604  0.0128 -0.5854 -0.7357
 4100TIP3    H133715   6.164   0.184  10.596  0.0643  0.0624 -0.8354
 4100TIP3    H233716   6.053   0.204  10.698 -0.1342 -2.5923 -0.4748
 4101TIP3   OH233717   3.897   4.038   1.796  0.0547 -0.0876  0.1030
 4101TIP3    H133718   3.977   4.034   1.849  0.5310 -0.0996 -0.6003
 4101TIP3    H233719   3.921   3.996   1.714 -1.1404 -1.5012  0.4463
 4102TIP3   OH233720   0.406   6.132  15.677 -0.4167 -0.3459  0.6251
 4102TIP3    H133721   0.338   6.080  15.720  0.7798 -2.2936  0.2670
 4102TIP3    H233722   0.483   6.121  15.733 -0.0622  0.8590  0.3963
 4103TIP3   OH233723   1.659   2.900  15.139 -0.1742 -0.8272  0.4101
 4103TIP3    H133724   1.688   2.916  15.049 -2.2311 -1.0358 -0.3377
 4103TIP3    H233725   1.723   2.947  15.193  0.2244  0.6525 -1.2317
 4104TIP3   OH233726   3.167   5.663   2.651  0.6667  0.4872  0.2078
 4104TIP3    H133727   3.122   5.579   2.659 -1.6588  1.3091 -2.3571
 4104TIP3    H233728   3.209   5.676   2.736 -1.6929 -1.7125  1.8820
 4105TIP3   OH233729   3.014   2.838  12.844  0.3145 -0.2618  0.1491
 4105TIP3    H133730   3.049   2.906  12.786  1.2918  0.3342  1.3835
 4105TIP3    H233731   2.936   2.878  12.883  1.1459  0.3745  1.2252
 4106TIP3   OH233732   1.838   5.623  12.892 -0.3750 -0.3025  0.9716
 4106TIP3    H133733   1.892   5.567  12.947  0.8741 -1.3635 -1.2104
 4106TIP3    H233734   1.759   5.571  12.875 -0.7815  0.0431  1.7283
 4107TIP3   OH233735   5.129   6.302   4.374 -0.2219 -0.3142  0.0559
 4107TIP3    H133736   5.035   6.290   4.361 -0.2015 -0.0344 -0.3818
 4107TIP3    H233737   5.166   6.215   4.363 -0.4547 -0.4597  0.4282
 4108TIP3   OH233738   1.616   0.046   2.723  0.0816 -0.1058 -0.1807
 4108TIP3    H133739   1.561  -0.033   2.726  1.4822 -1.1671 -0.9918
 4108TIP3    H233740   1.652   0.053   2.811  0.6406 -0.8965 -0.3403
 4109TIP3   OH233741   5.338   4.137   1.382  0.5258  0.0518 -0.0099
 4109TIP3    H133742   5.268   4.198   1.359  0.7868 -0.0518 -1.1573
 4109TIP3    H233743   5.356   4.089   1.301  1.6930 -0.1442  0.3385
 4110TIP3   OH233744   6.678   6.522  17.066 -0.5153  0.4547  0.2196
 4110TIP3    H133745   6.662   6.438  17.023 -0.1976  0.5269 -0.0412
 4110TIP3    H233746   6.605   6.577  17.038 -0.5699  0.3549  0.1624
 4111TIP3   OH233747   3.806   3.721   3.694 -0.1476 -0.0025 -0.0670
 4111TIP3    H133748   3.809   3.806   3.650  0.1521  0.6861  1.2387
 4111TIP3    H233749   3.834   3.658   3.627  0.7302  1.0587 -0.7266
 4112TIP3   OH233750   3.467   5.386  13.147 -0.4271 -0.1160 -0.3014
 4112TIP3    H133751   3.421   5.356  13.226 -0.0034  2.1531  0.8816
 4112TIP3    H233752   3.400   5.433  13.097 -0.6379 -1.3590 -1.2214
 4113TIP3   OH233753   3.302   2.509  13.257 -0.1583 -0.2154  0.2547
 4113TIP3    H133754   3.337   2.554  13.334 -0.3876  1.8269 -0.7674
 4113TIP3    H233755   3.211   2.491  13.279 -0.1571  0.1434  0.5635
 4114TIP3   OH233756   2.091   1.676  11.287 -0.3296  0.1583 -0.2234
 4114TIP3    H133757   2.068   1.586  11.262 -0.7749 -0.0448  0.8249
 4114TIP3    H233758   2.067   1.681  11.380 -0.0303  1.2735 -0.1947
 4115TIP3   OH233759   0.693   6.013   3.001  0.8547 -0.6428  0.3671
 4115TIP3    H133760   0.750   5.952   2.955  0.6576 -0.9383  0.5087
 4115TIP3    H233761   0.611   5.965   3.013 -0.2151  0.5193 -1.7766
 4116TIP3   OH233762   5.957   4.659  17.242  0.0266 -0.7061 -0.0262
 4116TIP3    H133763   5.964   4.618  17.328  1.8042 -0.8469 -0.2147
 4116TIP3    H233764   5.953   4.753  17.260  0.3727 -0.7372  0.2114
 4117TIP3   OH233765   3.483   1.552   2.541  0.0186  0.1977 -0.3669
 4117TIP3    H133766   3.393   1.583   2.540 -0.4074 -0.9110 -2.5796
 4117TIP3    H233767   3.476   1.458   2.554  1.1050  0.4302  2.7620
 4118TIP3   OH233768   6.613   2.813  16.020 -0.5241  0.0149  0.7315
 4118TIP3    H133769   6.557   2.880  15.981 -0.7441 -1.7913 -2.3658
 4118TIP3    H233770   6.572   2.730  15.996  3.1732 -1.4131 -1.5623
 4119TIP3   OH233771   1.416   0.793  12.375 -0.2968  0.3776  0.6621
 4119TIP3    H133772   1.438   0.864  12.316  1.2221  0.2261  1.0138
 4119TIP3    H233773   1.496   0.741  12.382 -1.4507 -1.5703  0.1579
 4120TIP3   OH233774   6.768   4.089   4.821 -0.5271  0.3672 -0.2878
 4120TIP3    H133775   6.737   4.122   4.737 -1.7979 -1.9508 -0.8011
 4120TIP3    H233776   6.689   4.062   4.868  0.1345  1.7640  1.7825
 4121TIP3   OH233777   5.580   0.843  13.397  0.2521  0.9187 -0.3001
 4121TIP3    H133778   5.549   0.916  13.451  0.2201  0.1626  0.7374
 4121TIP3    H233779   5.588   0.769  13.458  1.2462  0.3077 -1.1297
 4122TIP3   OH233780   0.507   5.570   1.832  0.4432  0.2375  0.1925
 4122TIP3    H133781   0.416   5.598   1.845  0.5574  1.3977 -1.1049
 4122TIP3    H233782   0.530   5.522   1.911 -2.0111 -2.0963 -0.3591
 4123TIP3   OH233783   1.716   0.642  14.019  0.1967 -0.1295 -0.1908
 4123TIP3    H133784   1.671   0.562  14.047 -1.4976  0.1999 -1.7523
 4123TIP3    H233785   1.667   0.713  14.059 -1.0552  0.2582 -2.3056
 4124TIP3   OH233786   4.511   2.465  13.528  0.1489  0.5965 -0.6840
 4124TIP3    H133787   4.578   2.404  13.558 -1.0927 -0.6635 -0.3344
 4124TIP3    H233788   4.458   2.482  13.606 -1.1067 -0.0403 -1.3569
 4125TIP3   OH233789   5.480   3.649  11.801  0.1854 -0.0901 -0.3204
 4125TIP3    H133790   5.471   3.744  11.799 -0.2686 -0.0832  1.3534
 4125TIP3    H233791   5.399   3.616  11.762 -0.9702  0.1938  1.7423
 4126TIP3   OH233792   5.664   0.846  15.704 -0.3159 -0.5503 -0.2376
 4126TIP3    H133793   5.679   0.798  15.786 -1.1435  1.0177  0.8945
 4126TIP3    H233794   5.726   0.919  15.708 -1.3203  0.3268 -0.3251
 4127TIP3   OH233795   3.821   1.465  11.570 -0.4683  0.2459 -0.2377
 4127TIP3    H133796   3.794   1.553  11.597  1.4107  0.9771 -0.5181
 4127TIP3    H233797   3.774   1.449  11.488  0.6160  1.8560 -1.2288
 4128TIP3   OH233798   1.423   3.663   0.513 -0.2877  0.4822  0.4474
 4128TIP3    H133799   1.455   3.574   0.509 -0.2384  0.3583  2.4025
 4128TIP3    H233800   1.438   3.699   0.426  0.8147 -1.0259 -0.0120
 4129TIP3   OH233801   1.003   6.546   4.527  0.2088  0.3988  0.0032
 4129TIP3    H133802   0.918   6.568   4.490 -0.0897 -1.4587 -0.5298
 4129TIP3    H233803   0.984   6.485   4.599  1.0544  0.1579  0.0433
 4130TIP3   OH233804   0.428   1.680   5.755  0.1766 -0.7543  0.2411
 4130TIP3    H133805   0.512   1.635   5.751 -0.2555 -1.6751  1.0552
 4130TIP3    H233806   0.363   1.611   5.747 -0.5600  0.1319 -2.2208
 4131TIP3   OH233807   3.740   1.459   5.459 -0.0371  0.6011 -0.1558
 4131TIP3    H133808   3.793   1.443   5.381 -0.5740  0.7279 -0.5449
 4131TIP3    H233809   3.804   1.468   5.530  0.4044 -0.9620 -0.3178
 4132TIP3   OH233810   5.280   6.474   4.197  0.2559 -0.1886  0.5886
 4132TIP3    H133811   5.307   6.551   4.248 -0.3864 -0.4072  1.2585
 4132TIP3    H233812   5.244   6.413   4.261 -0.8853 -0.3308 -0.1571
 4133TIP3   OH233813   6.660   5.443  16.835  0.0563  0.0927  0.1420
 4133TIP3    H133814   6.606   5.386  16.780 -2.4824  0.5617  1.9753
 4133TIP3    H233815   6.714   5.384  16.887 -0.2945 -0.4975 -0.1621
 4134TIP3   OH233816   0.152   1.490  17.149  0.4527 -0.3278  0.4776
 4134TIP3    H133817   0.171   1.452  17.234 -0.7598  0.2377  1.0123
 4134TIP3    H233818   0.137   1.583  17.167  2.4907  0.2940 -0.6800
 4135TIP3   OH233819   6.378   3.405  11.752 -0.1693  0.0958  0.4952
 4135TIP3    H133820   6.346   3.348  11.683  1.0918  1.9356 -1.7207
 4135TIP3    H233821   6.304   3.415  11.812 -1.2399 -1.6617 -0.4784
 4136TIP3   OH233822   5.104   1.620  15.094  0.4969  0.0560 -0.5667
 4136TIP3    H133823   5.042   1.671  15.146  1.3547  1.6890 -1.0716
 4136TIP3    H233824   5.109   1.535  15.138 -1.5878  0.0958 -0.1625
 4137TIP3   OH233825   0.760   5.063  12.153 -0.2142  0.6430 -0.7263
 4137TIP3    H133826   0.680   5.090  12.109 -0.5738  0.6265 -0.0901
 4137TIP3    H233827   0.740   5.069  12.247  0.0138 -0.8303 -0.5491
 4138TIP3   OH233828   5.274   0.904  12.672  0.2886 -0.4007  0.2614
 4138TIP3    H133829   5.369   0.900  12.657  0.1315 -2.0229 -0.4842
 4138TIP3    H233830   5.241   0.957  12.599  0.4103 -1.6264 -0.7144
 4139TIP3   OH233831   4.397   3.324   3.596  0.3588  0.5055  0.1965
 4139TIP3    H133832   4.377   3.255   3.660 -1.3269  1.2587  0.5500
 4139TIP3    H233833   4.492   3.328   3.594  0.4878 -1.3908  0.6417
 4140TIP3   OH233834   3.466   0.035   1.167 -0.0574 -1.6998  0.1321
 4140TIP3    H133835   3.401   0.056   1.100 -2.2197 -1.1868  2.2643
 4140TIP3    H233836   3.470   0.113   1.223  2.7377 -1.5684 -0.1224
 4141TIP3   OH233837   1.155   3.733  13.708 -0.0833 -0.6888 -0.4422
 4141TIP3    H133838   1.118   3.644  13.708 -0.9614 -0.3377 -0.2760
 4141TIP3    H233839   1.178   3.749  13.799 -0.0617 -0.6975 -0.4458
 4142TIP3   OH233840   6.715   0.409   3.167  0.2933  0.3354  0.1512
 4142TIP3    H133841   6.708   0.429   3.073 -0.4443  0.1443  0.1614
 4142TIP3    H233842   6.803   0.374   3.177  0.7110  1.2078 -0.3144
 4143TIP3   OH233843   6.068   2.422   5.979 -0.9574  0.2074  0.3114
 4143TIP3    H133844   5.979   2.432   5.946 -1.1668  2.0454  1.3382
 4143TIP3    H233845   6.117   2.492   5.936  0.0336 -0.8398 -0.3100
 4144TIP3   OH233846   2.081   4.507  11.601  0.2046 -0.0569  0.3589
 4144TIP3    H133847   2.139   4.458  11.543  1.8922  1.6365  0.5349
 4144TIP3    H233848   2.128   4.512  11.684 -0.2444  1.2260  0.5558
 4145TIP3   OH233849   5.636   3.397   0.411 -0.1882  0.3760  0.0450
 4145TIP3    H133850   5.691   3.346   0.471  1.1489  2.2732  0.5117
 4145TIP3    H233851   5.695   3.420   0.339 -0.3401  2.3478  0.5000
 4146TIP3   OH233852   2.882   2.460  13.043 -0.4529 -0.3940 -0.6222
 4146TIP3    H133853   2.835   2.525  13.095 -0.6398 -0.6867 -0.4244
 4146TIP3    H233854   2.895   2.502  12.958 -0.4122 -0.0279 -0.4378
 4147TIP3   OH233855   4.588   4.963  11.620 -0.2688  0.0514 -0.0646
 4147TIP3    H133856   4.670   4.913  11.627 -1.4945 -1.9169  0.9405
 4147TIP3    H233857   4.522   4.898  11.596 -1.6627  1.5018 -0.3323
 4148TIP3   OH233858   5.386   2.963   4.790 -0.9139 -0.2487 -0.0619
 4148TIP3    H133859   5.452   2.898   4.767  0.6561  0.6198  1.7444
 4148TIP3    H233860   5.387   3.025   4.717 -0.1114 -0.5336 -0.3054
 4149TIP3   OH233861   1.675   4.127  16.632 -0.1713 -0.3174 -0.9334
 4149TIP3    H133862   1.682   4.222  16.642 -1.5001 -0.2533 -0.3251
 4149TIP3    H233863   1.603   4.115  16.570 -0.2601 -0.9259 -0.7197
 4150TIP3   OH233864   6.482   3.792   4.446  0.0999  0.0636  0.1564
 4150TIP3    H133865   6.552   3.795   4.381  0.8888 -2.0382  0.8535
 4150TIP3    H233866   6.425   3.721   4.417 -0.4807  0.2260  0.8685
 4151TIP3   OH233867   3.754   5.097  14.073 -0.0831  0.3399 -0.5111
 4151TIP3    H133868   3.797   5.177  14.041 -1.9124  1.5336 -0.1401
 4151TIP3    H233869   3.663   5.123  14.086 -1.4281 -2.5146 -2.9878
 4152TIP3   OH233870   3.001   3.555  17.073 -0.1958  0.0257  0.3345
 4152TIP3    H133871   3.035   3.549  17.162 -2.1527  0.3743  1.1627
 4152TIP3    H233872   2.994   3.649  17.056  1.0655 -0.0296 -0.5753
 4153TIP3   OH233873   3.228   4.118  16.753  0.0027 -0.7479  0.4011
 4153TIP3    H133874   3.174   4.118  16.832  0.7301 -1.2892  0.9103
 4153TIP3    H233875   3.165   4.105  16.682 -0.6552 -0.3040  0.8877
 4154TIP3   OH233876   1.121   0.263   3.817  0.0731  0.4382 -0.4656
 4154TIP3    H133877   1.046   0.211   3.843  0.3514 -0.1304 -0.7897
 4154TIP3    H233878   1.130   0.247   3.723 -0.5779  2.0213 -0.8417
 4155TIP3   OH233879   3.303   0.165  10.731  0.6628  0.0343  0.4034
 4155TIP3    H133880   3.320   0.224  10.805 -1.6388 -1.0139  1.8925
 4155TIP3    H233881   3.317   0.219  10.654  0.8203  1.8845  1.6562
 4156TIP3   OH233882   2.171   4.623  10.909  0.4355  0.5080  0.3162
 4156TIP3    H133883   2.156   4.709  10.870  0.1421  1.0728  1.6246
 4156TIP3    H233884   2.169   4.562  10.835  0.0216  1.5479 -0.5505
 4157TIP3   OH233885   6.726   3.595   6.577  0.3003 -0.4861  0.3240
 4157TIP3    H133886   6.651   3.551   6.537 -0.4694 -0.9645  2.1588
 4157TIP3    H233887   6.692   3.679   6.607  0.8435 -0.1495  0.0100
 4158TIP3   OH233888   0.116   5.083   0.964  0.0227 -0.0343 -0.1044
 4158TIP3    H133889   0.074   4.997   0.962 -0.4066  0.1638  0.2290
 4158TIP3    H233890   0.209   5.063   0.974 -0.2453 -0.4767  2.3487
 4159TIP3   OH233891   2.431   2.060  16.259 -0.4879 -0.7429  0.1491
 4159TIP3    H133892   2.393   2.124  16.319  1.7692 -2.1714  3.3794
 4159TIP3    H233893   2.496   2.110  16.209 -0.3906 -0.0403  0.9573
 4160TIP3   OH233894   6.487   3.309  13.322 -0.0812  0.3753  0.0314
 4160TIP3    H133895   6.535   3.226  13.322  0.8605  0.8917 -1.0433
 4160TIP3    H233896   6.427   3.303  13.248  0.7851  1.0705 -0.7513
 4161TIP3   OH233897   2.682   2.758  15.482 -0.3544  0.2706  0.3701
 4161TIP3    H133898   2.693   2.755  15.387 -2.2478  0.6956  0.0999
 4161TIP3    H233899   2.619   2.828  15.497  0.0282  0.3246  1.9695
 4162TIP3   OH233900   6.370   5.933   6.217  0.0864 -0.3545  0.4688
 4162TIP3    H133901   6.359   5.846   6.255 -0.3055 -0.5344 -0.0428
 4162TIP3    H233902   6.465   5.946   6.214  0.1864 -1.1304 -0.2447
 4163TIP3   OH233903   4.764   0.186   5.986  0.5653 -0.0542 -0.1536
 4163TIP3    H133904   4.780   0.276   5.959  0.7152 -0.3928 -1.2504
 4163TIP3    H233905   4.670   0.183   6.005  0.6359  0.4287  0.2780
 4164TIP3   OH233906   5.062   5.626   6.646 -0.2851 -0.0116  1.1913
 4164TIP3    H133907   5.073   5.613   6.552  0.4595 -0.4995  1.3425
 4164TIP3    H233908   5.149   5.612   6.683 -0.6420 -0.1675  1.9948
 4165TIP3   OH233909   0.091   2.809  16.102 -0.3757  0.2695  0.0627
 4165TIP3    H133910  -0.004   2.805  16.089 -0.4243 -1.3053  0.6937
 4165TIP3    H233911   0.109   2.741  16.167  1.0677  1.2163  0.7021
 4166TIP3   OH233912   4.022   1.919  16.648 -0.3372 -0.3110  0.6839
 4166TIP3    H133913   4.086   1.964  16.593  0.8237 -2.3364  0.3018
 4166TIP3    H233914   3.956   1.986  16.666  0.2327  0.9695 -1.5501
 4167TIP3   OH233915   2.213   1.870  15.931  0.1704 -0.1238  0.3257
 4167TIP3    H133916   2.203   1.899  16.021  0.1389  0.3443  0.1727
 4167TIP3    H233917   2.199   1.775  15.935 -1.5720  0.1254  0.5339
 4168TIP3   OH233918   5.456   0.523  16.068 -0.2386  0.0351 -0.3523
 4168TIP3    H133919   5.513   0.558  15.999 -1.1986 -0.9505 -1.6953
 4168TIP3    H233920   5.429   0.437  16.036 -2.8408  0.6361  0.0217
 4169TIP3   OH233921   0.966   5.538  12.525 -0.1788  0.1705 -0.6032
 4169TIP3    H133922   0.907   5.486  12.470 -0.3335  0.1212 -0.3930
 4169TIP3    H233923   0.941   5.629  12.507 -0.0762  0.1620 -0.7853
 4170TIP3   OH233924   0.720   0.667  17.297  0.0677 -0.1693 -0.6412
 4170TIP3    H133925   0.735   0.756  17.328  1.6481 -0.1476 -1.3358
 4170TIP3    H233926   0.625   0.658  17.292 -0.1537  0.8374  1.1945
 4171TIP3   OH233927   3.044   4.636   2.096 -0.4271  0.0261  0.3653
 4171TIP3    H133928   2.984   4.654   2.168 -0.6871 -0.1585  0.1928
 4171TIP3    H233929   3.016   4.696   2.026 -1.5564 -1.2994 -0.3646
 4172TIP3   OH233930   5.786   3.430  12.619  1.1895  0.0997 -0.2165
 4172TIP3    H133931   5.731   3.490  12.569 -0.5014 -1.6229 -0.5331
 4172TIP3    H233932   5.783   3.464  12.709  0.4566  0.6273 -0.4303
 4173TIP3   OH233933   6.376   3.532   0.941 -0.2459  0.2059 -0.3263
 4173TIP3    H133934   6.282   3.546   0.932 -0.3013 -1.2096 -6.0753
 4173TIP3    H233935   6.383   3.449   0.988 -1.8578  0.1919 -0.0388
 4174TIP3   OH233936   6.593   4.381  11.782  0.6038  0.2007  0.1213
 4174TIP3    H133937   6.506   4.365  11.746 -0.3202  3.1327  0.7232
 4174TIP3    H233938   6.651   4.325  11.731 -1.5522 -1.5023 -0.6135
 4175TIP3   OH233939   3.855   1.470   2.553 -0.2913  0.0872  0.1320
 4175TIP3    H133940   3.814   1.509   2.630 -0.3946 -0.0710  0.1580
 4175TIP3    H233941   3.868   1.378   2.576 -0.7658 -0.0708 -0.2169
 4176TIP3   OH233942   4.010   0.698   6.493 -0.2509 -0.1419  0.4737
 4176TIP3    H133943   4.032   0.659   6.409 -0.5612  0.9271 -0.1206
 4176TIP3    H233944   3.916   0.682   6.504 -1.1396  2.9997 -1.2586
 4177TIP3   OH233945   1.686   1.167   4.010  0.1827  0.0851 -0.2447
 4177TIP3    H133946   1.780   1.181   4.019  0.1446 -0.4235  1.2958
 4177TIP3    H233947   1.648   1.205   4.090 -0.7538 -0.9427 -0.1704
 4178TIP3   OH233948   6.720   4.266  12.546 -0.7208  0.4713 -0.5544
 4178TIP3    H133949   6.658   4.268  12.620 -2.3144  1.0778 -1.8441
 4178TIP3    H233950   6.767   4.184  12.557 -2.1756 -0.3098  0.1679
 4179TIP3   OH233951   4.438   2.079   3.900 -0.0236 -0.6657  0.3698
 4179TIP3    H133952   4.470   1.990   3.918  0.8293 -0.0803  1.9519
 4179TIP3    H233953   4.423   2.080   3.806 -2.9040 -3.3955  0.6398
 4180TIP3   OH233954   3.639   0.312  11.642 -0.0046  0.5469 -0.2157
 4180TIP3    H133955   3.551   0.286  11.667  0.3339  0.0633  0.5092
 4180TIP3    H233956   3.627   0.365  11.563 -1.0284  1.3707  0.4569
 4181TIP3   OH233957   4.483   2.630  14.715 -0.2765  0.4358  0.7654
 4181TIP3    H133958   4.426   2.698  14.680 -1.0801 -0.1062  0.9972
 4181TIP3    H233959   4.494   2.568  14.643  0.6317  0.8963  0.4827
 4182TIP3   OH233960   1.159   2.006  15.598  0.4579  0.2096  0.2787
 4182TIP3    H133961   1.224   2.058  15.551 -0.7740  1.8937  0.3483
 4182TIP3    H233962   1.172   1.916  15.567  2.1715  0.6609 -0.3891
 4183TIP3   OH233963   1.286   2.325  15.916 -0.3119 -0.2435  0.2143
 4183TIP3    H133964   1.242   2.392  15.864 -0.2218 -1.1872 -1.1071
 4183TIP3    H233965   1.339   2.276  15.854 -0.4295 -1.5965  1.1215
 4184TIP3   OH233966   3.490   5.438  14.058  0.0980  0.9493  0.2323
 4184TIP3    H133967   3.492   5.439  13.963  2.0536 -0.8022  0.1863
 4184TIP3    H233968   3.410   5.391  14.081 -0.2680  1.1900 -0.5462
 4185TIP3   OH233969   0.571   6.441   5.517  0.0430  0.2222 -0.6366
 4185TIP3    H133970   0.637   6.373   5.506  0.4343  0.5725 -0.4741
 4185TIP3    H233971   0.620   6.520   5.538 -0.3953  0.6139 -1.0483
 4186TIP3   OH233972   1.179   6.268  11.977 -0.4069  0.7020  0.5375
 4186TIP3    H133973   1.199   6.333  11.909 -0.9786 -0.2009 -0.5293
 4186TIP3    H233974   1.264   6.243  12.012  0.1400 -0.3714 -1.3655
 4187TIP3   OH233975   0.167   4.461   4.838 -0.3449  0.3068 -0.0123
 4187TIP3    H133976   0.190   4.371   4.863 -0.9861  0.0032 -0.4900
 4187TIP3    H233977   0.163   4.459   4.743 -1.9870  0.4136  0.0308
 4188TIP3   OH233978   0.924   2.596   3.004  0.2111  0.7001  0.3050
 4188TIP3    H133979   0.951   2.604   2.913  2.5137 -0.9308  0.7773
 4188TIP3    H233980   0.888   2.683   3.026 -0.4117  1.1114 -2.1096
 4189TIP3   OH233981   2.912   0.806  15.342  0.1061 -0.1331 -0.6833
 4189TIP3    H133982   2.998   0.805  15.384  0.7096 -0.6361 -1.8938
 4189TIP3    H233983   2.905   0.893  15.303  0.0649 -0.0921 -0.5848
 4190TIP3   OH233984   5.228   5.480  13.068 -0.0883 -0.0386  0.8411
 4190TIP3    H133985   5.229   5.501  12.975  2.2668  0.1696  0.8554
 4190TIP3    H233986   5.320   5.467  13.091 -0.7112 -1.4717  2.8458
 4191TIP3   OH233987   3.012   4.987   3.668  0.4613  0.8346 -0.6392
 4191TIP3    H133988   3.036   4.897   3.690  0.4272  0.9025 -0.3205
 4191TIP3    H233989   2.973   5.022   3.748 -2.0241  0.2984 -1.5135
 4192TIP3   OH233990   1.781   3.190  12.739 -0.2203 -0.2445 -0.0230
 4192TIP3    H133991   1.809   3.266  12.688 -1.3173 -0.8508 -1.6392
 4192TIP3    H233992   1.739   3.227  12.816 -1.3011  0.8436 -1.0838
 4193TIP3   OH233993   0.146   1.978   0.111  0.4490  0.1664 -0.2866
 4193TIP3    H133994   0.086   1.904   0.124  0.3292  0.4619  0.9111
 4193TIP3    H233995   0.145   1.992   0.016 -0.9758 -0.1784 -0.3517
 4194TIP3   OH233996   1.694   3.191  11.372  0.1558  0.1426  0.3130
 4194TIP3    H133997   1.615   3.170  11.323  1.5765 -0.2820 -1.9305
 4194TIP3    H233998   1.690   3.135  11.450 -1.9920  0.5803  0.5714
 4195TIP3   OH233999   0.793   6.329   4.421 -0.7460  0.0455 -0.1222
 4195TIP3    H134000   0.752   6.301   4.339 -1.7329 -0.8456  0.6577
 4195TIP3    H234001   0.777   6.423   4.426 -1.6041 -0.0834 -0.4323
 4196TIP3   OH234002   3.174   3.018  15.529  0.5419 -1.0648 -0.2898
 4196TIP3    H134003   3.259   3.016  15.486  1.2246  0.0812  0.9528
 4196TIP3    H234004   3.117   3.064  15.467  1.0241 -1.1239 -0.7846
 4197TIP3   OH234005   6.191   1.889   2.320 -0.0904 -0.1860 -0.1627
 4197TIP3    H134006   6.151   1.975   2.337 -1.8128 -1.0613  0.4234
 4197TIP3    H234007   6.155   1.863   2.235 -0.1161 -0.6226 -0.0178
 4198TIP3   OH234008   6.029   0.474  11.543 -0.2870  0.0857 -0.9744
 4198TIP3    H134009   5.994   0.517  11.465 -2.4007  2.0694  0.9074
 4198TIP3    H234010   6.092   0.537  11.578 -2.3512  1.1734  1.0335
 4199TIP3   OH234011   3.423   3.190   1.554 -0.1987 -0.0078  0.1107
 4199TIP3    H134012   3.347   3.242   1.532 -0.2635 -0.0809  0.1605
 4199TIP3    H234013   3.495   3.229   1.504 -0.2204  0.2086  0.2451
 4200TIP3   OH234014   6.302   1.775  16.836 -0.1440 -0.7334 -0.6188
 4200TIP3    H134015   6.281   1.817  16.919 -0.0147 -1.0270 -0.4383
 4200TIP3    H234016   6.397   1.771  16.833 -0.1144  0.1402 -1.2126
 4201TIP3   OH234017   0.982   6.006  16.713  0.1842  0.4816  0.8896
 4201TIP3    H134018   0.964   5.955  16.633  0.4823 -0.0644  1.1611
 4201TIP3    H234019   1.075   6.027  16.707 -0.0185  1.3225  0.6003
 4202TIP3   OH234020   2.443   0.637  16.128 -0.2442 -0.8473  0.6566
 4202TIP3    H134021   2.528   0.662  16.164 -0.0042  0.0853 -0.5179
 4202TIP3    H234022   2.379   0.683  16.182 -0.0365 -1.6290  1.6046
 4203TIP3   OH234023   1.750   2.335   1.530 -0.1638 -0.0359 -0.1456
 4203TIP3    H134024   1.782   2.293   1.610  0.3645  0.6761  0.0203
 4203TIP3    H234025   1.793   2.420   1.528  1.6730 -0.9229 -2.3975
 4204TIP3   OH234026   6.337   6.703  11.780 -0.8151  0.0831 -0.3474
 4204TIP3    H134027   6.324   6.719  11.873 -1.4855 -1.1584 -0.2121
 4204TIP3    H234028   6.250   6.685  11.746 -0.4048 -0.8902 -0.9223
 4205TIP3   OH234029   1.390   6.161   1.334 -0.4659  0.0294 -0.1935
 4205TIP3    H134030   1.325   6.119   1.390 -1.0630 -0.6630 -1.3556
 4205TIP3    H234031   1.468   6.170   1.389 -0.6376 -1.7360  0.4107
 4206TIP3   OH234032   1.051   4.517  11.174 -0.0001  0.2941 -0.0114
 4206TIP3    H134033   1.011   4.532  11.088  1.4069  0.8471 -0.6053
 4206TIP3    H234034   1.099   4.435  11.165 -1.5938 -0.8036  0.9506
 4207TIP3   OH234035   5.369   2.001   3.683  0.1656  0.0572 -0.1183
 4207TIP3    H134036   5.305   2.033   3.746  0.5565 -2.4186  1.6715
 4207TIP3    H234037   5.316   1.963   3.612 -0.4927 -2.1250  1.4218
 4208TIP3   OH234038   1.066   6.486   4.812 -0.0773 -0.3164  0.9985
 4208TIP3    H134039   1.092   6.394   4.815  1.6767  0.0436 -1.0367
 4208TIP3    H234040   1.126   6.530   4.873  2.1445  0.0389 -1.2950
 4209TIP3   OH234041   5.274   6.252  14.925  0.0789  0.0928 -0.6235
 4209TIP3    H134042   5.277   6.210  15.011  1.2788 -0.1551 -0.7667
 4209TIP3    H234043   5.182   6.247  14.899  0.2489 -3.2656 -1.0309
 4210TIP3   OH234044   1.446   1.260   0.468 -0.3798  0.0963 -0.1247
 4210TIP3    H134045   1.353   1.278   0.478 -0.4319 -0.7977  1.2510
 4210TIP3    H234046   1.475   1.234   0.555  1.9121  3.6125  0.3612
 4211TIP3   OH234047   6.715   2.602   4.997  0.2416  0.0820 -0.7148
 4211TIP3    H134048   6.765   2.613   5.077 -0.4749 -2.8259  0.2275
 4211TIP3    H234049   6.781   2.594   4.928  0.9970 -1.0730  0.1219
 4212TIP3   OH234050   2.314   3.946   0.826  0.3421  0.0507 -0.4029
 4212TIP3    H134051   2.243   3.981   0.880 -0.1719  0.1568 -1.1298
 4212TIP3    H234052   2.339   3.865   0.869 -0.1035  0.1044 -0.0367
 4213TIP3   OH234053   3.903   2.058   1.499 -0.3660 -0.3873 -0.5022
 4213TIP3    H134054   3.813   2.073   1.526 -0.2454 -1.0928  0.3490
 4213TIP3    H234055   3.918   1.965   1.517  0.8178 -0.0711  0.2737
 4214TIP3   OH234056   2.407   0.975  12.673  0.2407  1.0427 -0.1771
 4214TIP3    H134057   2.392   0.908  12.607  0.9186  1.4037 -0.7258
 4214TIP3    H234058   2.480   0.942  12.725 -1.5247 -0.1454  1.6868
 4215TIP3   OH234059   2.459   2.232  15.255  0.2314 -0.2378  0.5997
 4215TIP3    H134060   2.480   2.156  15.201 -0.6448  0.3244 -0.5784
 4215TIP3    H234061   2.456   2.305  15.194  0.3350  0.6398  1.5993
 4216TIP3   OH234062   4.229   0.057  16.803 -0.1594 -0.0569 -0.0714
 4216TIP3    H134063   4.312   0.044  16.758 -1.1784 -0.4468 -1.9319
 4216TIP3    H234064   4.249   0.039  16.895  1.5070 -1.5283 -0.6521
 4217TIP3   OH234065   6.009   0.174   5.199 -0.2288 -0.2375 -0.0313
 4217TIP3    H134066   6.103   0.160   5.197 -0.2895 -0.6380 -0.7369
 4217TIP3    H234067   5.978   0.120   5.272  0.1285  0.2000  0.4451
 4218TIP3   OH234068   2.484   1.652   6.076  0.0223 -0.1864  0.2659
 4218TIP3    H134069   2.496   1.648   6.170 -0.8914  3.5103  0.6858
 4218TIP3    H234070   2.420   1.582   6.057 -0.4977 -0.3904  2.5098
 4219TIP3   OH234071   2.799   4.763   0.679 -0.1770 -0.2293  0.3823
 4219TIP3    H134072   2.798   4.728   0.590  1.2850  0.7999 -0.0826
 4219TIP3    H234073   2.829   4.690   0.733  1.8145 -0.0947 -0.4316
 4220TIP3   OH234074   4.115   0.051   3.806 -0.3747  0.0801 -0.9153
 4220TIP3    H134075   4.074  -0.035   3.799 -2.8543  1.1832 -0.7755
 4220TIP3    H234076   4.109   0.088   3.718  0.7820  0.0989 -1.0033
 4221TIP3   OH234077   4.256   4.477  15.742 -0.2904  0.7302 -0.1388
 4221TIP3    H134078   4.336   4.425  15.749 -0.1517  0.8820 -0.5276
 4221TIP3    H234079   4.207   4.436  15.670 -0.5886  0.6074  0.1285
 4222TIP3   OH234080   0.820   0.040  15.152  0.0318 -0.4162 -0.3432
 4222TIP3    H134081   0.840  -0.028  15.216 -1.5088 -1.2529 -0.7073
 4222TIP3    H234082   0.839  -0.001  15.067 -0.1214 -0.0966 -0.5340
 4223TIP3   OH234083   3.170   0.410  16.649  0.0019  0.0729  0.0552
 4223TIP3    H134084   3.190   0.319  16.669  1.9074  0.1618 -1.0959
 4223TIP3    H234085   3.146   0.410  16.556  0.7178  0.8078 -0.1460
 4224TIP3   OH234086   2.390   0.106  13.047  0.0211 -0.0972  0.2751
 4224TIP3    H134087   2.300   0.076  13.058  0.2978 -0.7234  0.8922
 4224TIP3    H234088   2.383   0.181  12.988 -0.9960  0.3780  0.9693
 4225TIP3   OH234089   1.133   1.087   2.784 -0.1613 -0.3714  0.5904
 4225TIP3    H134090   1.189   1.022   2.742 -1.3427 -1.8637  1.2005
 4225TIP3    H234091   1.054   1.090   2.730  0.4147  1.6709 -0.2367
 4226TIP3   OH234092   3.835   1.292  13.886 -0.0748  0.2855  0.2043
 4226TIP3    H134093   3.814   1.242  13.964 -0.5326 -2.3392 -1.4961
 4226TIP3    H234094   3.926   1.319  13.898  0.5307 -1.8620  0.7772
 4227TIP3   OH234095   5.022   5.188  11.906  0.1665 -0.5986 -0.2132
 4227TIP3    H134096   5.035   5.133  11.829 -0.1582  1.4828 -1.8270
 4227TIP3    H234097   4.941   5.156  11.945 -0.7583 -0.4104 -1.8982
 4228TIP3   OH234098   3.002   3.379   2.867  0.3228 -0.2235 -0.0916
 4228TIP3    H134099   3.019   3.472   2.882  1.1869  0.1461 -2.7884
 4228TIP3    H234100   2.921   3.378   2.815 -1.2973 -1.2316  2.2804
 4229TIP3   OH234101   2.017   0.430   5.539  0.7473  0.8466 -0.4106
 4229TIP3    H134102   1.964   0.353   5.521 -0.2467  2.0117 -2.8545
 4229TIP3    H234103   1.959   0.505   5.522  1.6461  2.2076  1.9360
 4230TIP3   OH234104   1.111   1.430   5.286  0.1124  0.1614 -0.1342
 4230TIP3    H134105   1.172   1.409   5.357  1.1844 -0.7814 -1.2885
 4230TIP3    H234106   1.160   1.485   5.226 -0.6261  0.5625 -0.3873
 4231TIP3   OH234107   3.209   4.666  14.584 -0.1385 -0.2363 -0.0795
 4231TIP3    H134108   3.210   4.762  14.589  1.0720 -0.1662 -0.9822
 4231TIP3    H234109   3.126   4.645  14.543 -0.1116  0.4775 -0.5249
 4232TIP3   OH234110   1.262   4.917  16.491 -0.6274  0.2675 -0.0210
 4232TIP3    H134111   1.271   4.901  16.398 -1.8477  0.7379 -0.2420
 4232TIP3    H234112   1.203   4.993  16.497  2.0689  2.4835  1.0256
 4233TIP3   OH234113   1.953   3.245  11.580 -0.1252 -0.2887  0.5346
 4233TIP3    H134114   1.988   3.157  11.570  0.6494  0.0176  0.4415
 4233TIP3    H234115   1.956   3.283  11.492  0.4344  0.1356  0.7224
 4234TIP3   OH234116   3.959   1.143  15.743 -0.2420 -0.3601 -0.5272
 4234TIP3    H134117   4.023   1.212  15.762  0.9329 -1.8235  1.2527
 4234TIP3    H234118   3.875   1.189  15.736  0.9942  1.7196 -3.6719
 4235TIP3   OH234119   4.837   4.161   6.378  0.3289  0.5476  0.5834
 4235TIP3    H134120   4.900   4.143   6.447 -1.0292 -1.6412  1.3707
 4235TIP3    H234121   4.767   4.210   6.421  0.0217  0.1829  0.5113
 4236TIP3   OH234122   1.714   0.471   6.278 -0.2575 -0.1968 -0.0837
 4236TIP3    H134123   1.681   0.462   6.367  0.7220  0.8886  0.4303
 4236TIP3    H234124   1.704   0.564   6.258  2.0091  0.1300 -0.0319
 4237TIP3   OH234125   6.709   4.052  15.038  0.4566 -0.4777 -0.2658
 4237TIP3    H134126   6.674   4.109  14.969  0.4002  0.2859  0.3777
 4237TIP3    H234127   6.798   4.083  15.052  0.4294 -0.5556  0.0843
 4238TIP3   OH234128   1.854   4.018   1.087  0.4059 -0.0167 -0.3908
 4238TIP3    H134129   1.856   4.000   1.181  2.2099 -2.6191 -0.8107
 4238TIP3    H234130   1.784   3.963   1.053  0.3900  0.1813 -0.6889
 4239TIP3   OH234131   0.711   6.777  11.345  0.3278 -0.2799  0.1362
 4239TIP3    H134132   0.654   6.711  11.306 -2.8469  2.5006 -0.4641
 4239TIP3    H234133   0.752   6.821  11.271  1.2984 -0.6020  0.4624
 4240TIP3   OH234134   4.623   2.835  11.717 -0.4684  0.3748  0.0891
 4240TIP3    H134135   4.663   2.797  11.795 -1.9168  1.7565  1.5618
 4240TIP3    H234136   4.619   2.928  11.735 -2.2248  0.5498 -0.9714
 4241TIP3   OH234137   2.504   5.970   5.748  0.0099  0.3576  0.2236
 4241TIP3    H134138   2.519   6.044   5.689  0.8559  1.2017  1.4367
 4241TIP3    H234139   2.496   6.010   5.835  0.2657 -0.9598  0.8856
 4242TIP3   OH234140   4.925   4.229  16.982  0.1128  0.6902 -0.2563
 4242TIP3    H134141   4.958   4.271  17.061 -0.5383  0.1209  0.3376
 4242TIP3    H234142   4.987   4.254  16.913  0.6446  1.2547  0.4131
 4243TIP3   OH234143   5.190   1.398  11.851 -0.2220 -0.0735  0.0874
 4243TIP3    H134144   5.188   1.455  11.928  2.4474 -1.2047  1.1306
 4243TIP3    H234145   5.156   1.314  11.883 -1.1177  0.0296 -0.5720
 4244TIP3   OH234146   4.787   0.970  12.939  0.0239 -0.4290 -0.1346
 4244TIP3    H134147   4.806   0.974  12.845  0.3104  0.2097 -0.0516
 4244TIP3    H234148   4.704   1.017  12.948 -0.1350 -0.7146 -0.1020
 4245TIP3   OH234149   6.022   0.574   3.026  0.3734  0.1991  0.3392
 4245TIP3    H134150   6.035   0.491   3.072  1.3586  0.3344  0.3229
 4245TIP3    H234151   5.944   0.613   3.068 -0.6010 -1.0930 -0.2044
 4246TIP3   OH234152   3.403   5.695   1.694 -0.3272 -0.6494  0.1773
 4246TIP3    H134153   3.440   5.702   1.606  0.9793 -1.0483  0.6783
 4246TIP3    H234154   3.309   5.686   1.680 -0.4108  1.4378 -1.0988
 4247TIP3   OH234155   6.465   6.192  16.177 -0.0410 -0.3423  0.5020
 4247TIP3    H134156   6.448   6.221  16.087 -1.9928 -1.5851  0.3989
 4247TIP3    H234157   6.546   6.236  16.202  0.4787  0.1478 -1.8104
 4248TIP3   OH234158   4.770   1.750  16.038  0.5788 -0.2211 -0.1670
 4248TIP3    H134159   4.704   1.753  15.968  1.3701  0.8519 -0.9038
 4248TIP3    H234160   4.799   1.659  16.040  0.2622 -0.3511 -0.9769
 4249TIP3   OH234161   2.635   0.585   0.764  0.1491  0.2521  0.2218
 4249TIP3    H134162   2.626   0.664   0.818 -0.3094  1.3087 -1.3348
 4249TIP3    H234163   2.711   0.602   0.709  1.8604 -1.6661  1.8491
 4250TIP3   OH234164   1.866   3.128   3.663  0.0237 -0.0298 -0.1258
 4250TIP3    H134165   1.942   3.070   3.655  0.8626  1.2292 -2.1745
 4250TIP3    H234166   1.903   3.216   3.660 -1.2901  0.6680  2.0433
 4251TIP3   OH234167   0.902   1.503   0.213  0.0484 -0.4574 -0.2962
 4251TIP3    H134168   0.820   1.510   0.262  1.3067 -2.1637  2.2583
 4251TIP3    H234169   0.940   1.591   0.218 -0.9518 -0.0133 -0.2858
 4252TIP3   OH234170   6.690   5.405  16.241 -0.4511  0.0205  0.0667
 4252TIP3    H134171   6.702   5.427  16.333  0.8108 -0.7245  0.1014
 4252TIP3    H234172   6.761   5.345  16.221 -0.2272  0.7715 -1.5951
 4253TIP3   OH234173   6.011   2.169  13.020  0.4705  0.1363 -0.3738
 4253TIP3    H134174   5.998   2.166  13.114 -0.7160 -0.1630 -0.5304
 4253TIP3    H234175   5.971   2.252  12.993 -1.0735 -0.7316 -0.8563
 4254TIP3   OH234176   6.261   0.496  10.853 -0.3080  0.5773  0.0860
 4254TIP3    H134177   6.224   0.530  10.771  0.6419  4.1520  0.9453
 4254TIP3    H234178   6.228   0.556  10.920  2.0359  0.1225  1.7593
 4255TIP3   OH234179   1.036   2.573   4.318 -0.1609  0.6723  0.2342
 4255TIP3    H134180   0.985   2.493   4.307  2.5379 -0.8898 -2.5897
 4255TIP3    H234181   1.091   2.557   4.395  0.6966 -0.4805 -0.5829
 4256TIP3   OH234182   1.590   6.548  11.348  0.2442  0.1209  0.2614
 4256TIP3    H134183   1.585   6.642  11.363  1.2720 -0.0066  1.6120
 4256TIP3    H234184   1.684   6.530  11.340  0.0940 -0.8485  0.5107
 4257TIP3   OH234185   1.139   0.841  11.390 -0.2286  0.5683 -0.6408
 4257TIP3    H134186   1.092   0.806  11.314  0.8995  0.7341 -1.4473
 4257TIP3    H234187   1.086   0.815  11.465 -1.9616  1.3246 -1.5435
 4258TIP3   OH234188   2.131   4.934   0.736  0.4851 -0.1576 -0.5457
 4258TIP3    H134189   2.108   5.009   0.681 -0.2391  0.1845  0.1825
 4258TIP3    H234190   2.070   4.865   0.710  1.5120 -0.6948 -1.5971
 4259TIP3   OH234191   6.426   0.472   2.652 -0.4306  0.1184 -0.0347
 4259TIP3    H134192   6.369   0.540   2.614  0.9126  1.0172 -0.5274
 4259TIP3    H234193   6.463   0.513   2.730 -0.8756 -0.6674  0.6007
 4260TIP3   OH234194   4.317   5.118  13.500 -0.3301 -0.0329 -0.2676
 4260TIP3    H134195   4.243   5.130  13.561  0.2418  0.6570  0.3057
 4260TIP3    H234196   4.277   5.078  13.423 -0.9306 -1.7639  0.8767
 4261TIP3   OH234197   0.288   1.421  16.926 -0.0429  0.3741 -0.7846
 4261TIP3    H134198   0.232   1.420  17.004 -2.2041  0.0978 -2.2355
 4261TIP3    H234199   0.300   1.514  16.906 -1.1780  0.4410 -1.2251
 4262TIP3   OH234200   3.352   1.586   3.973 -0.2526 -0.0268  0.6443
 4262TIP3    H134201   3.329   1.570   4.064  1.4196  0.1546  1.1315
 4262TIP3    H234202   3.405   1.511   3.947  0.9557  0.8367  0.4755
 4263TIP3   OH234203   0.744   4.535  11.669  0.0450 -0.0860  0.8690
 4263TIP3    H134204   0.812   4.487  11.716 -0.8222 -1.3621  0.8873
 4263TIP3    H234205   0.760   4.626  11.691  1.9223 -0.3117  0.6256
 4264TIP3   OH234206   6.597   4.519   3.305 -0.8833 -0.2300 -0.3274
 4264TIP3    H134207   6.530   4.584   3.326  0.0648  1.2871 -1.8213
 4264TIP3    H234208   6.650   4.560   3.237  0.6252 -2.0170 -0.2918
 4265TIP3   OH234209   5.110   0.834   2.762  0.9998  0.0082 -0.5210
 4265TIP3    H134210   5.081   0.897   2.695 -1.1228 -0.2785  0.0587
 4265TIP3    H234211   5.156   0.888   2.826 -2.9671  1.6443  1.3105
 4266TIP3   OH234212   1.418   2.577   1.561  0.3273 -0.3520 -0.4334
 4266TIP3    H134213   1.492   2.619   1.517  0.6955 -2.2951 -1.7798
 4266TIP3    H234214   1.357   2.556   1.491 -1.5123  1.1145  0.6373
 4267TIP3   OH234215   6.401   5.304  14.712  0.2346  0.3555 -0.2464
 4267TIP3    H134216   6.350   5.367  14.662  0.6479  1.5034  0.7373
 4267TIP3    H234217   6.428   5.238  14.647 -1.4733  0.3480 -0.9968
 4268TIP3   OH234218   5.328   1.508  15.420  0.5174  0.1805  0.1897
 4268TIP3    H134219   5.377   1.479  15.343  0.8575 -0.5800  0.6761
 4268TIP3    H234220   5.236   1.491  15.398  0.5144  1.0662 -0.5007
 4269TIP3   OH234221   6.438   5.457   2.890  0.4790 -0.5757  0.0729
 4269TIP3    H134222   6.429   5.457   2.986  2.7964  1.0389  0.3877
 4269TIP3    H234223   6.362   5.506   2.859 -0.8143 -1.9392  0.9751
 4270TIP3   OH234224   0.540   1.470  16.696 -0.6086 -0.0237  0.7163
 4270TIP3    H134225   0.475   1.527  16.736 -0.7639  0.8911 -0.7650
 4270TIP3    H234226   0.604   1.530  16.656 -1.0583 -0.8245 -1.3286
 4271TIP3   OH234227   1.438   1.111  13.345 -0.0369  0.3620  0.3863
 4271TIP3    H134228   1.417   1.204  13.354 -0.5198  0.2669  0.2454
 4271TIP3    H234229   1.518   1.100  13.397  0.1604  0.9018  0.2116
 4272TIP3   OH234230   1.189   1.832   2.936  0.0229  1.0054  0.3495
 4272TIP3    H134231   1.283   1.823   2.956  0.4272  2.4450 -0.7519
 4272TIP3    H234232   1.152   1.747   2.959  2.0022 -0.4461 -1.3762
 4273TIP3   OH234233   3.754   4.634  13.609 -0.1832 -0.0020 -0.1555
 4273TIP3    H134234   3.847   4.647  13.586  0.8005  0.3308  3.4336
 4273TIP3    H234235   3.756   4.567  13.677 -2.4172  1.0108  0.9897
 4274TIP3   OH234236   2.714   2.434  13.424  0.1455 -0.6147 -0.1049
 4274TIP3    H134237   2.648   2.369  13.400 -0.0201 -0.7883  0.7693
 4274TIP3    H234238   2.764   2.392  13.495  1.7303 -0.8141 -1.2909
 4275TIP3   OH234239   1.878   0.612   4.241 -1.0557  0.0749 -0.3421
 4275TIP3    H134240   1.897   0.591   4.149 -0.7744 -1.8572  0.1085
 4275TIP3    H234241   1.924   0.695   4.257  0.0327 -0.2663 -1.5760
 4276TIP3   OH234242   1.882   2.211   4.284 -0.5683 -0.3162 -0.3568
 4276TIP3    H134243   1.879   2.197   4.379 -2.3533  1.0087 -0.1679
 4276TIP3    H234244   1.970   2.184   4.259  0.4330  0.5841  1.9046
 4277TIP3   OH234245   2.069   5.452   4.694 -0.4913 -0.2557 -0.6937
 4277TIP3    H134246   1.984   5.414   4.716 -1.1463 -0.1587 -2.8193
 4277TIP3    H234247   2.062   5.472   4.601  1.7259  0.1557 -0.8090
 4278TIP3   OH234248   3.985   0.662   4.204  0.8082  0.5112  0.0481
 4278TIP3    H134249   4.055   0.712   4.247 -0.1384  2.3287 -0.3861
 4278TIP3    H234250   3.911   0.666   4.265  0.5783  0.0189 -0.1952
 4279TIP3   OH234251   1.186   1.061   1.190 -0.3171 -0.3507 -0.2299
 4279TIP3    H134252   1.206   1.122   1.261  0.7294 -1.2385  0.2702
 4279TIP3    H234253   1.202   1.111   1.110 -1.6929  0.7156  0.1391
 4280TIP3   OH234254   2.075   3.757  12.290  0.0029  0.0602  0.3899
 4280TIP3    H134255   1.980   3.764  12.283 -0.1579 -0.7560  1.5085
 4280TIP3    H234256   2.090   3.679  12.343  1.2982  0.2063  0.2777
 4281TIP3   OH234257   0.945   4.559  12.930  0.0582  0.0644 -0.6068
 4281TIP3    H134258   0.898   4.639  12.906 -1.0485 -0.8588 -1.6211
 4281TIP3    H234259   1.037   4.583  12.923 -0.1893  1.9018  1.3792
 4282TIP3   OH234260   6.635   2.336  15.897 -0.3725 -0.4422 -0.1896
 4282TIP3    H134261   6.690   2.358  15.972 -0.9831 -2.4467  0.9475
 4282TIP3    H234262   6.637   2.413  15.841  1.4095  0.5134  1.1116
 4283TIP3   OH234263   4.730   2.321   6.544 -0.3512  0.1141  0.2727
 4283TIP3    H134264   4.729   2.294   6.453 -2.3871 -1.6038  0.7269
 4283TIP3    H234265   4.638   2.327   6.569  0.0561 -2.0940  2.8893
 4284TIP3   OH234266   0.143   0.554   0.388  0.3262  0.1042 -0.6563
 4284TIP3    H134267   0.185   0.640   0.397 -0.3892  0.6679 -2.2879
 4284TIP3    H234268   0.205   0.503   0.335  0.1889  0.0348 -0.7507
 4285TIP3   OH234269   2.728   6.253   2.564  0.0136  0.0740 -0.2758
 4285TIP3    H134270   2.659   6.190   2.547 -0.7372  0.4106  1.3319
 4285TIP3    H234271   2.809   6.204   2.548 -0.5635 -1.0129  0.0032
 4286TIP3   OH234272   3.562   1.018  13.456  0.6583 -0.1311  0.6575
 4286TIP3    H134273   3.605   1.052  13.535  1.9707 -0.5325  0.1414
 4286TIP3    H234274   3.560   0.924  13.468 -0.5009 -0.0918  0.8639
 4287TIP3   OH234275   2.164   4.651  13.703 -0.5430  0.0600  0.4938
 4287TIP3    H134276   2.151   4.725  13.762 -1.4807 -0.4311  0.9275
 4287TIP3    H234277   2.163   4.689  13.616 -0.9527  0.5714  0.7185
 4288TIP3   OH234278   1.738   3.367  14.592  0.5147 -0.0502 -0.5291
 4288TIP3    H134279   1.744   3.325  14.505  0.8436 -0.5161 -0.2900
 4288TIP3    H234280   1.650   3.404  14.595  1.2644  2.0680 -1.9975
 4289TIP3   OH234281   4.151   0.142   4.068 -0.0960 -0.0021  0.0011
 4289TIP3    H134282   4.152   0.109   3.978 -0.3172 -1.1058  0.3801
 4289TIP3    H234283   4.071   0.105   4.106 -1.4340  2.6087 -0.0877
 4290TIP3   OH234284   6.421   6.468  12.021  0.3227 -0.1863 -0.0200
 4290TIP3    H134285   6.351   6.461  12.085  1.5066 -0.4257  1.2940
 4290TIP3    H234286   6.476   6.540  12.052  0.0060  0.8378 -1.7073
 4291TIP3   OH234287   2.903   1.853  14.724  0.3597  0.1676 -0.5401
 4291TIP3    H134288   2.811   1.867  14.747  0.7245 -0.3935  1.4855
 4291TIP3    H234289   2.901   1.822  14.634 -1.6029 -1.4874 -0.0090
 4292TIP3   OH234290   6.124   3.420  14.315  0.1250  0.9302 -0.3099
 4292TIP3    H134291   6.031   3.410  14.334 -0.0205  0.3748 -1.2298
 4292TIP3    H234292   6.162   3.334  14.335  0.4966  1.2429  0.3483
 4293TIP3   OH234293   1.229   1.420   5.576  0.8513  0.1114 -0.5949
 4293TIP3    H134294   1.199   1.372   5.654  0.7195 -1.3012 -1.4893
 4293TIP3    H234295   1.203   1.511   5.593 -2.0023 -0.6545 -0.3240
 4294TIP3   OH234296   4.927   2.524   4.199  0.2207 -0.0239 -0.5118
 4294TIP3    H134297   4.973   2.603   4.226  1.2987 -0.4311 -1.1303
 4294TIP3    H234298   4.895   2.543   4.111 -0.1639 -0.0137 -0.3733
 4295TIP3   OH234299   4.396   0.896   4.842  0.3619 -1.1220  0.3193
 4295TIP3    H134300   4.389   0.923   4.751 -0.4478  0.3695  0.7840
 4295TIP3    H234301   4.402   0.978   4.891  0.6004 -1.8871  1.6175
 4296TIP3   OH234302   2.839   5.523   3.308 -0.0870  0.2512 -0.2779
 4296TIP3    H134303   2.926   5.557   3.328 -0.2633 -0.0774  1.2354
 4296TIP3    H234304   2.841   5.433   3.343 -1.1482  0.3878  0.1651
 4297TIP3   OH234305   2.550   2.583  10.628 -0.2215 -0.2362  0.0702
 4297TIP3    H134306   2.617   2.644  10.599 -0.8565  0.7512  0.6353
 4297TIP3    H234307   2.550   2.591  10.723 -1.5569  0.2288  0.0458
 4298TIP3   OH234308   6.053   6.521  12.434  0.1538  0.1802  0.8225
 4298TIP3    H134309   5.968   6.496  12.399  0.4224  0.9449 -0.4528
 4298TIP3    H234310   6.039   6.530  12.528 -0.8321 -1.0316  0.8134
 4299TIP3   OH234311   6.055   0.888   3.813 -0.3386  0.1589  0.1259
 4299TIP3    H134312   6.001   0.967   3.816 -0.8429 -0.1870  0.2527
 4299TIP3    H234313   6.024   0.835   3.886 -0.2250 -0.3022 -0.1570
 4300TIP3   OH234314   5.288   1.804   2.162 -0.8092 -0.1351 -0.2760
 4300TIP3    H134315   5.319   1.889   2.192  0.5478  0.0950 -2.1734
 4300TIP3    H234316   5.196   1.801   2.188 -0.8546  1.8546 -0.0720
 4301TIP3   OH234317   4.089   0.108   0.614  0.0582  0.2647 -0.1794
 4301TIP3    H134318   4.026   0.164   0.570  1.6879  2.5325  0.1477
 4301TIP3    H234319   4.166   0.164   0.627  1.7756 -2.0358  0.3350
 4302TIP3   OH234320   0.211   2.736   3.980 -1.3303 -0.2106 -0.7628
 4302TIP3    H134321   0.156   2.726   4.058 -2.2061  1.5631 -1.0948
 4302TIP3    H234322   0.253   2.651   3.969  1.5746  0.2904  3.6665
 4303TIP3   OH234323   4.997   6.778   3.372  0.3687 -1.1774  0.4624
 4303TIP3    H134324   4.923   6.809   3.425  0.7636 -0.5419  0.6492
 4303TIP3    H234325   4.968   6.693   3.339 -0.8881 -0.4397 -0.3906
 4304TIP3   OH234326   4.785   0.438  12.121 -0.1578  0.5638 -0.0147
 4304TIP3    H134327   4.824   0.456  12.036 -0.3797 -1.0231 -0.4938
 4304TIP3    H234328   4.756   0.347  12.115 -1.9865  1.0200  1.0685
 4305TIP3   OH234329   3.938   5.748  13.614  0.4958 -0.1036 -0.5861
 4305TIP3    H134330   3.921   5.794  13.697 -0.1514  0.5410 -1.0586
 4305TIP3    H234331   3.996   5.807  13.566  1.4138 -0.7835 -0.3343
 4306TIP3   OH234332   4.811   1.300  13.062 -0.3546  0.5788 -0.6404
 4306TIP3    H134333   4.885   1.286  13.003  2.3309  2.6446  1.8969
 4306TIP3    H234334   4.822   1.236  13.132 -0.2689  1.5879  0.3097
 4307TIP3   OH234335   6.042   0.553  14.413 -0.1245  0.0951 -0.4728
 4307TIP3    H134336   6.114   0.580  14.357  1.3400 -1.6795  0.4427
 4307TIP3    H234337   6.024   0.629  14.468  0.9030  0.6521 -0.8944
 4308TIP3   OH234338   0.134   3.142   1.069 -0.3237 -0.3394  0.5384
 4308TIP3    H134339   0.108   3.183   0.986  0.0117 -1.5851 -0.2044
 4308TIP3    H234340   0.230   3.146   1.069 -0.3419  0.3317  1.2343
 4309TIP3   OH234341   1.512   2.375   3.140  0.3140  0.7152  0.2113
 4309TIP3    H134342   1.567   2.327   3.078 -1.0211 -0.2156 -0.2849
 4309TIP3    H234343   1.431   2.392   3.093 -0.8430 -0.2574  1.7649
 4310TIP3   OH234344   6.760   2.301  13.766  0.0644 -0.9497 -0.8925
 4310TIP3    H134345   6.742   2.261  13.851  0.8690 -1.7717 -1.0848
 4310TIP3    H234346   6.807   2.381  13.788 -2.2363  0.3632 -0.4692
 4311TIP3   OH234347   1.962   2.744  16.166  0.4084  0.5320  0.5700
 4311TIP3    H134348   2.053   2.729  16.191  0.8761  1.9577 -0.1528
 4311TIP3    H234349   1.955   2.710  16.077  0.3318  0.7297  0.4996
 4312TIP3   OH234350   1.019   0.592   2.531  0.4785 -0.5725  0.0626
 4312TIP3    H134351   0.934   0.631   2.548  0.8293  0.6225 -0.8179
 4312TIP3    H234352   1.055   0.642   2.458  1.5774 -1.6092 -0.1463
 4313TIP3   OH234353   0.500   4.271  10.798  0.0000  0.1136  0.2885
 4313TIP3    H134354   0.408   4.297  10.785 -0.2782 -0.6695  0.6404
 4313TIP3    H234355   0.497   4.176  10.808  0.9917 -0.0621 -0.8605
 4314TIP3   OH234356   3.207   6.557  16.056 -0.0068  0.4363  0.3560
 4314TIP3    H134357   3.192   6.580  16.148 -1.3426  0.9918  0.0302
 4314TIP3    H234358   3.184   6.464  16.051  1.6299 -0.0309  0.8851
 4315TIP3   OH234359   2.766   4.958  12.436  0.2284 -0.1387 -0.2455
 4315TIP3    H134360   2.789   5.049  12.418 -0.2447  0.6365  2.4961
 4315TIP3    H234361   2.843   4.923  12.481  0.3529 -1.0662 -1.1671
 4316TIP3   OH234362   3.699   3.023  17.132  0.0162  0.3529  0.0952
 4316TIP3    H134363   3.736   2.947  17.176 -0.9953 -0.1364  0.1399
 4316TIP3    H234364   3.604   3.008  17.136 -0.1681  1.3504 -0.3741
 4317TIP3   OH234365   2.851   5.506   0.424 -0.1950  0.4284 -0.2466
 4317TIP3    H134366   2.846   5.411   0.421 -0.9049  0.3940  1.0862
 4317TIP3    H234367   2.913   5.525   0.495 -0.3215  0.9678 -0.2705
 4318TIP3   OH234368   3.193   1.137   2.624  0.3928  0.0953  0.2795
 4318TIP3    H134369   3.110   1.116   2.668  0.0943  0.2891 -0.1882
 4318TIP3    H234370   3.245   1.057   2.631  0.0196 -0.1507  0.2308
 4319TIP3   OH234371   3.698   5.290   1.201 -0.1985  0.7044 -0.0692
 4319TIP3    H134372   3.679   5.291   1.107 -0.5594  0.4915  0.0000
 4319TIP3    H234373   3.724   5.199   1.218 -2.5101  0.0872  0.4944
 4320TIP3   OH234374   1.648   2.071   4.198  0.2752 -0.2470 -0.0674
 4320TIP3    H134375   1.732   2.092   4.238 -0.7819  2.9145  0.7229
 4320TIP3    H234376   1.660   2.092   4.105  0.9158 -1.8432 -0.3865
 4321TIP3   OH234377   1.699   4.946   2.530 -0.3169 -0.4206 -0.3560
 4321TIP3    H134378   1.639   4.992   2.589  1.9080  0.6057  1.2755
 4321TIP3    H234379   1.670   4.969   2.442 -2.7443 -0.6348  0.3247
 4322TIP3   OH234380   1.487   1.291  17.071 -0.0180  0.1087 -0.0088
 4322TIP3    H134381   1.442   1.216  17.033 -0.1908  0.0818  0.2485
 4322TIP3    H234382   1.419   1.340  17.117  0.1091  0.3804 -0.1085
 4323TIP3   OH234383   0.708   3.846   2.572  0.2709 -0.1451 -0.4083
 4323TIP3    H134384   0.695   3.774   2.510 -1.1278  0.4328 -0.8244
 4323TIP3    H234385   0.640   3.834   2.638  0.7315  0.1686  0.1357
 4324TIP3   OH234386   5.746   5.632  14.672 -0.2596  0.0995 -0.5570
 4324TIP3    H134387   5.771   5.540  14.675 -1.2351 -0.1637 -0.1940
 4324TIP3    H234388   5.732   5.657  14.763  0.3490  0.7159 -0.6207
 4325TIP3   OH234389   4.534   3.825   5.131  0.2405 -0.0175 -0.0771
 4325TIP3    H134390   4.522   3.843   5.224 -0.2588 -0.3350 -0.0759
 4325TIP3    H234391   4.617   3.777   5.126 -1.0887 -2.5337  0.5496
 4326TIP3   OH234392   4.764   4.358   3.603  0.4501 -0.4508 -0.0432
 4326TIP3    H134393   4.857   4.381   3.601  0.0131  1.7241  1.2459
 4326TIP3    H234394   4.730   4.386   3.518  0.5587  0.9460  0.3516
 4327TIP3   OH234395   2.165   1.292  14.797 -0.1724  0.1850 -0.4938
 4327TIP3    H134396   2.118   1.223  14.844  2.1761 -1.5264 -0.5185
 4327TIP3    H234397   2.121   1.373  14.824 -1.3606 -1.0679  1.5919
 4328TIP3   OH234398   4.483   5.247   3.402 -0.3786  0.1080  0.1566
 4328TIP3    H134399   4.500   5.154   3.392 -1.8643 -0.0856 -0.9318
 4328TIP3    H234400   4.534   5.289   3.333  0.4326  0.1397  0.7604
 4329TIP3   OH234401   6.729   1.405   5.387  0.0165 -0.2894 -0.0747
 4329TIP3    H134402   6.824   1.417   5.380  0.4024 -2.4190  0.5805
 4329TIP3    H234403   6.706   1.446   5.470  0.2870  0.5637 -0.4128
 4330TIP3   OH234404   2.959   3.951  13.631  0.1136 -0.2748 -0.1792
 4330TIP3    H134405   3.045   3.971  13.592 -0.0098 -0.0278 -0.3248
 4330TIP3    H234406   2.899   4.011  13.588 -0.4548 -1.6879 -1.4270
 4331TIP3   OH234407   2.244   0.607  15.008 -0.0272 -0.1791  0.4688
 4331TIP3    H134408   2.331   0.643  14.992 -0.2647  0.8459  1.3760
 4331TIP3    H234409   2.261   0.524  15.052  0.5122 -1.0415 -1.2491
 4332TIP3   OH234410   2.462   4.664   5.035  0.5847 -0.8782  0.2466
 4332TIP3    H134411   2.447   4.595   5.100  1.2840 -1.6372 -0.3873
 4332TIP3    H234412   2.555   4.686   5.045  0.2143  0.5164  0.9532
 4333TIP3   OH234413   3.339   5.647   4.341  0.1743 -0.1170  0.2951
 4333TIP3    H134414   3.352   5.669   4.434  1.7769  2.3135 -0.4169
 4333TIP3    H234415   3.411   5.588   4.320 -0.0495 -0.4777  0.5388
 4334TIP3   OH234416   0.885   0.895  16.259 -0.1134  0.1910  0.1755
 4334TIP3    H134417   0.809   0.910  16.204 -0.2291 -0.0556  0.2643
 4334TIP3    H234418   0.892   0.799  16.264  0.3290  0.2129 -0.0071
 4335TIP3   OH234419   0.635   2.285  13.425 -0.8013 -0.1201  0.9172
 4335TIP3    H134420   0.613   2.234  13.346 -1.1106  1.5569 -0.1362
 4335TIP3    H234421   0.689   2.357  13.392  0.8718 -0.5449  2.5708
 4336TIP3   OH234422   6.242   6.347  16.223  0.0559  0.2709 -0.4784
 4336TIP3    H134423   6.313   6.284  16.230 -0.4583 -0.1365  1.8929
 4336TIP3    H234424   6.165   6.295  16.202 -0.1216  0.2586  0.1731
 4337TIP3   OH234425   0.339   5.517   2.090 -0.1309  0.4191  0.3990
 4337TIP3    H134426   0.337   5.451   2.158  1.0312  0.8701  0.8824
 4337TIP3    H234427   0.278   5.484   2.023  1.0211 -1.5334  0.2416
 4338TIP3   OH234428   5.894   1.176  11.203  0.1748  0.1082 -0.0516
 4338TIP3    H134429   5.964   1.173  11.267 -0.6076 -0.6706  0.7856
 4338TIP3    H234430   5.922   1.117  11.133 -0.9056 -2.6328  1.6487
 4339TIP3   OH234431   1.423   1.737   5.881 -0.5131  0.4558  0.2380
 4339TIP3    H134432   1.410   1.704   5.969 -0.1970 -0.3119  0.0036
 4339TIP3    H234433   1.517   1.751   5.874  0.1930 -3.6706 -1.3596
 4340TIP3   OH234434   4.545   0.780  13.647  0.5918  0.0540  0.1051
 4340TIP3    H134435   4.613   0.774  13.714  1.3081 -0.4636 -0.6437
 4340TIP3    H234436   4.542   0.692  13.608  0.3111  0.3829 -0.6419
 4341TIP3   OH234437   3.254   5.682   2.154  0.2691  0.4965 -0.5864
 4341TIP3    H134438   3.224   5.699   2.244 -2.4089  0.7277 -1.4316
 4341TIP3    H234439   3.209   5.747   2.101  0.5234 -0.6526 -2.2874
 4342TIP3   OH234440   6.018   2.084   1.575 -0.0309 -0.5331 -0.3858
 4342TIP3    H134441   5.932   2.088   1.617  0.5533  1.6986  0.7823
 4342TIP3    H234442   6.021   2.161   1.518  1.5254  0.0442  0.3984
 4343TIP3   OH234443   2.825   1.811  13.351 -0.5776 -0.1662 -0.5235
 4343TIP3    H134444   2.743   1.774  13.382 -0.3933 -0.6960 -0.6602
 4343TIP3    H234445   2.820   1.803  13.255  0.0370 -1.0786 -0.4894
 4344TIP3   OH234446   3.215   4.095   1.029 -0.0918  0.0266 -0.0967
 4344TIP3    H134447   3.155   4.046   1.086  0.6466  0.2986  0.9345
 4344TIP3    H234448   3.225   4.040   0.952  1.0114 -1.6662  1.1906
 4345TIP3   OH234449   3.152   3.380   4.409  0.1730  0.3143 -0.0373
 4345TIP3    H134450   3.170   3.420   4.494  2.3671  0.3930 -0.4819
 4345TIP3    H234451   3.231   3.396   4.358 -0.7288 -0.5650 -1.7789
 4346TIP3   OH234452   1.415   3.093  14.058  0.5481 -0.4108  0.4856
 4346TIP3    H134453   1.359   3.120  14.131 -0.4560  2.5984 -1.1921
 4346TIP3    H234454   1.372   3.015  14.023 -1.2227  0.3554  0.8006
 4347TIP3   OH234455   1.091   3.995   3.877 -0.0096 -0.0912  0.0227
 4347TIP3    H134456   1.070   4.070   3.821 -1.3135 -0.9101 -0.6566
 4347TIP3    H234457   1.144   4.031   3.947 -2.2265  1.8978  0.8366
 4348TIP3   OH234458   5.836   3.381  13.423  0.0046  0.5239 -0.6927
 4348TIP3    H134459   5.768   3.439  13.457  0.0689 -0.2960  0.9458
 4348TIP3    H234460   5.905   3.383  13.490 -0.1844 -1.7130 -0.3462
 4349TIP3   OH234461   5.140   3.283   4.012 -0.1347 -0.0329  0.0221
 4349TIP3    H134462   5.162   3.250   3.925  0.2522  0.2741 -0.0036
 4349TIP3    H234463   5.221   3.325   4.042 -0.6525  1.0070 -0.0058
 4350TIP3   OH234464   3.547   5.372  15.521 -0.2110 -0.4479  0.4364
 4350TIP3    H134465   3.498   5.341  15.597  1.0628  0.7930  1.8111
 4350TIP3    H234466   3.533   5.467  15.520 -1.7264 -0.5945 -2.0244
 4351TIP3   OH234467   5.564   4.668   2.882 -0.0968 -0.5445  0.1689
 4351TIP3    H134468   5.603   4.593   2.837  1.2673  1.4380 -2.2324
 4351TIP3    H234469   5.545   4.731   2.812  0.5448  2.0999  2.1925
 4352TIP3   OH234470   5.076   4.419   4.000  0.0201  0.6507 -0.3280
 4352TIP3    H134471   5.155   4.409   4.053  0.7581 -0.6725 -1.6321
 4352TIP3    H234472   5.089   4.501   3.952 -0.7745  2.0116  1.6452
 4353TIP3   OH234473   5.179   5.942   4.556 -0.8099  0.0008  0.0408
 4353TIP3    H134474   5.174   5.963   4.463 -0.2845  0.1892  0.0537
 4353TIP3    H234475   5.140   6.018   4.599 -1.2642 -0.1859 -0.0302
 4354TIP3   OH234476   0.240   5.563  10.600 -0.6284 -0.5615  0.5129
 4354TIP3    H134477   0.145   5.571  10.588 -0.3670  1.0588 -0.8469
 4354TIP3    H234478   0.261   5.475  10.568 -1.4311 -0.1992 -1.1450
 4355TIP3   OH234479   2.052   0.943  17.129  0.1814 -0.6468 -0.3502
 4355TIP3    H134480   2.079   0.895  17.208  2.3382  1.5197  0.3597
 4355TIP3    H234481   2.036   1.032  17.160 -0.9831 -0.2142 -2.0633
 4356TIP3   OH234482   3.038   4.660  11.039  0.2270 -0.5118  0.0763
 4356TIP3    H134483   2.944   4.678  11.039  0.0940 -1.1418  0.6036
 4356TIP3    H234484   3.057   4.629  10.951  0.1058  0.4067 -0.2805
 4357TIP3   OH234485   5.584   6.092  12.575  0.5289 -0.5612 -0.2217
 4357TIP3    H134486   5.545   6.090  12.662 -1.5673  2.1529 -0.9920
 4357TIP3    H234487   5.667   6.138  12.587 -0.6286  1.5392  0.1115
 4358TIP3   OH234488   0.845   2.321   2.968  0.1056 -0.5920  1.1545
 4358TIP3    H134489   0.863   2.415   2.970 -0.3907 -0.4949  1.1538
 4358TIP3    H234490   0.929   2.280   2.989  0.6179 -0.1831 -0.0071
 4359TIP3   OH234491   1.078   3.984  16.845  0.0753 -0.4201  0.0312
 4359TIP3    H134492   1.115   4.051  16.788  0.9199 -1.6095 -0.8557
 4359TIP3    H234493   1.083   4.022  16.933  2.4754 -0.1078 -0.1750
 4360TIP3   OH234494   4.950   2.290   3.594 -0.0339 -0.0240  0.5569
 4360TIP3    H134495   4.924   2.356   3.530 -1.7474 -1.0216  0.1512
 4360TIP3    H234496   4.868   2.261   3.634  0.7084 -1.4861  1.1218
 4361TIP3   OH234497   1.729   0.001   2.979  0.3122 -0.4265 -0.6769
 4361TIP3    H134498   1.806  -0.055   2.973  2.2488  2.1561 -1.4292
 4361TIP3    H234499   1.757   0.076   3.031 -2.5419 -0.5892  1.3281
 4362TIP3   OH234500   3.179   3.600  16.476 -0.0706 -0.4618 -0.1699
 4362TIP3    H134501   3.245   3.533  16.494 -0.9600 -1.1561  0.5974
 4362TIP3    H234502   3.229   3.674  16.441  0.9401 -1.4757 -0.9308
 4363TIP3   OH234503   6.295   0.260  10.976 -0.0843 -0.1731  0.0532
 4363TIP3    H134504   6.290   0.352  10.953 -0.2454 -0.2858 -0.3848
 4363TIP3    H234505   6.204   0.233  10.990  0.0718  0.1346  1.8782
 4364TIP3   OH234506   6.644   2.720  16.667  0.4254  0.2840 -0.5456
 4364TIP3    H134507   6.603   2.696  16.584 -1.3070  0.0154  0.3582
 4364TIP3    H234508   6.665   2.636  16.708 -0.4939  0.3720  0.1293
 4365TIP3   OH234509   1.069   0.154  13.246  0.1350  0.2684 -0.5282
 4365TIP3    H134510   1.074   0.224  13.182 -0.0352 -0.3944 -1.2901
 4365TIP3    H234511   1.030   0.081  13.198  0.1428 -0.2919  0.2940
 4366TIP3   OH234512   2.613   3.092   0.423 -0.4027  0.1676  0.0439
 4366TIP3    H134513   2.651   3.170   0.382  0.5288 -0.6101 -0.6243
 4366TIP3    H234514   2.523   3.089   0.389 -0.0864  0.3206 -0.8297
 4367TIP3   OH234515   3.202   5.357  10.780  0.1259  0.3145  0.4248
 4367TIP3    H134516   3.260   5.419  10.825  0.6529 -0.4559  0.8206
 4367TIP3    H234517   3.255   5.322  10.708  0.0461 -0.1549  0.5936
 4368TIP3   OH234518   4.596   6.435   2.508  0.5231  0.2400 -0.4446
 4368TIP3    H134519   4.583   6.409   2.417  2.1283  0.4317 -0.7607
 4368TIP3    H234520   4.594   6.353   2.557  1.0112 -0.0239 -0.8459
 4369TIP3   OH234521   3.799   4.361  15.416 -0.3441  0.0626 -0.2026
 4369TIP3    H134522   3.741   4.385  15.343 -0.6586 -0.5872 -0.1764
 4369TIP3    H234523   3.846   4.284  15.385  1.1669  1.0928 -0.5497
 4370TIP3   OH234524   2.819   6.470  16.482 -0.0425 -0.0732  0.6845
 4370TIP3    H134525   2.873   6.524  16.540 -0.0568  0.5698  0.1093
 4370TIP3    H234526   2.849   6.380  16.499  0.2535  0.1430  1.3655
 4371TIP3   OH234527   3.154   4.781  15.122  0.2485  0.8194  0.1399
 4371TIP3    H134528   3.133   4.865  15.162 -2.8098 -0.0115  0.6053
 4371TIP3    H234529   3.189   4.803  15.036  1.5527  2.5436  1.0483
 4372TIP3   OH234530   0.545   6.204   0.149 -0.0092  0.0923 -0.1072
 4372TIP3    H134531   0.509   6.232   0.233  1.3861  0.5594  0.3632
 4372TIP3    H234532   0.519   6.272   0.087  0.3095  0.5893  0.2937
 4373TIP3   OH234533   0.387   5.521  13.940  0.0721  0.1196 -0.6603
 4373TIP3    H134534   0.296   5.502  13.963  0.2197  2.2795  2.3202
 4373TIP3    H234535   0.438   5.459  13.992  0.3577 -0.0811 -1.1696
 4374TIP3   OH234536   3.819   4.333  16.536  0.2602  0.0635  0.2572
 4374TIP3    H134537   3.871   4.252  16.544  0.6767  0.5114  2.7284
 4374TIP3    H234538   3.858   4.378  16.461  0.8835 -1.4021 -0.3467
 4375TIP3   OH234539   4.241   3.498   3.286  0.0050 -0.9242  0.4581
 4375TIP3    H134540   4.153   3.463   3.271 -0.6929  0.6948  0.5998
 4375TIP3    H234541   4.248   3.572   3.226  1.1185 -0.7474  0.7774
 4376TIP3   OH234542   3.702   1.120  13.682  0.1206 -0.1666  0.4172
 4376TIP3    H134543   3.738   1.190  13.736  0.4129  1.0298 -1.2409
 4376TIP3    H234544   3.717   1.040  13.733  0.1514  0.9100  2.1714
 4377TIP3   OH234545   2.075   5.329  12.705 -0.1625 -0.1541  0.4565
 4377TIP3    H134546   2.007   5.301  12.766  1.7010  0.3577  2.9827
 4377TIP3    H234547   2.051   5.418  12.681 -1.5050 -0.7493 -0.5217
 4378TIP3   OH234548   2.147   6.441   4.467  0.2307  0.3540 -0.1618
 4378TIP3    H134549   2.125   6.371   4.529  0.5543  0.5301  0.1585
 4378TIP3    H234550   2.170   6.515   4.523 -0.7824  0.9410 -0.4859
 4379TIP3   OH234551   3.040   6.408   0.965 -0.2393 -0.4858 -0.4545
 4379TIP3    H134552   3.056   6.496   1.000 -1.3102 -0.2653 -0.4853
 4379TIP3    H234553   2.976   6.421   0.895 -1.5466 -1.4343  0.5043
 4380TIP3   OH234554   5.197   3.445  15.085  0.4142 -0.0444 -0.1869
 4380TIP3    H134555   5.110   3.415  15.058 -0.1282  0.0560  1.3462
 4380TIP3    H234556   5.242   3.465  15.004 -1.5013  1.3279 -0.9677
 4381TIP3   OH234557   5.054   4.756  11.961  0.1839 -0.5281 -0.4355
 4381TIP3    H134558   5.103   4.821  12.011 -0.2952 -0.6210  0.1701
 4381TIP3    H234559   5.072   4.673  12.006 -1.0995 -0.4586  0.2500
 4382TIP3   OH234560   2.408   0.376  15.535  0.6312  0.6724 -0.5477
 4382TIP3    H134561   2.316   0.402  15.546  0.2205 -0.7927 -0.2795
 4382TIP3    H234562   2.409   0.283  15.558  2.0691  0.5147 -1.1700
 4383TIP3   OH234563   3.279   5.347  15.171 -0.5480 -0.3315  0.4221
 4383TIP3    H134564   3.227   5.426  15.157 -1.0412 -0.4559  1.4577
 4383TIP3    H234565   3.273   5.331  15.266 -0.8364 -1.8553  0.1701
 4384TIP3   OH234566   1.247   3.233  14.655 -0.0993 -0.6072  0.2738
 4384TIP3    H134567   1.235   3.155  14.601  0.7757 -1.8308  1.7921
 4384TIP3    H234568   1.168   3.239  14.708  0.1115 -0.8313  0.6137
 4385TIP3   OH234569   2.891   4.695   2.818  0.0146 -0.4030  0.5317
 4385TIP3    H134570   2.813   4.746   2.839  0.6070  0.2769  1.1816
 4385TIP3    H234571   2.958   4.728   2.879  1.4731  0.6866 -1.5493
 4386TIP3   OH234572   0.553   3.146   0.562 -0.3693 -0.2208  0.2983
 4386TIP3    H134573   0.505   3.063   0.570  0.4439 -0.9421 -1.7026
 4386TIP3    H234574   0.642   3.120   0.539  0.4306  1.1751  1.6678
 4387TIP3   OH234575   3.567   4.070   5.087  0.3622  0.2245  0.4101
 4387TIP3    H134576   3.615   4.044   5.165 -0.0659  3.8847  2.1239
 4387TIP3    H234577   3.495   4.007   5.080  1.4614 -1.2647  1.8724
 4388TIP3   OH234578   6.767   4.314   1.746  0.4016  0.1562 -0.3283
 4388TIP3    H134579   6.830   4.373   1.789  1.1071  1.2551 -2.6759
 4388TIP3    H234580   6.693   4.371   1.724 -1.3724 -1.0505  2.0766
 4389TIP3   OH234581   2.348   4.346  13.322 -0.6669 -0.8109  0.0969
 4389TIP3    H134582   2.376   4.377  13.236  1.4265 -0.0123  1.0043
 4389TIP3    H234583   2.258   4.377  13.331 -0.5193  0.1060 -1.3039
 4390TIP3   OH234584   3.889   3.471  12.698 -0.1229  0.4087  0.1730
 4390TIP3    H134585   3.814   3.476  12.639 -0.0481 -0.3158  0.0081
 4390TIP3    H234586   3.900   3.561  12.730 -1.7117  0.3597  1.0123
 4391TIP3   OH234587   2.271   3.917  14.672  0.2399  0.2363  0.1563
 4391TIP3    H134588   2.238   3.966  14.747 -0.6275 -1.5542  1.0012
 4391TIP3    H234589   2.207   3.932  14.603 -0.2692 -0.0805  0.5560
 4392TIP3   OH234590   0.085   6.299   0.031  0.2125  0.4610 -0.0313
 4392TIP3    H134591   0.089   6.324   0.123  1.8359 -0.1360  0.0913
 4392TIP3    H234592   0.102   6.380  -0.017  2.0830  0.2901  0.2851
 4393TIP3   OH234593   5.240   6.619  16.831 -0.0071  0.0726 -0.4470
 4393TIP3    H134594   5.254   6.677  16.756  0.9059  0.5307  0.0608
 4393TIP3    H234595   5.274   6.669  16.905  0.9787 -1.1939 -0.0255
 4394TIP3   OH234596   6.468   6.228  13.382 -0.0790  0.5746 -0.0685
 4394TIP3    H134597   6.503   6.204  13.296 -1.2052 -0.4065 -0.2862
 4394TIP3    H234598   6.486   6.152  13.437 -0.6229  0.6118  0.1720
 4395TIP3   OH234599   0.995   5.842   1.756 -0.0512 -0.1866 -0.1750
 4395TIP3    H134600   0.933   5.793   1.703 -0.1437 -0.5046  0.2217
 4395TIP3    H234601   1.074   5.789   1.757 -0.4417 -0.7892  0.9946
 4396TIP3   OH234602   2.932   2.169  11.043 -0.2704 -0.7275  0.2091
 4396TIP3    H134603   2.984   2.088  11.042  0.2851 -0.5802 -4.3540
 4396TIP3    H234604   2.997   2.239  11.048 -0.5457 -0.5123  0.9568
 4397TIP3   OH234605   2.098   1.853  13.263  0.4410 -0.3792  0.8500
 4397TIP3    H134606   2.028   1.813  13.211  0.5663  0.9744 -0.4307
 4397TIP3    H234607   2.179   1.823  13.223  0.5385  1.2108 -0.2592
 4398TIP3   OH234608   2.544   5.376  15.249  0.0177  0.1309 -0.2646
 4398TIP3    H134609   2.581   5.388  15.162  1.2543  1.8905  0.4459
 4398TIP3    H234610   2.450   5.376  15.236  0.1832 -0.1761 -1.6395
 4399TIP3   OH234611   0.208   4.024  10.981  0.3299 -0.3973  0.1675
 4399TIP3    H134612   0.139   4.087  10.965  1.4137  0.4955 -1.2382
 4399TIP3    H234613   0.268   4.068  11.042  1.0475 -0.0803 -0.7529
 4400TIP3   OH234614   2.248   3.675   4.132 -0.3730  0.3240 -0.1144
 4400TIP3    H134615   2.280   3.741   4.194 -0.8354  2.5450 -2.1125
 4400TIP3    H234616   2.327   3.630   4.102  0.5728  2.8251 -1.7579
 4401TIP3   OH234617   6.540   0.361  16.546 -0.4534  0.3809  0.1238
 4401TIP3    H134618   6.588   0.417  16.484 -0.3848  1.6258  1.2560
 4401TIP3    H234619   6.540   0.411  16.628  0.8841 -1.9131  1.6274
 4402TIP3   OH234620   2.870   4.921   1.619  0.4249 -0.8660 -0.4266
 4402TIP3    H134621   2.780   4.908   1.589 -0.0120 -0.3457  0.5877
 4402TIP3    H234622   2.924   4.897   1.544 -0.5454 -1.4813 -0.9547
 4403TIP3   OH234623   4.481   1.362   5.414  0.2471  0.0190 -0.1091
 4403TIP3    H134624   4.534   1.426   5.462 -1.5268  0.2062  1.7266
 4403TIP3    H234625   4.511   1.277   5.446  2.0717 -0.1222 -1.9857
 4404TIP3   OH234626   5.833   0.561  16.170 -0.3353 -0.2448 -0.1416
 4404TIP3    H134627   5.873   0.647  16.186  0.2198 -0.2149 -1.6104
 4404TIP3    H234628   5.760   0.558  16.232  0.8517  0.4282  1.3807
 4405TIP3   OH234629   6.760   4.791  12.858 -0.0265  0.4957  0.1842
 4405TIP3    H134630   6.675   4.748  12.871 -0.3398  1.3513  1.0844
 4405TIP3    H234631   6.777   4.837  12.940  0.9800  0.9318 -0.2413
 4406TIP3   OH234632   4.616   5.876  13.321  0.6811  0.5288 -0.1876
 4406TIP3    H134633   4.656   5.904  13.404  1.6588 -0.6859 -0.2085
 4406TIP3    H234634   4.564   5.799  13.345  0.9916  0.1562 -0.7032
 4407TIP3   OH234635   6.050   5.796   0.056 -0.3531  0.0845 -0.1682
 4407TIP3    H134636   6.111   5.769   0.124  0.3072  1.1629 -0.3087
 4407TIP3    H234637   5.993   5.720   0.043  0.0453 -0.4276  0.9792
 4408TIP3   OH234638   1.521   2.099  13.167 -0.2213  0.5679  0.2306
 4408TIP3    H134639   1.548   2.129  13.081 -0.1928  0.8264  0.3306
 4408TIP3    H234640   1.599   2.058  13.204 -0.7676 -1.5005 -0.7158
 4409TIP3   OH234641   6.239   1.641  12.584  0.1775  0.1798  0.4877
 4409TIP3    H134642   6.155   1.684  12.603  0.3542 -0.0286  1.8843
 4409TIP3    H234643   6.302   1.688  12.638  0.9430  0.2191 -0.4160
 4410TIP3   OH234644   1.083   1.591   0.642  0.2097 -0.3019  0.2997
 4410TIP3    H134645   1.125   1.654   0.700 -0.2919 -1.5126  2.0428
 4410TIP3    H234646   1.022   1.644   0.589  1.5027  0.9793  0.0384
 4411TIP3   OH234647   3.307   4.794  11.128 -0.1654  0.2134 -0.1203
 4411TIP3    H134648   3.377   4.779  11.064  0.5040  1.1022  0.3836
 4411TIP3    H234649   3.226   4.775  11.080  0.4406 -3.2498 -0.0664
 4412TIP3   OH234650   6.471   2.944   1.858 -0.4212  0.0812 -0.0134
 4412TIP3    H134651   6.540   2.997   1.899 -0.8832 -0.5400  1.6687
 4412TIP3    H234652   6.448   2.992   1.779  3.0239 -0.4897 -1.5264
 4413TIP3   OH234653   5.587   6.324  14.174  0.3972  0.6276  0.1811
 4413TIP3    H134654   5.582   6.419  14.187  0.5244  0.9774 -1.9081
 4413TIP3    H234655   5.638   6.314  14.093 -0.8108 -1.1515 -0.4202
 4414TIP3   OH234656   4.575   6.529   3.959  0.6705 -0.6862  0.2538
 4414TIP3    H134657   4.622   6.446   3.969  2.9304  0.4101 -0.5494
 4414TIP3    H234658   4.562   6.538   3.865  2.7313  0.9476  0.0345
 4415TIP3   OH234659   5.069   0.975  15.574  0.2147 -0.2746 -0.3679
 4415TIP3    H134660   5.095   0.998  15.485  1.6537  0.5154  0.2194
 4415TIP3    H234661   5.093   1.052  15.626 -1.2626 -0.4242  0.6057
 4416TIP3   OH234662   3.813   6.759  15.791  0.2772  0.2783  0.3430
 4416TIP3    H134663   3.830   6.844  15.750 -0.9380  0.3827  0.0302
 4416TIP3    H234664   3.762   6.779  15.869 -0.4653 -0.1980 -0.0082
 4417TIP3   OH234665   0.005   2.666  11.357 -0.6259 -0.0141 -0.2041
 4417TIP3    H134666  -0.024   2.632  11.272 -0.2890 -1.3200  0.1885
 4417TIP3    H234667   0.061   2.740  11.334  0.7010 -1.2622 -1.2265
 4418TIP3   OH234668   4.860   2.379  16.682 -0.0564 -0.5605 -0.4572
 4418TIP3    H134669   4.910   2.333  16.750  0.5881  1.6993  0.7163
 4418TIP3    H234670   4.770   2.378  16.714  0.2139  0.3242  0.3618
 4419TIP3   OH234671   2.208   2.872  14.038  0.0117 -0.4388  0.2596
 4419TIP3    H134672   2.249   2.797  13.996  0.6055 -0.6409  1.1796
 4419TIP3    H234673   2.130   2.890  13.984  1.1082 -0.2514 -1.3329
 4420TIP3   OH234674   1.257   5.434   3.687  1.3401 -0.1978 -0.5021
 4420TIP3    H134675   1.337   5.487   3.691  1.5337 -0.5946  1.5933
 4420TIP3    H234676   1.186   5.497   3.702  1.5060 -0.3468  1.0094
 4421TIP3   OH234677   4.452   3.044  13.657 -0.1961  0.1783  0.5888
 4421TIP3    H134678   4.439   2.982  13.586  1.0237 -0.8117  1.1928
 4421TIP3    H234679   4.539   3.080  13.643 -0.1970  0.4456  1.2289
 4422TIP3   OH234680   1.016   3.451   1.359 -0.4129 -0.6231 -0.7652
 4422TIP3    H134681   0.920   3.450   1.364 -0.3830  0.1097  0.6338
 4422TIP3    H234682   1.044   3.431   1.449  0.7276 -0.1807 -1.0063
 4423TIP3   OH234683   4.150   1.549  10.742  0.2065  0.2981  0.0275
 4423TIP3    H134684   4.129   1.473  10.797 -1.9041  1.6890  1.2975
 4423TIP3    H234685   4.067   1.594  10.731  0.9967  1.3127 -2.5106
 4424TIP3   OH234686   2.750   1.519   5.502 -0.2752 -0.6584 -0.2033
 4424TIP3    H134687   2.832   1.496   5.545  0.6348  1.6910 -0.5829
 4424TIP3    H234688   2.744   1.457   5.429  0.9042 -1.1887  0.1225
 4425TIP3   OH234689   1.542   2.820  13.344  0.5758  0.3376 -0.9086
 4425TIP3    H134690   1.582   2.756  13.284  0.7825 -0.8828  0.4857
 4425TIP3    H234691   1.615   2.871  13.377  1.1079 -1.8734  1.6158
 4426TIP3   OH234692   0.306   6.111   1.998 -0.1465  0.0217  0.9451
 4426TIP3    H134693   0.386   6.147   2.036  0.8419 -0.6546 -0.4639
 4426TIP3    H234694   0.241   6.119   2.069  0.9672  1.1973  1.8759
 4427TIP3   OH234695   5.576   3.004   3.217  0.0753  1.0198 -0.0093
 4427TIP3    H134696   5.608   3.015   3.127 -0.0913  5.3810  0.2455
 4427TIP3    H234697   5.639   2.943   3.256  1.5147  0.7726 -2.4389
 4428TIP3   OH234698   4.125   5.140   3.771  0.5402 -0.0068 -0.7244
 4428TIP3    H134699   4.126   5.050   3.803  0.3582  0.4365  0.5927
 4428TIP3    H234700   4.148   5.133   3.679  1.4264 -1.3212 -0.4352
 4429TIP3   OH234701   3.482   3.181   0.087 -0.3639 -0.1138 -0.2952
 4429TIP3    H134702   3.476   3.236   0.009 -2.1215  0.2896  0.0880
 4429TIP3    H234703   3.574   3.155   0.091  0.6352  2.9758 -0.3802
 4430TIP3   OH234704   3.803   1.753   0.576  0.7268 -0.3279 -0.3456
 4430TIP3    H134705   3.880   1.698   0.583 -0.1011 -1.7683 -1.9011
 4430TIP3    H234706   3.829   1.823   0.516  1.2175 -0.0263  0.2052
 4431TIP3   OH234707   6.141   4.587   3.255 -0.6857  0.3381  0.1243
 4431TIP3    H134708   6.151   4.501   3.213  1.8501  0.9204 -0.6184
 4431TIP3    H234709   6.052   4.614   3.233 -0.1366 -0.2381 -3.3720
 4432TIP3   OH234710   6.270   5.615  15.478  0.4872 -0.2568 -0.1071
 4432TIP3    H134711   6.231   5.529  15.466 -1.4869  0.5390  0.2258
 4432TIP3    H234712   6.347   5.599  15.532  0.8045 -1.9249 -0.9839
 4433TIP3   OH234713   0.369   1.459   5.551  0.3785  0.1926  0.6529
 4433TIP3    H134714   0.451   1.474   5.503  1.1496 -2.4858  0.9439
 4433TIP3    H234715   0.302   1.453   5.483  1.1129 -1.4836  0.0357
 4434TIP3   OH234716   2.346   2.247   6.322  0.1129  0.5247  0.6300
 4434TIP3    H134717   2.351   2.239   6.418  2.3039 -1.3422  0.4575
 4434TIP3    H234718   2.268   2.198   6.298 -0.0551  0.3907  1.4175
 4435TIP3   OH234719   5.053   5.538   2.072 -0.1376  0.1024 -0.6628
 4435TIP3    H134720   5.012   5.469   2.020  1.4398 -1.6735  0.3302
 4435TIP3    H234721   5.005   5.618   2.049 -2.8249 -1.5048 -0.9750
 4436TIP3   OH234722   0.784   4.691  13.842 -0.1058  0.3087  0.9391
 4436TIP3    H134723   0.843   4.626  13.879 -0.2689 -0.7568 -0.6112
 4436TIP3    H234724   0.765   4.749  13.916  3.0603  0.8908  1.4506
 4437TIP3   OH234725   2.898   2.070  16.099 -0.2184  0.4330 -0.2991
 4437TIP3    H134726   2.880   1.976  16.095 -0.8520  0.5034  0.5663
 4437TIP3    H234727   2.981   2.077  16.146 -0.7109  0.3357  0.6195
 4438TIP3   OH234728   0.748   3.019  12.662  0.4611 -0.2229  0.9820
 4438TIP3    H134729   0.784   3.063  12.585  0.6298 -0.5192  0.8877
 4438TIP3    H234730   0.692   2.950  12.626 -0.9110  0.7723  1.1190
 4439TIP3   OH234731   1.062   1.581  11.521  0.0025  0.4574 -0.5799
 4439TIP3    H134732   1.096   1.585  11.432  2.6841 -1.8443  0.1817
 4439TIP3    H234733   1.124   1.631  11.574  0.1095 -0.6001  0.3490
 4440TIP3   OH234734   4.628   0.684  11.425 -0.4757  0.2628  0.3553
 4440TIP3    H134735   4.618   0.779  11.417 -1.4507  0.2645  1.3257
 4440TIP3    H234736   4.672   0.658  11.344 -1.2822  1.3807 -0.4860
 4441TIP3   OH234737   4.030   5.435   1.584 -0.6092 -0.1107 -0.2499
 4441TIP3    H134738   3.975   5.497   1.631 -0.3931 -0.4042  0.4024
 4441TIP3    H234739   4.119   5.454   1.615 -0.5030 -0.5081 -0.3042
 4442TIP3   OH234740   3.745   4.678   2.462  0.2809  0.5817 -0.1583
 4442TIP3    H134741   3.723   4.594   2.503  2.3577 -0.0324 -0.1894
 4442TIP3    H234742   3.720   4.744   2.526 -1.2428 -0.0446 -0.0713
 4443TIP3   OH234743   0.443   6.696   1.035  0.3870  0.6919 -0.0190
 4443TIP3    H134744   0.421   6.782   1.070 -1.3968  0.2658 -0.0119
 4443TIP3    H234745   0.526   6.709   0.989  1.1895  1.9422  1.6895
 4444TIP3   OH234746   1.069   2.802   6.869 -0.0478  0.3643  0.2474
 4444TIP3    H134747   1.005   2.750   6.919  0.1859 -0.7871 -0.5982
 4444TIP3    H234748   1.026   2.886   6.854 -0.8898  0.0248  0.7056
 4445TIP3   OH234749   5.588   2.327  15.562 -0.2805  0.4619  0.2139
 4445TIP3    H134750   5.529   2.298  15.493  1.2823  0.3037 -1.1141
 4445TIP3    H234751   5.584   2.258  15.629 -1.5534  0.4519  0.1402
 4446TIP3   OH234752   2.299   4.060  16.318  0.4446  0.3373  0.0108
 4446TIP3    H134753   2.337   3.984  16.273  0.0376 -0.8649  1.5920
 4446TIP3    H234754   2.323   4.135  16.263  0.4410 -0.9644 -1.8843
 4447TIP3   OH234755   0.705   1.564  13.559  0.2471 -0.3565  0.2222
 4447TIP3    H134756   0.657   1.566  13.642 -0.1165 -0.2500  0.0136
 4447TIP3    H234757   0.693   1.652  13.523  0.8458 -0.2400  0.3025
 4448TIP3   OH234758   4.179   5.040   2.122 -0.1903  0.3220 -0.2485
 4448TIP3    H134759   4.117   5.113   2.120  1.5653  2.0409  2.2392
 4448TIP3    H234760   4.148   4.984   2.193 -0.6021 -0.5585 -1.0853
 4449TIP3   OH234761   4.711   6.640   2.363  0.2839  0.0305 -0.2755
 4449TIP3    H134762   4.706   6.570   2.428 -0.8552  1.9665  1.8733
 4449TIP3    H234763   4.629   6.632   2.313  0.5256 -0.6367 -0.5678
 4450TIP3   OH234764   4.120   1.328  13.916  0.1820 -0.8460 -0.4193
 4450TIP3    H134765   4.110   1.422  13.930 -0.5936 -0.9778 -0.0422
 4450TIP3    H234766   4.207   1.308  13.950  0.2565 -0.3035 -0.2787
 4451TIP3   OH234767   4.072   2.622   1.714 -0.0041  0.3660  0.0670
 4451TIP3    H134768   4.044   2.625   1.806 -0.1253  0.0118  0.0421
 4451TIP3    H234769   3.991   2.611   1.665  0.1990 -1.2095  0.0248
 4452TIP3   OH234770   4.807   5.353  14.305  0.8717  0.3164 -0.3974
 4452TIP3    H134771   4.900   5.350  14.279  0.7916  0.1128 -0.6702
 4452TIP3    H234772   4.792   5.269  14.349  0.1232 -0.9185 -2.8173
 4453TIP3   OH234773   4.230   2.685   2.154 -0.2278 -0.8633  0.4019
 4453TIP3    H134774   4.281   2.716   2.079 -1.0838  0.1783  0.2337
 4453TIP3    H234775   4.281   2.611   2.188  2.5413  1.3712  1.5326
 4454TIP3   OH234776   5.256   2.709   4.139  0.0831 -0.3814 -0.2547
 4454TIP3    H134777   5.237   2.659   4.060  1.7200  0.5674 -1.3256
 4454TIP3    H234778   5.334   2.667   4.176  0.9997  0.8269 -0.7276
 4455TIP3   OH234779   3.253   1.710  11.185  0.0961 -0.2328 -0.3509
 4455TIP3    H134780   3.210   1.788  11.150 -0.7850 -0.1032  0.9254
 4455TIP3    H234781   3.299   1.672  11.111 -0.8683  0.5568 -1.3868
 4456TIP3   OH234782   2.882   5.235  12.451 -0.5401  0.3638 -0.7256
 4456TIP3    H134783   2.946   5.270  12.513 -0.9195  0.4555 -0.3820
 4456TIP3    H234784   2.935   5.207  12.376  0.0724 -0.8509  0.1159
 4457TIP3   OH234785   0.525   0.809   1.956  0.0236  0.2168  0.2779
 4457TIP3    H134786   0.539   0.749   1.883 -0.4466 -1.6176  1.6453
 4457TIP3    H234787   0.606   0.860   1.960  0.1919  0.1290 -1.2928
 4458TIP3   OH234788   2.775   1.969   4.240 -0.4952 -0.3289 -0.1920
 4458TIP3    H134789   2.839   1.902   4.214 -1.0460 -0.9095 -0.0767
 4458TIP3    H234790   2.737   1.936   4.322 -0.4009  0.3835  0.1484
 4459TIP3   OH234791   2.845   6.294  13.907  0.2101 -0.0963  0.1985
 4459TIP3    H134792   2.856   6.200  13.924  2.4101  0.0121 -0.2461
 4459TIP3    H234793   2.787   6.324  13.976  2.0774 -1.2329  2.4289
 4460TIP3   OH234794   2.831   4.578   6.100  0.7172 -0.2195  0.1533
 4460TIP3    H134795   2.900   4.555   6.161  1.3070 -2.0822 -1.1292
 4460TIP3    H234796   2.870   4.646   6.045  0.5697  0.6451  1.0811
 4461TIP3   OH234797   5.701   4.980  11.847  0.0516  0.3263 -0.2674
 4461TIP3    H134798   5.665   5.053  11.797  0.2928  0.9132  0.3971
 4461TIP3    H234799   5.783   5.013  11.882  0.6370 -0.5847 -0.7389
 4462TIP3   OH234800   5.171   4.278   3.408 -0.1093 -0.1858  0.1822
 4462TIP3    H134801   5.167   4.212   3.339 -0.2795  0.5474 -0.5337
 4462TIP3    H234802   5.243   4.251   3.464 -0.2124 -0.9994 -0.0734
 4463TIP3   OH234803   3.959   0.002  11.557 -0.2008 -0.5088 -0.0596
 4463TIP3    H134804   3.919   0.020  11.472 -2.7219  0.0213  1.1624
 4463TIP3    H234805   4.052   0.018  11.543 -0.6657  0.5256 -2.4598
 4464TIP3   OH234806   3.111   1.255   4.900  0.4808  0.2620  0.4602
 4464TIP3    H134807   3.206   1.250   4.890  0.5408  1.0774  0.6099
 4464TIP3    H234808   3.097   1.261   4.995  0.2735  0.0896  0.4429
 4465TIP3   OH234809   3.294   1.400   0.677 -0.7293  0.0126  0.2902
 4465TIP3    H134810   3.365   1.457   0.648  1.7598 -2.1880  1.6348
 4465TIP3    H234811   3.251   1.371   0.596  1.3726 -0.3200 -0.7762
 4466TIP3   OH234812   0.363   5.266  15.329  0.1546  0.3691 -0.6824
 4466TIP3    H134813   0.322   5.289  15.246 -0.3067 -2.2905 -1.2615
 4466TIP3    H234814   0.334   5.335  15.389 -2.2397  0.5490 -1.9219
 4467TIP3   OH234815   6.167   0.123   3.968 -0.0051 -0.2108  0.2791
 4467TIP3    H134816   6.084   0.084   3.995 -0.2324 -1.7709 -2.2999
 4467TIP3    H234817   6.232   0.053   3.979  0.2820 -0.1656 -0.9271
 4468TIP3   OH234818   2.612   4.832   4.698 -0.0094  0.4605 -0.7977
 4468TIP3    H134819   2.564   4.750   4.711 -1.5409  1.5341  0.6552
 4468TIP3    H234820   2.592   4.857   4.608  1.1129 -1.1036 -1.5340
 4469TIP3   OH234821   4.829   1.478  16.946 -0.0129  0.1470  0.3691
 4469TIP3    H134822   4.735   1.478  16.931 -0.3524 -0.6986  2.1901
 4469TIP3    H234823   4.851   1.570  16.963 -1.0511  0.0541  2.6148
 4470TIP3   OH234824   3.573   2.815  12.222  0.1667  0.5237 -0.0533
 4470TIP3    H134825   3.518   2.771  12.287  0.9367  0.5046  0.6052
 4470TIP3    H234826   3.597   2.745  12.160 -1.3400  0.7399 -0.9164
 4471TIP3   OH234827   5.027   4.988   6.347 -0.0895 -0.5523  0.3537
 4471TIP3    H134828   5.053   5.072   6.384 -1.9906  0.1056  0.3134
 4471TIP3    H234829   4.974   4.947   6.415 -1.3038 -0.5590 -0.5541
 4472TIP3   OH234830   4.252   3.510   0.140  0.3914  0.7014  0.0485
 4472TIP3    H134831   4.270   3.542   0.052  1.0488  3.2682  1.0176
 4472TIP3    H234832   4.322   3.548   0.194 -1.7254  1.9349  2.1603
 4473TIP3   OH234833   4.351   0.599  13.001  0.3446  0.0909  0.0166
 4473TIP3    H134834   4.399   0.554  12.931  1.1267 -1.5414  1.5394
 4473TIP3    H234835   4.410   0.666  13.032  1.7160 -1.8419  1.8121
 4474TIP3   OH234836   0.219   4.547  14.147  0.2314 -0.2840  0.3816
 4474TIP3    H134837   0.276   4.483  14.189  2.2799  1.4061  0.3598
 4474TIP3    H234838   0.245   4.631  14.185 -0.9232  0.7686 -1.0444
 4475TIP3   OH234839   2.454   1.253  11.314  0.4723  0.1630 -0.2552
 4475TIP3    H134840   2.364   1.272  11.341  0.1895 -0.4499 -0.7354
 4475TIP3    H234841   2.444   1.200  11.235  1.2121 -1.2151  0.5298
 4476TIP3   OH234842   6.755   5.346   3.762  0.0579 -0.5384  0.1163
 4476TIP3    H134843   6.850   5.350   3.777  0.2478 -2.3845 -0.3884
 4476TIP3    H234844   6.720   5.417   3.816  1.5060 -1.4109  2.3676
 4477TIP3   OH234845   0.834   0.613  16.216 -0.0129 -0.1835  0.3227
 4477TIP3    H134846   0.861   0.553  16.285  0.1454 -0.1524  0.2891
 4477TIP3    H234847   0.796   0.557  16.148 -3.0533 -0.0215  1.7062
 4478TIP3   OH234848   6.679   0.896  13.833 -0.0137  0.6455  0.0372
 4478TIP3    H134849   6.732   0.888  13.754  0.4991 -0.8652  0.4970
 4478TIP3    H234850   6.618   0.824  13.829  0.3342  0.2578  1.2326
 4479TIP3   OH234851   1.888   1.776   1.447  0.2498  0.1554  0.0701
 4479TIP3    H134852   1.842   1.694   1.467 -0.3560  0.9710  2.2946
 4479TIP3    H234853   1.881   1.784   1.352  0.4755 -2.4317 -0.2522
 4480TIP3   OH234854   6.637   6.516  15.777  0.1950 -0.2198  0.2434
 4480TIP3    H134855   6.731   6.509  15.793  0.6618 -3.3826 -2.6485
 4480TIP3    H234856   6.597   6.511  15.863  2.6434 -0.8485  1.4374
 4481TIP3   OH234857   6.461   3.897  13.462  0.0589  0.0352 -0.2302
 4481TIP3    H134858   6.521   3.937  13.525 -1.0569  0.9243  0.3095
 4481TIP3    H234859   6.420   3.972  13.418 -0.4010 -0.5564 -0.8312
 4482TIP3   OH234860   1.589   0.390   6.059 -0.1029 -0.5587 -0.8729
 4482TIP3    H134861   1.637   0.410   6.139  1.8322 -1.0479 -1.8409
 4482TIP3    H234862   1.657   0.384   5.992 -1.3785 -2.7377 -2.0678
 4483TIP3   OH234863   4.507   6.145   0.761  0.6024 -0.7830  0.1701
 4483TIP3    H134864   4.495   6.224   0.708  0.7650 -0.6725  0.2938
 4483TIP3    H234865   4.442   6.153   0.830 -0.5219 -1.5863 -0.7604
 4484TIP3   OH234866   3.372   0.607  13.687  0.6591 -0.5460 -0.5616
 4484TIP3    H134867   3.296   0.603  13.629  0.8500 -0.7043 -0.7993
 4484TIP3    H234868   3.417   0.524  13.674  0.2164 -0.9678  0.4795
 4485TIP3   OH234869   3.062   4.838   4.847  0.1387 -0.5797  0.3340
 4485TIP3    H134870   3.134   4.898   4.829 -1.2477  1.3075  0.7699
 4485TIP3    H234871   3.069   4.819   4.941  0.2849 -0.6891  0.3006
 4486TIP3   OH234872   5.144   6.180   0.585  0.2733 -0.2750 -0.3904
 4486TIP3    H134873   5.101   6.235   0.652  2.1251  0.7907 -0.0021
 4486TIP3    H234874   5.197   6.119   0.635 -0.2567 -1.1416 -0.8714
 4487TIP3   OH234875   6.649   5.057  14.847  0.2196  0.5177  0.1481
 4487TIP3    H134876   6.674   5.039  14.938  2.6663  2.6659  0.0140
 4487TIP3    H234877   6.563   5.098  14.854  1.2288  2.5742  1.7809
 4488TIP3   OH234878   0.495   5.707   2.993  0.5175  0.3478  0.1150
 4488TIP3    H134879   0.546   5.685   3.071 -0.7486  0.9442  1.1370
 4488TIP3    H234880   0.558   5.700   2.921  1.5169 -0.9700  1.0798
 4489TIP3   OH234881   0.071   4.143   1.545 -0.2698  0.2051 -0.0710
 4489TIP3    H134882   0.066   4.057   1.585  0.7854  0.1181 -0.1031
 4489TIP3    H234883   0.050   4.204   1.616 -1.7636 -0.0886 -0.2266
 4490TIP3   OH234884   6.424   5.901  14.259  0.7215  0.4569  0.0306
 4490TIP3    H134885   6.418   5.996  14.264 -1.1365  0.3253  1.1727
 4490TIP3    H234886   6.333   5.871  14.267  1.4398 -1.4792  1.6901
 4491TIP3   OH234887   0.428   3.304   5.223 -0.4711 -0.2338 -0.3140
 4491TIP3    H134888   0.490   3.261   5.283 -1.1139  0.2482  0.7223
 4491TIP3    H234889   0.464   3.288   5.136  0.4455 -1.0280  0.1907
 4492TIP3   OH234890   1.661   5.745  13.938 -0.3887  0.0144 -0.3131
 4492TIP3    H134891   1.640   5.675  13.999 -0.4082  0.7528  0.5543
 4492TIP3    H234892   1.751   5.727  13.911 -0.9033 -1.1988 -1.3180
 4493TIP3   OH234893   4.225   3.283  16.058 -0.0976  0.3496  0.6259
 4493TIP3    H134894   4.178   3.287  15.975 -1.4147  0.5004  1.3581
 4493TIP3    H234895   4.157   3.287  16.125  0.9697  0.9023  1.7278
 4494TIP3   OH234896   4.727   3.086  13.613 -0.1116 -0.2371  0.0520
 4494TIP3    H134897   4.792   3.155  13.605 -0.3970  0.4221  2.5641
 4494TIP3    H234898   4.768   3.009  13.573  0.5337  1.1265 -2.0302
 4495TIP3   OH234899   6.031   0.265  16.174  0.0406 -1.0964 -0.1024
 4495TIP3    H134900   6.066   0.211  16.103  0.2962 -0.3800 -0.5307
 4495TIP3    H234901   5.936   0.258  16.164  0.0570 -0.0859 -1.2517
 4496TIP3   OH234902   0.304   5.828  15.737  0.2427 -0.1495 -0.0224
 4496TIP3    H134903   0.247   5.887  15.688 -0.8268 -1.5387 -0.5102
 4496TIP3    H234904   0.281   5.844  15.829  0.3888  0.5898 -0.1065
 4497TIP3   OH234905   0.006   3.897   3.299  0.3142  0.0222  0.7387
 4497TIP3    H134906  -0.053   3.891   3.374 -0.2295  0.7774  0.3864
 4497TIP3    H234907  -0.041   3.851   3.229  0.3021  0.3240  0.5494
 4498TIP3   OH234908   3.512   3.268  13.278  0.2877  1.1291 -0.5597
 4498TIP3    H134909   3.604   3.292  13.287  0.6508  0.0529 -1.1526
 4498TIP3    H234910   3.466   3.323  13.341  1.4056  1.3101  0.1227
 4499TIP3   OH234911   2.679   2.110   1.482 -0.0240 -0.3687  0.0311
 4499TIP3    H134912   2.754   2.052   1.469  1.0165  0.7181  0.9544
 4499TIP3    H234913   2.606   2.065   1.440  0.7357 -2.3689  0.7563
 4500TIP3   OH234914   0.367   5.327   5.579  0.5361 -0.0208 -0.3421
 4500TIP3    H134915   0.318   5.309   5.660  0.6143 -1.3577 -0.5641
 4500TIP3    H234916   0.426   5.252   5.570  0.9870  0.4362 -1.2986
 4501TIP3   OH234917   4.684   1.568  14.391 -0.0813 -0.1667  0.1185
 4501TIP3    H134918   4.721   1.509  14.457 -0.7773 -0.2796  0.4239
 4501TIP3    H234919   4.628   1.511  14.337 -0.0140  0.0429 -0.1720
 4502TIP3   OH234920   0.232   2.125  14.043  0.1466  0.3040  0.4210
 4502TIP3    H134921   0.148   2.080  14.054  1.1207 -1.2397  1.9014
 4502TIP3    H234922   0.276   2.077  13.972  0.9901 -0.8726  1.6851
 4503TIP3   OH234923   5.625   3.683  15.158  0.7571 -0.2544  0.2866
 4503TIP3    H134924   5.601   3.630  15.234 -0.7756 -0.4233 -0.2747
 4503TIP3    H234925   5.544   3.729  15.135  1.7648  1.5144  0.0944
 4504TIP3   OH234926   5.627   6.403  16.766  0.1213 -0.2571 -0.0688
 4504TIP3    H134927   5.552   6.426  16.821  0.7512  1.3072  0.1734
 4504TIP3    H234928   5.598   6.421  16.676  0.4526  1.1274  0.0839
 4505TIP3   OH234929   6.079   2.574   3.294 -0.3828 -0.1976 -0.8313
 4505TIP3    H134930   6.162   2.590   3.250  0.5921 -1.1802  0.5614
 4505TIP3    H234931   6.073   2.479   3.301 -1.0694 -0.1020  0.0986
 4506TIP3   OH234932   0.915   3.711   0.999  0.1385  0.4047 -0.0503
 4506TIP3    H134933   0.840   3.703   1.058  0.2739  1.2207  0.2401
 4506TIP3    H234934   0.903   3.797   0.957  0.9311  0.5540  0.0232
 4507TIP3   OH234935   4.894   3.545  12.617 -0.6127  0.2199  0.3347
 4507TIP3    H134936   4.948   3.599  12.675 -1.1732 -0.3234  1.3805
 4507TIP3    H234937   4.807   3.547  12.656 -0.9172 -0.4591 -0.2889
 4508TIP3   OH234938   5.459   1.369   1.469  0.1501 -0.3792 -0.1886
 4508TIP3    H134939   5.373   1.332   1.447  0.1515 -0.5837  0.1360
 4508TIP3    H234940   5.503   1.298   1.516 -0.4676  0.5523  1.9562
 4509TIP3   OH234941   2.186   2.628   5.173  0.5678 -0.0683  0.2994
 4509TIP3    H134942   2.131   2.693   5.216  0.1204 -0.7861  0.8459
 4509TIP3    H234943   2.140   2.608   5.091  1.1968  0.9806 -0.3293
 4510TIP3   OH234944   1.146   2.781   1.252  0.3466 -0.0623 -0.5923
 4510TIP3    H134945   1.117   2.857   1.301 -1.4143 -1.6672  1.0250
 4510TIP3    H234946   1.098   2.786   1.169  0.5091  0.7560 -0.6421
 4511TIP3   OH234947   0.644   2.012   3.493  0.3085 -0.2018 -0.2164
 4511TIP3    H134948   0.575   2.075   3.515  0.2949 -0.4229  0.3658
 4511TIP3    H234949   0.614   1.973   3.410 -0.4384 -0.5395  0.1981
 4512TIP3   OH234950   4.906   1.086   3.163  0.1837 -0.3617 -0.1658
 4512TIP3    H134951   4.847   1.077   3.089 -0.6051 -0.1270  0.4250
 4512TIP3    H234952   4.986   1.040   3.136  1.3992  2.8519 -2.7021
 4513TIP3   OH234953   5.155   2.597  14.832  0.3202  0.2185 -0.0007
 4513TIP3    H134954   5.220   2.535  14.799  0.8545  0.5858  0.3473
 4513TIP3    H234955   5.072   2.551  14.822  0.6745 -0.4360 -0.0278
 4514TIP3   OH234956   5.224   6.710   0.944 -0.0729 -0.5705  0.1244
 4514TIP3    H134957   5.309   6.678   0.912 -0.4460 -0.6510 -0.8184
 4514TIP3    H234958   5.245   6.792   0.989  0.6639 -1.2429  1.0388
 4515TIP3   OH234959   0.515   3.133   4.725 -0.1401 -1.1203  0.3604
 4515TIP3    H134960   0.554   3.107   4.641 -0.4338 -1.3470  0.2923
 4515TIP3    H234961   0.421   3.123   4.712 -0.2580 -0.1252  0.3740
 4516TIP3   OH234962   5.389   6.003   1.653 -0.1381 -0.3446  0.3746
 4516TIP3    H134963   5.391   5.910   1.627  1.1738 -0.5354  1.0858
 4516TIP3    H234964   5.316   6.009   1.714 -0.6272 -0.7712 -0.1545
 4517TIP3   OH234965   2.535   2.722   2.117  0.5656  0.1085 -0.7201
 4517TIP3    H134966   2.596   2.675   2.174  0.4030  0.4626 -0.2511
 4517TIP3    H234967   2.553   2.815   2.134  0.1296  0.2150 -0.8277
 4518TIP3   OH234968   6.033   0.440   0.784  0.2133 -0.0470 -0.5487
 4518TIP3    H134969   6.113   0.467   0.829 -0.1869  0.4957 -0.1473
 4518TIP3    H234970   5.968   0.433   0.854 -0.1247 -0.3557 -0.8889
 4519TIP3   OH234971   4.176   4.409  13.218  0.7645  0.4523 -1.2261
 4519TIP3    H134972   4.082   4.393  13.220  0.9247 -0.5083 -0.4921
 4519TIP3    H234973   4.203   4.377  13.131  0.8270 -2.0423 -0.3764
 4520TIP3   OH234974   5.668   6.483  12.760  0.4600  0.3907  0.2122
 4520TIP3    H134975   5.689   6.429  12.837 -1.7162 -1.0674 -0.1081
 4520TIP3    H234976   5.572   6.482  12.756  0.4789  1.4074 -1.8533
 4521TIP3   OH234977   5.292   4.667  12.211  0.0841  0.3789  0.0307
 4521TIP3    H134978   5.247   4.651  12.294  0.2718 -0.8864 -0.0902
 4521TIP3    H234979   5.261   4.598  12.153  1.8988 -0.3222 -0.1671
 4522TIP3   OH234980   2.644   6.640   6.010  0.5127  0.6322  0.3909
 4522TIP3    H134981   2.553   6.620   5.987  0.7740  1.2147 -1.2375
 4522TIP3    H234982   2.659   6.588   6.090 -0.6728 -0.9425 -0.3329
 4523TIP3   OH234983   4.499   1.197   0.315  0.0718  0.1660 -0.2106
 4523TIP3    H134984   4.441   1.235   0.381 -0.8437  1.0574 -1.4704
 4523TIP3    H234985   4.453   1.119   0.284  0.8016 -0.6186  0.6324
 4524TIP3   OH234986   3.689   5.857  11.336  0.1914  0.1327  0.5538
 4524TIP3    H134987   3.697   5.764  11.316 -0.0440  0.4021 -0.9488
 4524TIP3    H234988   3.774   5.894  11.312 -0.4997  0.6646 -1.2182
 4525TIP3   OH234989   2.222   0.343  15.078  0.3140 -0.0007 -0.1186
 4525TIP3    H134990   2.250   0.252  15.086  0.1479  0.1058  2.1969
 4525TIP3    H234991   2.139   0.339  15.030  0.2005 -1.0986  0.1542
 4526TIP3   OH234992   1.727   3.153  17.119  0.0773 -0.7212  0.0944
 4526TIP3    H134993   1.806   3.107  17.148  2.0341  0.3967 -2.9984
 4526TIP3    H234994   1.733   3.239  17.159 -0.0481 -0.8983  0.5054
 4527TIP3   OH234995   0.323   2.299   4.235  0.0001 -0.5356 -0.1258
 4527TIP3    H134996   0.385   2.293   4.308  0.6167 -1.7981 -0.7135
 4527TIP3    H234997   0.237   2.306   4.276  0.4149 -0.1407  0.7044
 4528TIP3   OH234998   4.899   0.834   4.225  0.7047 -0.0322  0.4411
 4528TIP3    H134999   4.982   0.868   4.191  1.9456 -1.8663  1.5033
 4528TIP3    H235000   4.877   0.893   4.297  0.6660  0.9025 -0.3109
 4529TIP3   OH235001   0.309   3.707   0.419 -0.0276  0.1141  0.0184
 4529TIP3    H135002   0.326   3.753   0.501  0.2652 -0.7869  0.4819
 4529TIP3    H235003   0.280   3.775   0.358 -1.8136  0.5811  1.3082
 4530TIP3   OH235004   2.952   2.744  11.583 -0.0347  0.1650  0.2367
 4530TIP3    H135005   3.029   2.794  11.556 -0.8920  1.2479 -0.2736
 4530TIP3    H235006   2.877   2.796  11.553 -0.9813 -1.6791 -0.7887
 4531TIP3   OH235007   4.693   6.530  16.274  0.4094 -0.6542 -0.7748
 4531TIP3    H135008   4.652   6.457  16.226  0.5057 -1.5222  0.4367
 4531TIP3    H235009   4.765   6.490  16.322 -0.8846 -0.2055  1.6660
 4532TIP3   OH235010   0.215   3.980   6.242 -0.5351  0.4436  0.2000
 4532TIP3    H135011   0.218   4.070   6.211  1.5377  0.9684  1.6917
 4532TIP3    H235012   0.307   3.952   6.243 -1.1891 -2.0305 -1.1034
 4533TIP3   OH235013   5.897   0.763   2.132  0.2484 -0.3372 -0.1860
 4533TIP3    H135014   5.841   0.832   2.168  1.8807  0.4583  0.9441
 4533TIP3    H235015   5.864   0.683   2.171 -0.1328  0.1101  0.4315
 4534TIP3   OH235016   1.437   4.527   1.838  0.3085  0.2236  0.4308
 4534TIP3    H135017   1.411   4.475   1.915  0.1226 -0.2738  0.0367
 4534TIP3    H235018   1.462   4.462   1.773 -2.2822  0.4848 -0.9554
 4535TIP3   OH235019   3.502   2.418   1.445  0.0229  0.0291  0.4256
 4535TIP3    H135020   3.539   2.504   1.428  1.7907 -0.8498 -0.4427
 4535TIP3    H235021   3.480   2.419   1.538 -0.4980  1.5772  0.3185
 4536TIP3   OH235022   2.032   3.367   4.889  0.5500  0.0084  0.0524
 4536TIP3    H135023   2.055   3.274   4.880  2.8852  0.5687 -0.3590
 4536TIP3    H235024   2.100   3.413   4.840  0.0867  2.0090  1.1978
 4537TIP3   OH235025   6.584   2.033  12.576 -0.2358 -0.2325 -0.8100
 4537TIP3    H135026   6.504   2.006  12.532 -0.0642 -1.3975 -0.4362
 4537TIP3    H235027   6.637   1.954  12.581  1.0312  0.5592 -1.2177
 4538TIP3   OH235028   0.269   1.721   2.420  0.4287 -0.4384  0.0233
 4538TIP3    H135029   0.235   1.646   2.372  0.6584 -0.1576 -0.5904
 4538TIP3    H235030   0.346   1.687   2.467  0.1747 -0.7246  0.2338
 4539TIP3   OH235031   6.599   3.271   3.417  0.2533 -0.0538  0.4803
 4539TIP3    H135032   6.531   3.332   3.387  1.1132 -0.0106 -1.5425
 4539TIP3    H235033   6.576   3.188   3.377 -1.1689 -1.3128  3.6023
 4540TIP3   OH235034   1.343   2.911  13.038 -0.2204  0.2749  0.1582
 4540TIP3    H135035   1.271   2.916  13.101  0.3351 -0.2247  0.8521
 4540TIP3    H235036   1.402   2.844  13.074 -0.1266 -0.3697 -1.1407
 4541TIP3   OH235037   5.750   4.358   3.601  0.0235 -0.6153 -0.3078
 4541TIP3    H135038   5.789   4.376   3.686  0.0694 -0.5784 -0.3367
 4541TIP3    H235039   5.765   4.265   3.586  0.6110 -0.4767 -0.5836
 4542TIP3   OH235040   3.376   2.122   5.052 -0.2804  0.0758 -0.5589
 4542TIP3    H135041   3.352   2.175   5.128 -0.2087 -1.3818  0.4998
 4542TIP3    H235042   3.402   2.038   5.087  0.7890 -0.3019 -2.1305
 4543TIP3   OH235043   3.264   2.974   3.312 -0.3489  0.4524  0.5263
 4543TIP3    H135044   3.309   2.909   3.367  1.5520 -0.1761 -1.6002
 4543TIP3    H235045   3.178   2.935   3.294  1.0380 -2.0114 -1.3650
 4544TIP3   OH235046   1.514   6.354   2.241 -0.1344 -0.2903  0.3022
 4544TIP3    H135047   1.437   6.350   2.298  0.1291  1.9657  0.9359
 4544TIP3    H235048   1.574   6.414   2.285  1.1341 -0.3903 -1.1731
 4545TIP3   OH235049   4.687   6.457   6.121  0.5272  0.2617  1.1059
 4545TIP3    H135050   4.777   6.426   6.112 -0.6862 -3.1854 -1.2891
 4545TIP3    H235051   4.682   6.534   6.063  1.7202  0.0046  0.6409
 4546TIP3   OH235052   2.583   6.367  16.939 -0.3144  0.2762 -0.1904
 4546TIP3    H135053   2.552   6.315  17.012  1.3127  1.6332  1.5577
 4546TIP3    H235054   2.506   6.418  16.911 -0.7671  0.3245  1.1018
 4547TIP3   OH235055   4.086   6.003  12.277 -0.0938 -0.1592 -0.2185
 4547TIP3    H135056   4.142   5.968  12.208 -0.3388 -0.3497 -0.3246
 4547TIP3    H235057   4.012   5.943  12.280 -0.2155  0.0024  0.0255
 4548TIP3   OH235058   5.832   1.395  12.104 -0.2034  0.5311  0.9493
 4548TIP3    H135059   5.908   1.379  12.048 -0.2319 -0.7553  1.2474
 4548TIP3    H235060   5.857   1.471  12.157  0.2025  1.1546 -0.1021
 4549TIP3   OH235061   1.111   2.882   0.484 -0.1703  0.3095 -0.3513
 4549TIP3    H135062   1.117   2.951   0.418  0.6876  0.3317 -0.2613
 4549TIP3    H235063   1.074   2.807   0.438  0.1197  0.4260 -0.7815
 4550TIP3   OH235064   4.772   6.279  14.449 -0.6816 -0.1333  0.1575
 4550TIP3    H135065   4.766   6.265  14.354  1.6356 -0.3014 -0.0168
 4550TIP3    H235066   4.690   6.323  14.472 -1.7041 -0.9041 -1.7555
 4551TIP3   OH235067   6.170   4.884  15.133  0.0991  0.6663  0.1770
 4551TIP3    H135068   6.077   4.906  15.142 -0.1576 -0.3002 -0.0378
 4551TIP3    H235069   6.188   4.827  15.208  0.4943  0.7562  0.1509
 4552TIP3   OH235070   0.269   5.256   0.375 -0.3653 -0.3403 -0.0568
 4552TIP3    H135071   0.283   5.348   0.396 -0.9139 -0.3159  0.1983
 4552TIP3    H235072   0.278   5.252   0.279  0.2791 -0.1369 -0.0138
 4553TIP3   OH235073   1.003   4.095   1.913 -0.1107 -0.6794 -0.9412
 4553TIP3    H135074   0.946   4.041   1.858 -2.9079  0.1722  0.9135
 4553TIP3    H235075   1.049   4.032   1.968  0.0565 -1.3436 -1.7989
 4554TIP3   OH235076   3.593   0.822  14.589 -0.1104 -0.1068 -0.1041
 4554TIP3    H135077   3.565   0.731  14.580 -1.2558  0.1924  0.2471
 4554TIP3    H235078   3.512   0.873  14.582  0.7067  1.0388 -2.2414
 4555TIP3   OH235079   0.601   1.439  16.336  0.3715  0.1763 -0.1167
 4555TIP3    H135080   0.517   1.422  16.380 -0.0828 -0.9674 -1.3704
 4555TIP3    H235081   0.667   1.415  16.401 -0.2592  0.9699  0.8421
 4556TIP3   OH235082   6.405   6.406   0.567 -0.4422  0.1934 -0.0233
 4556TIP3    H135083   6.345   6.434   0.636 -0.7588  1.5797 -0.8272
 4556TIP3    H235084   6.488   6.392   0.612 -0.1314  2.9262  0.4319
 4557TIP3   OH235085   2.566   0.947  13.551  0.0004 -0.3617 -0.0693
 4557TIP3    H135086   2.646   0.932  13.602  0.3540  0.3735 -0.3908
 4557TIP3    H235087   2.585   1.026  13.499  0.0075 -1.5452 -1.9885
 4558TIP3   OH235088   5.724   6.309  13.078  0.2954  0.3278  0.2616
 4558TIP3    H135089   5.630   6.290  13.071  0.0371  1.5058  0.4330
 4558TIP3    H235090   5.747   6.287  13.168 -0.1302  1.3572  0.6291
 4559TIP3   OH235091   4.439   1.305   3.128  0.5647  0.2045  0.7175
 4559TIP3    H135092   4.459   1.305   3.034 -1.2136  0.9434  0.2920
 4559TIP3    H235093   4.470   1.220   3.159 -1.9314 -1.6057 -1.3183
 4560TIP3   OH235094   5.040   6.409  15.896 -0.4302  0.1018  0.4620
 4560TIP3    H135095   5.061   6.406  15.802  0.0882  1.0115  0.5412
 4560TIP3    H235096   5.111   6.459  15.935  1.3493 -3.2675  1.9179
 4561TIP3   OH235097   5.984   1.983  14.917 -0.1555 -0.2168 -0.3075
 4561TIP3    H135098   6.010   2.061  14.966 -0.6111 -0.8350  0.9681
 4561TIP3    H235099   5.919   2.015  14.855  0.9208  0.6985 -0.9812
 4562TIP3   OH235100   2.316   2.075  16.941 -0.0494  0.5250  0.3538
 4562TIP3    H135101   2.407   2.078  16.911  1.5315 -0.8386  4.2786
 4562TIP3    H235102   2.298   2.165  16.970  0.4258  0.5920  0.4600
 4563TIP3   OH235103   0.146   4.228  11.314  0.1940 -0.4340  0.5545
 4563TIP3    H135104   0.111   4.289  11.249 -0.7946 -0.3664  1.1345
 4563TIP3    H235105   0.238   4.217  11.290  0.3411  1.1406  0.3362
 4564TIP3   OH235106   3.559   6.073   2.359  0.2459 -0.3243 -0.1070
 4564TIP3    H135107   3.538   6.155   2.315 -1.7547 -0.9220 -0.3448
 4564TIP3    H235108   3.555   6.007   2.290  1.7363 -0.6736  0.1028
 4565TIP3   OH235109   0.172   4.577   0.257  0.3697  0.5286 -0.1912
 4565TIP3    H135110   0.177   4.591   0.352 -1.2910 -0.4514  0.0732
 4565TIP3    H235111   0.255   4.534   0.235  0.2849 -0.3108  1.0225
 4566TIP3   OH235112   5.779   0.291  16.440 -0.4529  0.3681  0.4630
 4566TIP3    H135113   5.776   0.211  16.492  0.0271 -0.5683 -0.8809
 4566TIP3    H235114   5.827   0.266  16.361  0.7181  2.3035  0.5156
 4567TIP3   OH235115   6.521   5.542  12.094  0.4223 -0.3576 -0.6006
 4567TIP3    H135116   6.509   5.637  12.103  0.2567 -0.4440  0.1776
 4567TIP3    H235117   6.594   5.532  12.033  0.3837  0.2699 -0.7546
 4568TIP3   OH235118   4.893   4.189  12.842 -0.1973 -0.5211 -0.6047
 4568TIP3    H135119   4.867   4.096  12.845 -0.4734 -0.4591 -0.9072
 4568TIP3    H235120   4.811   4.235  12.823 -0.0774 -0.2048 -0.3563
 4569TIP3   OH235121   3.994   2.978   0.447  0.4822  0.1030 -0.5043
 4569TIP3    H135122   3.958   2.892   0.472  1.2601  0.2677  1.3469
 4569TIP3    H235123   4.046   2.960   0.369 -0.8036 -0.7557 -1.2119
 4570TIP3   OH235124   6.200   1.329  15.877 -0.3517  0.2311  0.6444
 4570TIP3    H135125   6.259   1.404  15.886  0.7214 -0.5821  0.5509
 4570TIP3    H235126   6.120   1.366  15.838  0.0996  1.3439  0.7376
 4571TIP3   OH235127   6.758   3.248  16.132 -0.4904  0.5468  0.1141
 4571TIP3    H135128   6.809   3.168  16.120  0.2513  1.0818 -0.3320
 4571TIP3    H235129   6.783   3.280  16.219  0.5192  1.2115 -0.4076
 4572TIP3   OH235130   6.417   3.165  16.706  0.6292 -0.0260 -0.2320
 4572TIP3    H135131   6.376   3.183  16.621 -0.6609  0.7745  0.5228
 4572TIP3    H235132   6.373   3.085  16.737 -0.4162  0.8220  0.5687
 4573TIP3   OH235133   3.630   4.289  10.912  0.0836  0.5141  0.0421
 4573TIP3    H135134   3.590   4.224  10.968 -1.3270  0.2529 -1.2167
 4573TIP3    H235135   3.630   4.369  10.964 -0.9941  0.2291  0.5033
 4574TIP3   OH235136   5.719   2.659  15.448  0.2869  0.5372  0.3290
 4574TIP3    H135137   5.806   2.634  15.417  0.3425 -0.7066  1.4153
 4574TIP3    H235138   5.727   2.662  15.543 -1.2922 -1.4498  0.5807
 4575TIP3   OH235139   3.107   3.910   4.866  0.3081  0.0887 -0.5729
 4575TIP3    H135140   3.131   3.819   4.848  0.0539 -0.0910 -0.0338
 4575TIP3    H235141   3.014   3.906   4.890  1.1442 -0.1220  3.4239
 4576TIP3   OH235142   6.257   6.199  10.879  0.3042  0.2280  0.2931
 4576TIP3    H135143   6.233   6.106  10.886  1.3737 -0.1228 -0.4677
 4576TIP3    H235144   6.337   6.199  10.827 -0.5850  1.7016 -1.1899
 4577TIP3   OH235145   0.971   2.280  11.439  0.7217  0.4734  0.5957
 4577TIP3    H135146   0.929   2.355  11.480 -0.9126 -0.0911  0.0519
 4577TIP3    H235147   0.910   2.253  11.370 -0.5159 -3.3661  2.8359
 4578TIP3   OH235148   0.475   0.980   3.251 -0.1453 -0.3935  0.5536
 4578TIP3    H135149   0.521   0.985   3.335  1.9730 -0.9025 -0.5056
 4578TIP3    H235150   0.397   1.034   3.263  1.8497  2.4905  1.7578
 4579TIP3   OH235151   5.622   4.389  15.048  0.9114  0.1327  0.5533
 4579TIP3    H135152   5.602   4.467  14.996 -0.5870 -0.1775  0.6378
 4579TIP3    H235153   5.541   4.368  15.093  1.5669 -0.9216  1.2956
 4580TIP3   OH235154   3.964   6.492   1.767  0.2843  0.3647  0.3292
 4580TIP3    H135155   3.887   6.494   1.825  1.0579  1.6444  1.3798
 4580TIP3    H235156   4.031   6.446   1.818 -0.3096 -2.5669 -1.3661
 4581TIP3   OH235157   2.558   3.367   6.413  0.3390 -0.1876 -0.0970
 4581TIP3    H135158   2.602   3.452   6.420 -0.9402  0.6852 -1.8406
 4581TIP3    H235159   2.574   3.339   6.323 -0.5286 -1.0655  0.0059
 4582TIP3   OH235160   5.622   6.197  14.424 -0.6603  0.2623 -0.6275
 4582TIP3    H135161   5.597   6.226  14.337  0.1885 -0.9157 -1.2999
 4582TIP3    H235162   5.665   6.113  14.410 -1.5906 -0.5581  1.0468
 4583TIP3   OH235163   3.863   5.370  13.038 -0.4630  0.1092  0.3812
 4583TIP3    H135164   3.823   5.445  12.994 -0.2495 -0.6938 -1.2553
 4583TIP3    H235165   3.817   5.294  13.003  1.4620 -0.7338 -0.4564
 4584TIP3   OH235166   0.009   1.720   0.098 -0.0610  0.0214 -0.2638
 4584TIP3    H135167   0.002   1.648   0.160  0.4497  0.4106  0.2661
 4584TIP3    H235168  -0.072   1.718   0.048 -1.4030  0.9188  1.7524
 4585TIP3   OH235169   2.228   5.758  16.427  0.1253  0.3444 -0.1276
 4585TIP3    H135170   2.207   5.811  16.503  0.3558 -0.7069  0.6846
 4585TIP3    H235171   2.321   5.775  16.411  0.6241 -1.0269  1.1358
 4586TIP3   OH235172   3.807   0.904  17.069  0.8529  0.3136 -0.0087
 4586TIP3    H135173   3.835   0.995  17.081  0.5218  0.2977  0.9892
 4586TIP3    H235174   3.718   0.901  17.105  0.7484 -0.3394 -0.3008
 4587TIP3   OH235175   0.624   1.318   3.364  0.4947 -0.1300  0.5397
 4587TIP3    H135176   0.589   1.268   3.438 -0.7921 -1.2783 -0.7790
 4587TIP3    H235177   0.574   1.400   3.365 -1.6191 -1.3098 -0.6789
 4588TIP3   OH235178   4.167   1.950   0.606  0.2538  0.1473 -0.5443
 4588TIP3    H135179   4.126   1.892   0.670  0.4441 -0.8308 -1.2858
 4588TIP3    H235180   4.260   1.948   0.627  0.1129  1.2769  0.2739
 4589TIP3   OH235181   4.823   1.454   6.633 -0.0834  0.4113  0.1501
 4589TIP3    H135182   4.879   1.376   6.635  0.7027  0.9689  0.6121
 4589TIP3    H235183   4.764   1.439   6.559  1.9071  0.6257 -1.6044
 4590TIP3   OH235184   5.028   3.153  13.883 -0.4856  0.4336  0.2329
 4590TIP3    H135185   5.045   3.173  13.975  1.6545 -0.6234  0.1325
 4590TIP3    H235186   4.934   3.138  13.878 -1.1592  3.4338  1.6344
 4591TIP3   OH235187   0.285   6.178   0.490 -0.1491 -0.0617 -0.3325
 4591TIP3    H135188   0.376   6.161   0.517  0.4848  1.5132 -1.3477
 4591TIP3    H235189   0.254   6.094   0.457  0.2163 -1.1697  1.9151
 4592TIP3   OH235190   5.882   4.310  14.194  0.2789  0.1247  0.1723
 4592TIP3    H135191   5.972   4.287  14.214 -0.6869 -3.2733  1.3253
 4592TIP3    H235192   5.860   4.379  14.256  1.3267 -0.9003  1.7443
 4593TIP3   OH235193   3.059   1.026  11.399 -0.0756 -0.5376 -0.1430
 4593TIP3    H135194   3.144   1.023  11.441  0.2026 -0.9300 -0.7234
 4593TIP3    H235195   3.014   1.099  11.441  0.2536 -0.8167  0.7102
 4594TIP3   OH235196   1.013   1.979  14.214  1.1931 -0.3000  0.3972
 4594TIP3    H135197   0.932   1.963  14.164 -0.3376 -0.5400  2.7861
 4594TIP3    H235198   1.083   1.959  14.152 -0.4824  1.8013 -2.4282
 4595TIP3   OH235199   5.059   3.071   5.242  0.6640 -0.3941 -0.3230
 4595TIP3    H135200   5.135   3.057   5.184  0.5699  2.3417 -1.2842
 4595TIP3    H235201   5.071   3.161   5.274 -0.3601 -1.1403  2.3767
 4596TIP3   OH235202   0.673   4.357   0.397  0.1725  0.1246 -0.4031
 4596TIP3    H135203   0.586   4.360   0.437 -0.7179 -0.1430 -2.2585
 4596TIP3    H235204   0.709   4.445   0.412  0.2801 -0.2243  1.7543
 4597TIP3   OH235205   2.585   1.870  14.161  0.1298 -0.5880  0.1750
 4597TIP3    H135206   2.542   1.950  14.129 -0.6708 -0.5298  1.3033
 4597TIP3    H235207   2.553   1.861  14.251  0.9500 -1.6716  0.3778
 4598TIP3   OH235208   1.479   4.945   1.305  0.0681 -0.4971 -0.1143
 4598TIP3    H135209   1.438   4.941   1.391  2.1753 -0.0581  0.9763
 4598TIP3    H235210   1.432   5.016   1.260 -0.6752 -0.3307  0.8844
 4599TIP3   OH235211   1.107   3.991   1.216  0.8208 -0.1944 -0.5049
 4599TIP3    H135212   1.132   4.054   1.283  0.5173 -0.5208 -0.0819
 4599TIP3    H235213   1.018   3.966   1.239  0.2324  0.6669 -1.7729
 4600TIP3   OH235214   3.836   6.684   1.620  0.9718 -0.2593 -0.1573
 4600TIP3    H135215   3.886   6.618   1.669 -0.5583 -0.0872  1.7600
 4600TIP3    H235216   3.833   6.760   1.678 -2.0649 -0.5056  0.1891
 4601TIP3   OH235217   0.130   3.431  17.272  0.1263 -0.5948 -0.4871
 4601TIP3    H135218   0.064   3.445  17.340  0.2643 -0.6173 -0.3487
 4601TIP3    H235219   0.088   3.371  17.209  0.0043 -0.5842 -0.4159
 4602TIP3   OH235220   0.672   5.518  16.077 -0.4187 -0.2952  0.2795
 4602TIP3    H135221   0.752   5.482  16.113  0.1020  0.1002 -0.4532
 4602TIP3    H235222   0.607   5.449  16.088  0.4340 -1.2829 -0.6572
 4603TIP3   OH235223   1.277   3.941  14.245  0.0029 -0.0755 -0.0032
 4603TIP3    H135224   1.317   3.965  14.329  1.7584  1.4891 -1.1786
 4603TIP3    H235225   1.183   3.940  14.262  0.2245  1.6107  1.6802
 4604TIP3   OH235226   3.868   5.578  11.619 -0.6156  0.0674  0.2627
 4604TIP3    H135227   3.858   5.669  11.650  0.2086 -0.4425  2.1873
 4604TIP3    H235228   3.962   5.566  11.612 -0.6944 -0.8157  0.6275
 4605TIP3   OH235229   5.937   3.120  16.865  0.0540  0.0473 -0.3640
 4605TIP3    H135230   5.863   3.086  16.815  0.3165 -0.5056 -0.3856
 4605TIP3    H235231   5.897   3.161  16.942 -0.2364 -0.9705  0.0449
 4606TIP3   OH235232   0.822   5.574   1.920  0.0281 -0.0094 -0.2856
 4606TIP3    H135233   0.797   5.613   1.837  1.4821  0.5654 -0.4894
 4606TIP3    H235234   0.917   5.561   1.913  0.2944  0.6363  1.4927
 4607TIP3   OH235235   1.508   0.322  11.962  0.1945  0.2140  0.0756
 4607TIP3    H135236   1.477   0.409  11.990 -1.9249 -0.3400 -0.3868
 4607TIP3    H235237   1.521   0.275  12.044 -2.9365 -0.3790  0.3846
 4608TIP3   OH235238   3.030   6.543  10.688  0.7287  0.2099 -0.2299
 4608TIP3    H135239   3.118   6.579  10.676  0.0317  1.8794 -0.6612
 4608TIP3    H235240   3.007   6.508  10.601  1.3057 -1.1429  0.1258
 4609TIP3   OH235241   3.116   4.992  16.080 -0.2317 -0.2918  0.2213
 4609TIP3    H135242   3.093   4.921  16.139  0.4772 -1.4173 -0.8038
 4609TIP3    H235243   3.036   5.044  16.072 -1.3352 -2.0043 -0.3845
 4610TIP3   OH235244   5.216   1.292  16.756 -0.1753  0.0539  0.5846
 4610TIP3    H135245   5.218   1.204  16.719 -1.4517 -0.0285  0.6573
 4610TIP3    H235246   5.144   1.290  16.818  0.3679  0.8993  1.2616
 4611TIP3   OH235247   0.585   4.154   3.036 -0.3122  0.9363 -0.1214
 4611TIP3    H135248   0.590   4.073   3.086 -0.1046  0.7818 -0.3928
 4611TIP3    H235249   0.660   4.151   2.977 -0.0205  1.5467  0.2029
 4612TIP3   OH235250   6.379   4.811   4.088  0.4395  0.0290  0.6127
 4612TIP3    H135251   6.430   4.754   4.145 -0.7189 -0.5734  1.0791
 4612TIP3    H235252   6.417   4.799   4.001  1.1872 -0.2687  0.9696
 4613TIP3   OH235253   5.709   5.946   1.093  0.1106 -0.0118  0.1726
 4613TIP3    H135254   5.791   5.995   1.090 -0.2760  0.7083  0.8971
 4613TIP3    H235255   5.728   5.872   1.151  0.8465 -1.0410 -1.3354
 4614TIP3   OH235256   4.290   4.780   5.070 -0.7337 -0.4127 -0.5557
 4614TIP3    H135257   4.368   4.789   5.015 -0.7512 -1.7254 -0.8132
 4614TIP3    H235258   4.322   4.741   5.151 -0.9198  0.3078 -0.1253
 4615TIP3   OH235259   5.345   2.094  16.081 -0.0162  0.4004  0.4719
 4615TIP3    H135260   5.281   2.165  16.082 -0.1053  0.3393  2.0083
 4615TIP3    H235261   5.305   2.024  16.133  1.0363  0.1288  0.9467
 4616TIP3   OH235262   3.557   5.862   2.202  0.4243  0.6185  0.1687
 4616TIP3    H135263   3.630   5.801   2.215 -0.7877 -0.3838  3.1923
 4616TIP3    H235264   3.531   5.851   2.111  0.7989 -2.8045  0.3708
 4617TIP3   OH235265   6.302   1.011   0.733  0.7557 -0.4201 -0.2475
 4617TIP3    H135266   6.242   0.937   0.731  0.7711 -0.4459  0.0794
 4617TIP3    H235267   6.311   1.038   0.642 -1.3849  0.8952 -0.1627
 4618TIP3   OH235268   4.138   6.414  12.997  0.3484 -0.1504 -0.3984
 4618TIP3    H135269   4.176   6.477  13.059  0.7353 -0.3867 -0.3893
 4618TIP3    H235270   4.214   6.373  12.956  0.1032 -1.0981  0.0861
 4619TIP3   OH235271   1.805   4.588   0.874  0.0498  0.1345 -0.4047
 4619TIP3    H135272   1.715   4.601   0.902  0.4060  0.0476  0.8843
 4619TIP3    H235273   1.811   4.495   0.856 -0.6384  0.4652 -2.5641
 4620TIP3   OH235274   0.327   0.820  15.213  0.1209 -0.2720 -0.3145
 4620TIP3    H135275   0.302   0.743  15.162 -1.1797 -1.8106  2.4191
 4620TIP3    H235276   0.423   0.821  15.209  0.1088 -1.1825 -1.5280
 4621TIP3   OH235277   1.383   3.424  12.775  0.2327  0.0071  0.2196
 4621TIP3    H135278   1.339   3.509  12.771 -0.8143 -0.3876  2.1187
 4621TIP3    H235279   1.345   3.374  12.703 -3.4627 -0.7116  2.3934
 4622TIP3   OH235280   6.384   0.947  12.262  0.0721  0.4708 -0.7166
 4622TIP3    H135281   6.383   1.028  12.313  0.1976  1.1489 -1.7669
 4622TIP3    H235282   6.403   0.879  12.327  2.1160  1.5168 -0.1109
 4623TIP3   OH235283   4.356   3.428   4.933 -0.4630 -0.7107  0.1482
 4623TIP3    H135284   4.327   3.502   4.879 -1.4622 -0.6249  0.7800
 4623TIP3    H235285   4.358   3.463   5.022 -1.0644 -1.4707  0.4722
 4624TIP3   OH235286   1.769   3.262   4.948 -0.2330 -0.0624 -0.4436
 4624TIP3    H135287   1.761   3.171   4.976 -1.8896  0.0844 -0.3206
 4624TIP3    H235288   1.863   3.276   4.940  0.1654 -1.1921  1.4703
 4625TIP3   OH235289   2.951   1.732  14.967 -0.3104  0.4115  0.0501
 4625TIP3    H135290   2.966   1.721  14.873 -0.9547 -0.6117  0.0535
 4625TIP3    H235291   2.987   1.819  14.987  1.0462  0.0889 -0.8733
 4626TIP3   OH235292   0.827   3.043   5.230  0.1117 -0.7154  0.2572
 4626TIP3    H135293   0.859   3.091   5.154 -0.4999  1.6162  1.3742
 4626TIP3    H235294   0.763   3.102   5.270 -0.1087 -2.1673  2.1925
 4627TIP3   OH235295   6.052   6.338   3.783 -0.0373  0.2939 -0.3460
 4627TIP3    H135296   6.037   6.366   3.692 -0.4873 -0.4075 -0.4939
 4627TIP3    H235297   6.138   6.297   3.782  1.1106  2.5273  0.0854
 4628TIP3   OH235298   0.320   0.762   1.679  0.4199  0.2667  0.6050
 4628TIP3    H135299   0.286   0.795   1.763 -0.0944 -0.1112  0.5508
 4628TIP3    H235300   0.404   0.723   1.701 -0.2912 -1.0043  1.1888
 4629TIP3   OH235301   4.967   1.813   5.937 -0.1871  0.4635  0.1681
 4629TIP3    H135302   4.935   1.725   5.959 -1.2991  0.8770  0.3008
 4629TIP3    H235303   5.055   1.817   5.975 -0.2942 -0.4380  0.5455
 4630TIP3   OH235304   4.573   0.897  17.245 -0.3117  0.6149  0.4801
 4630TIP3    H135305   4.621   0.837  17.302 -0.4445  1.7303  1.8072
 4630TIP3    H235306   4.607   0.984  17.268 -0.7356  1.1392 -0.7863
 4631TIP3   OH235307   2.636   2.691  15.995 -0.1412  0.0773  0.7880
 4631TIP3    H135308   2.629   2.627  15.924  0.0814  0.1040  0.7430
 4631TIP3    H235309   2.726   2.724  15.989 -0.9255  2.0864 -0.6171
 4632TIP3   OH235310   5.359   4.413   4.101 -0.1775 -0.0293  0.2100
 4632TIP3    H135311   5.435   4.359   4.121 -0.7876  0.5827  5.6355
 4632TIP3    H235312   5.380   4.499   4.139 -2.0268  1.4416 -1.8237
 4633TIP3   OH235313   4.660   6.288   5.808 -0.5793  0.5477 -0.0754
 4633TIP3    H135314   4.682   6.254   5.721 -0.1506  0.3910  0.0919
 4633TIP3    H235315   4.599   6.223   5.845  1.4077 -0.8801  0.8490
 4634TIP3   OH235316   4.155   3.296  15.791  0.1311  0.0638  0.0665
 4634TIP3    H135317   4.246   3.316  15.769 -0.0695 -1.7732 -3.0204
 4634TIP3    H235318   4.104   3.364  15.747 -0.0558  0.1134  0.3585
 4635TIP3   OH235319   6.557   6.764  14.688  0.1131 -0.1726  0.2263
 4635TIP3    H135320   6.464   6.788  14.681  0.1186 -0.1368  0.2728
 4635TIP3    H235321   6.602   6.848  14.703  0.1338 -0.2113  0.3776
 4636TIP3   OH235322   6.564   0.744   3.729  0.1392 -0.2088  0.2290
 4636TIP3    H135323   6.531   0.714   3.814 -0.1817 -1.0527 -0.1855
 4636TIP3    H235324   6.577   0.664   3.679 -1.8291  0.3630 -1.3250
 4637TIP3   OH235325   3.875   0.374  17.144 -0.2811 -0.0483  0.2304
 4637TIP3    H135326   3.871   0.421  17.061 -0.1919 -0.1964  0.1424
 4637TIP3    H235327   3.786   0.343  17.159 -0.5161  0.8023  0.6717
 4638TIP3   OH235328   0.376   3.668  11.483 -0.3017  0.4689  0.1260
 4638TIP3    H135329   0.295   3.628  11.516 -0.4400  1.0629  0.5356
 4638TIP3    H235330   0.441   3.648  11.550  0.0603 -0.5688 -0.5155
 4639TIP3   OH235331   6.067   6.707   2.895  0.2492 -0.3117  0.6570
 4639TIP3    H135332   6.007   6.781   2.896 -0.0321 -0.4105 -2.1179
 4639TIP3    H235333   6.154   6.746   2.908 -0.1032  0.1852  1.6267
 4640TIP3   OH235334   0.028   5.169  11.730  0.3324  0.1240 -0.3020
 4640TIP3    H135335  -0.005   5.161  11.819 -0.7282 -1.1419 -0.7765
 4640TIP3    H235336  -0.050   5.180  11.676  0.9277  0.3415 -1.1460
 4641TIP3   OH235337   3.650   0.340   6.337 -0.1480 -0.2622  0.2666
 4641TIP3    H135338   3.738   0.358   6.304  0.0681 -0.8134  0.5454
 4641TIP3    H235339   3.630   0.414   6.394 -0.9952  1.3630 -1.9560
 4642TIP3   OH235340   4.232   4.692   4.740 -0.2884  0.1577 -0.6679
 4642TIP3    H135341   4.328   4.701   4.741 -0.2456 -0.0566 -1.7736
 4642TIP3    H235342   4.201   4.776   4.708 -0.5996  0.9211  1.4829
 4643TIP3   OH235343   5.527   0.698   5.320 -0.3992  0.1441 -0.0350
 4643TIP3    H135344   5.474   0.651   5.384  0.6708 -1.2083 -0.0786
 4643TIP3    H235345   5.613   0.706   5.361  0.3448 -0.8521 -1.3052
 4644TIP3   OH235346   3.762   3.503  16.822 -0.3715 -0.7304 -0.1203
 4644TIP3    H135347   3.714   3.428  16.856 -1.0989 -0.3025 -0.1826
 4644TIP3    H235348   3.731   3.577  16.874  1.4909 -0.6893  1.0231
 4645TIP3   OH235349   3.258   0.752   4.591 -0.0327  0.1555 -0.0945
 4645TIP3    H135350   3.288   0.807   4.663  0.2522 -0.1566  0.0245
 4645TIP3    H235351   3.287   0.664   4.613  2.2091  0.3994 -1.7336
 4646TIP3   OH235352   1.747   0.814   2.311 -0.1526  0.3504 -0.0271
 4646TIP3    H135353   1.750   0.726   2.347 -0.4582  0.3671  0.0467
 4646TIP3    H235354   1.661   0.848   2.338  0.3199  0.9952  0.7040
 4647TIP3   OH235355   1.335   1.310   0.036 -0.1446 -0.2416 -0.0317
 4647TIP3    H135356   1.287   1.320   0.119 -1.2165  0.1271 -0.6730
 4647TIP3    H235357   1.389   1.232   0.049 -0.0513 -0.0075  1.1249
 4648TIP3   OH235358   2.462   5.252   0.896 -0.1538 -0.2209 -0.5838
 4648TIP3    H135359   2.440   5.328   0.950 -1.4958 -0.7497 -0.3374
 4648TIP3    H235360   2.512   5.195   0.954 -0.1982 -0.0718 -0.3994
 4649TIP3   OH235361   3.845   2.833   4.402  0.2574  0.0912 -0.1785
 4649TIP3    H135362   3.765   2.843   4.351  0.4443 -0.0880 -0.5180
 4649TIP3    H235363   3.816   2.808   4.489 -0.0969  1.1016 -0.0035
 4650TIP3   OH235364   0.484   2.935  14.712  0.4947  0.2590  0.2398
 4650TIP3    H135365   0.477   2.958  14.804 -0.8995 -1.6041  0.6638
 4650TIP3    H235366   0.539   2.856  14.710  1.0916  0.6782 -0.6003
 4651TIP3   OH235367   2.856   2.423   3.456 -0.2744 -0.4179  0.4788
 4651TIP3    H135368   2.939   2.390   3.492 -0.2430  1.0582  1.8654
 4651TIP3    H235369   2.859   2.397   3.363  0.7817 -2.1694  0.9364
 4652TIP3   OH235370   4.254   6.132  12.429  0.7824  0.4368 -0.2010
 4652TIP3    H135371   4.187   6.084  12.381  0.9476  0.3497 -0.3459
 4652TIP3    H235372   4.207   6.172  12.502  0.7680 -0.5487  0.3530
 4653TIP3   OH235373   4.960   0.474   3.054 -0.0818  0.6293  0.5571
 4653TIP3    H135374   5.031   0.462   3.116  0.7743  1.7320 -0.1691
 4653TIP3    H235375   4.970   0.564   3.023 -1.3039  0.5393 -0.1734
 4654TIP3   OH235376   4.231   3.138  17.099  0.5949  0.2574 -0.2804
 4654TIP3    H135377   4.245   3.228  17.127  1.1148  0.5189 -1.3102
 4654TIP3    H235378   4.186   3.096  17.172 -0.7179  1.6599 -0.2247
 4655TIP3   OH235379   5.851   4.938  12.810 -0.3550 -0.1998 -0.2453
 4655TIP3    H135380   5.765   4.944  12.852 -0.2013 -0.2879  0.0801
 4655TIP3    H235381   5.873   5.028  12.787  0.4270  0.1191  1.5909
 4656TIP3   OH235382   3.977   3.271  14.238  0.2098 -0.2176 -0.1263
 4656TIP3    H135383   3.917   3.280  14.312  1.2046  1.8916  0.5000
 4656TIP3    H235384   3.946   3.335  14.174  1.6279  0.7635  0.1225
 4657TIP3   OH235385   3.307   0.041   0.921 -0.3305 -0.0853  0.2575
 4657TIP3    H135386   3.325   0.018   0.830  1.1107  0.3154  0.4211
 4657TIP3    H235387   3.322   0.135   0.926 -0.4062 -0.1036  0.9093
 4658TIP3   OH235388   3.354   1.763  13.515  0.7858 -0.0817  0.0683
 4658TIP3    H135389   3.424   1.800  13.462  1.1655 -1.6439 -0.5610
 4658TIP3    H235390   3.390   1.682  13.551 -0.2987 -0.3015  0.7112
 4659TIP3   OH235391   5.900   2.608   5.694  0.6060 -0.6936  0.6527
 4659TIP3    H135392   5.950   2.676   5.738 -1.0362  0.5814  0.6405
 4659TIP3    H235393   5.817   2.604   5.741  0.5480 -2.5225  0.4795
 4660TIP3   OH235394   0.647   3.950   3.609  0.0989 -0.1926  0.2201
 4660TIP3    H135395   0.572   3.934   3.666 -2.3854 -0.8106 -2.9292
 4660TIP3    H235396   0.652   4.046   3.602  0.1009 -0.1297  1.0396
 4661TIP3   OH235397   3.583   1.291  14.553  0.7024  0.3069  0.2576
 4661TIP3    H135398   3.593   1.383  14.531  1.1342  0.3743  0.7113
 4661TIP3    H235399   3.583   1.246  14.468  0.6179  0.7131  0.0430
 4662TIP3   OH235400   0.673   6.276   5.978 -0.1425 -0.3718  0.1631
 4662TIP3    H135401   0.682   6.371   5.971  1.8738 -0.5957 -1.6143
 4662TIP3    H235402   0.686   6.244   5.888 -1.3127 -2.3068  0.6197
 4663TIP3   OH235403   6.709   1.604  11.126 -0.7241 -0.6620  0.1360
 4663TIP3    H135404   6.711   1.569  11.216 -0.6052 -1.0883 -0.0307
 4663TIP3    H235405   6.798   1.591  11.094 -0.9343 -1.1313 -0.2761
 4664TIP3   OH235406   6.679   6.317  15.090  0.3920 -0.1460 -0.1944
 4664TIP3    H135407   6.756   6.359  15.051 -0.2873 -0.1174 -1.5430
 4664TIP3    H235408   6.714   6.243  15.139  1.4226  0.8147  0.5749
 4665TIP3   OH235409   0.329   4.913   3.327 -0.3494  0.3557  1.2479
 4665TIP3    H135410   0.342   5.004   3.355  0.6334  0.1375  1.5344
 4665TIP3    H235411   0.418   4.876   3.322 -0.7185 -0.5192  0.8930
 4666TIP3   OH235412   4.796   1.641  15.159 -0.9000 -0.0664  0.1429
 4666TIP3    H135413   4.795   1.563  15.104 -0.4908 -0.5689  0.8400
 4666TIP3    H235414   4.753   1.708  15.106  0.5226 -0.2059 -1.2774
 4667TIP3   OH235415   4.615   4.375  14.793  0.0152  0.4416 -0.4152
 4667TIP3    H135416   4.571   4.291  14.806  0.1040  0.5138  0.3692
 4667TIP3    H235417   4.708   4.354  14.794  0.0294  0.5000 -0.5547
 4668TIP3   OH235418   1.102   1.995  11.778 -0.0851  0.1126 -0.1022
 4668TIP3    H135419   1.197   1.996  11.792  0.3121 -4.8458 -0.7143
 4668TIP3    H235420   1.070   1.925  11.834 -2.8587 -0.6296 -2.3696
 4669TIP3   OH235421   1.530   4.468   1.019  0.4433 -0.0561  0.2500
 4669TIP3    H135422   1.521   4.392   0.961  0.8439  0.3576 -0.3756
 4669TIP3    H235423   1.481   4.537   0.975 -0.0812 -0.0052  0.9130
 4670TIP3   OH235424   1.340   4.182  14.122 -0.0413  0.0863 -0.2806
 4670TIP3    H135425   1.337   4.102  14.174 -1.7156 -1.3560 -2.3980
 4670TIP3    H235426   1.257   4.225  14.139 -0.4471 -0.2157 -1.4450
 4671TIP3   OH235427   6.602   1.139   4.659 -0.3698 -0.7325 -0.2853
 4671TIP3    H135428   6.536   1.073   4.679 -1.4135 -0.5611 -2.8075
 4671TIP3    H235429   6.560   1.223   4.679  0.2553 -0.7248  1.0773
 4672TIP3   OH235430   4.408   1.723   0.299 -0.2347 -0.3183 -0.0294
 4672TIP3    H135431   4.391   1.814   0.276 -1.5573  0.0926  2.2573
 4672TIP3    H235432   4.434   1.682   0.217 -2.9487  1.3322 -1.8624
 4673TIP3   OH235433   1.123   2.033  13.397 -0.0865 -0.0397  0.0778
 4673TIP3    H135434   1.138   2.126  13.378  0.3015  0.6672  3.2477
 4673TIP3    H235435   1.032   2.029  13.425  0.1606 -0.3897  0.8741
 4674TIP3   OH235436   5.653   4.423  16.144 -0.4002 -0.1373  0.2749
 4674TIP3    H135437   5.740   4.452  16.118 -0.4841 -1.4661 -1.7441
 4674TIP3    H235438   5.625   4.487  16.210  1.5367  1.1001 -0.0116
 4675TIP3   OH235439   0.143   4.436  15.457 -0.0969  0.2535  0.5245
 4675TIP3    H135440   0.236   4.451  15.477  0.0599 -0.8299  0.6551
 4675TIP3    H235441   0.141   4.424  15.362  0.2094 -1.7118  0.7324
 4676TIP3   OH235442   3.055   3.834  16.937  0.1508 -0.0082 -0.0524
 4676TIP3    H135443   3.029   3.865  16.850 -2.2575 -0.7779  0.3152
 4676TIP3    H235444   3.025   3.903  16.996  0.8752  0.0483  0.2519
 4677TIP3   OH235445   0.453   2.050  14.186  0.0322 -0.4846 -0.0274
 4677TIP3    H135446   0.360   2.032  14.182 -0.0309 -0.1290 -0.1676
 4677TIP3    H235447   0.469   2.113  14.116  0.1032  0.6151  0.9436
 4678TIP3   OH235448   3.448   0.202   5.000  0.5687 -0.4177 -0.1104
 4678TIP3    H135449   3.486   0.266   5.061  3.1113 -2.3501  0.5156
 4678TIP3    H235450   3.471   0.235   4.913  0.4409  0.3116  0.1242
 4679TIP3   OH235451   1.430   0.780  15.274  0.4142  0.1614 -0.1232
 4679TIP3    H135452   1.405   0.871  15.290  2.4056  0.7066  0.2889
 4679TIP3    H235453   1.355   0.728  15.301 -0.5439  1.6630  0.1831
 4680TIP3   OH235454   4.220   0.521   1.401 -0.2288 -0.0890  0.4399
 4680TIP3    H135455   4.206   0.468   1.323 -0.2395 -0.0928  0.4443
 4680TIP3    H235456   4.151   0.493   1.461 -0.7090  0.4715  0.1599
 4681TIP3   OH235457   3.358   0.932  14.588 -0.3505 -0.0307  0.1543
 4681TIP3    H135458   3.317   0.847  14.605 -2.4666  0.5569 -1.5179
 4681TIP3    H235459   3.284   0.992  14.581  0.9022  1.3967 -1.6331
 4682TIP3   OH235460   6.150   5.293  15.258 -0.1562 -0.1013  0.3729
 4682TIP3    H135461   6.118   5.294  15.167  0.7886  0.1462  0.0251
 4682TIP3    H235462   6.100   5.224  15.301 -1.6624  0.7724  0.0582
 4683TIP3   OH235463   0.454   1.585  10.966  0.3894  0.2414 -0.3338
 4683TIP3    H135464   0.520   1.552  11.026 -1.3864 -0.0933  1.5638
 4683TIP3    H235465   0.437   1.674  10.995  0.0372  0.3377 -0.8236
 4684TIP3   OH235466   1.710   5.926   6.213  0.4093  0.0260 -0.9693
 4684TIP3    H135467   1.621   5.907   6.184  0.4141 -0.7396 -0.5016
 4684TIP3    H235468   1.713   6.021   6.219 -0.5403  0.0448 -0.5011
 4685TIP3   OH235469   3.924   3.161  15.823  0.1588 -0.3376 -0.2816
 4685TIP3    H135470   4.020   3.163  15.818  0.1519 -0.7976 -0.7303
 4685TIP3    H235471   3.900   3.242  15.867  0.7886 -0.4937  0.3558
 4686TIP3   OH235472   2.859   4.506  14.639  0.0183  0.5234  0.4511
 4686TIP3    H135473   2.934   4.510  14.698  1.0908 -1.2629 -0.6894
 4686TIP3    H235474   2.888   4.549  14.559 -0.4494  0.4995  0.2609
 4687TIP3   OH235475   2.232   1.595  15.965 -0.3594 -0.8896  0.2435
 4687TIP3    H135476   2.325   1.608  15.944 -0.5359 -0.2155 -0.1831
 4687TIP3    H235477   2.228   1.507  16.002  0.2114 -1.5757 -1.2430
 4688TIP3   OH235478   4.788   2.324  15.655  0.4348 -0.0758  0.0975
 4688TIP3    H135479   4.861   2.372  15.617 -0.3386  0.4567 -0.7704
 4688TIP3    H235480   4.718   2.332  15.590 -0.1333 -1.2731  0.5343
 4689TIP3   OH235481   3.053   1.506   4.513 -0.1924  0.0517  0.2081
 4689TIP3    H135482   2.976   1.464   4.476  0.0473  0.7295 -1.1241
 4689TIP3    H235483   3.048   1.597   4.483  1.3418  0.0088 -0.2749
 4690TIP3   OH235484   1.904   1.396   2.297  0.3813  0.3848  0.1973
 4690TIP3    H135485   1.813   1.370   2.280  1.1594 -2.1803 -0.5103
 4690TIP3    H235486   1.917   1.378   2.390  0.5132 -0.4407  0.0211
 4691TIP3   OH235487   5.002   0.600   0.843  0.0161 -0.4452 -0.1791
 4691TIP3    H135488   5.034   0.633   0.928  0.6340  0.8909 -0.9005
 4691TIP3    H235489   5.042   0.514   0.835 -0.9908 -1.1224  1.4041
 4692TIP3   OH235490   0.359   4.617   2.552 -0.8187  0.1834 -0.5224
 4692TIP3    H135491   0.451   4.599   2.572 -0.8229  1.3739  0.7529
 4692TIP3    H235492   0.317   4.531   2.551 -0.2177 -0.2120  1.8453
 4693TIP3   OH235493   5.230   0.280  11.697 -0.4162 -0.3547  0.3812
 4693TIP3    H135494   5.305   0.235  11.659 -0.1739 -0.8381  1.3973
 4693TIP3    H235495   5.160   0.215  11.696  0.5666 -1.6744  4.0130
 4694TIP3   OH235496   5.676   0.063   3.971 -0.2079 -0.5001  0.4030
 4694TIP3    H135497   5.670   0.078   4.066  0.7796  0.7552  0.3033
 4694TIP3    H235498   5.596   0.101   3.936 -0.2046 -0.2383  0.6707
 4695TIP3   OH235499   1.542   0.662   1.662  0.2855 -0.3909 -0.0152
 4695TIP3    H135500   1.521   0.722   1.590  2.2300 -1.6043 -1.7423
 4695TIP3    H235501   1.604   0.711   1.716  0.1130 -0.0432 -0.1283
 4696TIP3   OH235502   4.356   0.689  11.430 -0.1221 -0.6852  0.2425
 4696TIP3    H135503   4.312   0.646  11.356 -0.0738  0.6422 -0.6038
 4696TIP3    H235504   4.448   0.665  11.421  0.4176  1.6998 -1.9020
 4697TIP3   OH235505   2.499   5.739   4.444  0.3862  0.0099  0.5504
 4697TIP3    H135506   2.485   5.820   4.494 -0.7340 -0.0355  0.3331
 4697TIP3    H235507   2.547   5.682   4.503 -0.0405  0.3278  1.2156
 4698TIP3   OH235508   5.483   3.380  11.880 -0.4880 -0.0638 -0.1243
 4698TIP3    H135509   5.411   3.376  11.943 -1.3178  0.4442 -1.0065
 4698TIP3    H235510   5.467   3.460  11.831  1.1270  0.4582  0.1623
 4699TIP3   OH235511   4.550   2.604  15.250  0.1950  0.1249  0.1312
 4699TIP3    H135512   4.588   2.566  15.171  1.5045 -0.5739  1.0543
 4699TIP3    H235513   4.476   2.657  15.219  1.0473  0.3603 -1.6027
 4700TIP3   OH235514   4.043   4.138  14.030 -0.2032 -0.0240  0.0039
 4700TIP3    H135515   4.134   4.123  14.006 -0.8202 -1.5956 -1.6042
 4700TIP3    H235516   3.993   4.111  13.953 -1.9836  2.4641  0.1873
 4701TIP3   OH235517   4.429   6.151   2.005 -0.0627  0.3340 -0.1960
 4701TIP3    H135518   4.521   6.178   1.998  0.1119 -0.0582  0.5172
 4701TIP3    H235519   4.419   6.084   1.938  0.1769  0.3504 -0.2508
 4702TIP3   OH235520   2.267   6.442  13.966  0.1670  0.0685  0.1149
 4702TIP3    H135521   2.284   6.491  13.885  1.2683  1.1037  0.9306
 4702TIP3    H235522   2.174   6.422  13.963 -0.1719  1.5802 -0.6236
 4703TIP3   OH235523   6.457   2.031  15.305 -0.2036 -0.3814  0.3825
 4703TIP3    H135524   6.398   2.086  15.357 -0.0422 -0.0046  0.1723
 4703TIP3    H235525   6.491   2.090  15.237 -0.4041 -0.8679 -0.1438
 4704TIP3   OH235526   2.412   2.961   1.289  0.0290  0.1239 -0.4864
 4704TIP3    H135527   2.473   3.019   1.334  0.9949 -0.3056 -1.2026
 4704TIP3    H235528   2.359   3.020   1.234 -0.1807  0.4938  0.1038
 4705TIP3   OH235529   6.284   3.895   6.045  0.5682  0.0290 -0.0350
 4705TIP3    H135530   6.345   3.925   5.977  0.5954 -0.3392 -0.1722
 4705TIP3    H235531   6.315   3.808   6.070 -0.0899 -0.3080 -0.3460
 4706TIP3   OH235532   3.088   1.215   1.039 -0.3881 -0.6491  0.2596
 4706TIP3    H135533   3.070   1.121   1.039  1.2292 -0.9837 -0.3210
 4706TIP3    H235534   3.182   1.221   1.055 -0.6949  0.9398  1.7462
 4707TIP3   OH235535   5.940   0.372  15.853 -0.1070 -0.0409  0.1949
 4707TIP3    H135536   5.980   0.404  15.772  0.8412  1.5641  1.2546
 4707TIP3    H235537   5.988   0.416  15.923 -2.1326  0.0565  1.6043
 4708TIP3   OH235538   3.605   3.774  15.797 -0.2340  0.3914 -0.5387
 4708TIP3    H135539   3.529   3.730  15.758  0.2919  0.1412 -1.3028
 4708TIP3    H235540   3.603   3.747  15.889 -0.1002 -0.9962 -0.9233
 4709TIP3   OH235541   5.793   2.731   0.655  0.0579  0.5210 -0.2359
 4709TIP3    H135542   5.876   2.689   0.632 -2.4626 -3.5560 -3.1703
 4709TIP3    H235543   5.791   2.811   0.603  1.6000  0.0566 -1.0704
 4710TIP3   OH235544   0.105   3.547   3.508 -0.2247 -0.1854  0.0398
 4710TIP3    H135545   0.161   3.621   3.532  0.1607 -1.0536  2.0156
 4710TIP3    H235546   0.162   3.491   3.456  0.3230 -0.3617  0.8067
 4711TIP3   OH235547   6.282   1.605   2.869  0.0352  0.0347  0.2011
 4711TIP3    H135548   6.319   1.666   2.933  1.4509 -0.9702  0.3820
 4711TIP3    H235549   6.193   1.637   2.854 -0.3920  0.2359  2.7638
 4712TIP3   OH235550   4.503   1.512   3.827  0.2606  0.4594  0.0062
 4712TIP3    H135551   4.480   1.420   3.838  1.1123  0.3873  1.4244
 4712TIP3    H235552   4.470   1.535   3.741  1.5874 -1.6657 -1.1503
 4713TIP3   OH235553   3.309   0.126  17.227  0.0704  0.0678  0.3210
 4713TIP3    H135554   3.368   0.158  17.158 -0.1032 -1.6206 -0.6549
 4713TIP3    H235555   3.221   0.137  17.190  0.0105 -1.4986 -0.0374
 4714TIP3   OH235556   0.734   3.869   3.034  0.3521 -0.5600 -0.6267
 4714TIP3    H135557   0.711   3.804   3.101 -0.7270  1.6435  1.2895
 4714TIP3    H235558   0.814   3.910   3.067  0.5141 -0.2806 -1.3475
 4715TIP3   OH235559   1.870   2.516  10.676  0.0829 -0.3051  0.2048
 4715TIP3    H135560   1.951   2.525  10.726  0.6684  2.1355 -1.0264
 4715TIP3    H235561   1.869   2.425  10.648  1.2032 -0.9754  2.1508
 4716TIP3   OH235562   1.559   5.228   5.221 -0.2245  0.0189  0.0821
 4716TIP3    H135563   1.588   5.237   5.130  0.3211 -0.8321  0.1630
 4716TIP3    H235564   1.619   5.285   5.270 -0.5623  0.5329 -0.0907
 4717TIP3   OH235565   1.355   0.383  14.563  0.2332  0.0898  0.2905
 4717TIP3    H135566   1.340   0.333  14.644 -0.3554 -0.3608 -0.0858
 4717TIP3    H235567   1.392   0.319  14.502  0.1111  0.2811  0.0131
 4718TIP3   OH235568   3.307   0.795   0.189 -0.2197  0.0102 -0.3342
 4718TIP3    H135569   3.344   0.854   0.124 -1.5634  2.0424  0.6261
 4718TIP3    H235570   3.383   0.759   0.234  0.6648  0.7351 -1.2038
 4719TIP3   OH235571   6.064   5.687  12.141 -0.3805 -0.3191 -0.0033
 4719TIP3    H135572   5.973   5.698  12.115 -0.4133  2.2808  0.9515
 4719TIP3    H235573   6.107   5.767  12.112  1.2837 -0.8211  0.9383
 4720TIP3   OH235574   0.042   1.001   4.071  0.4176  0.0930 -0.1550
 4720TIP3    H135575   0.020   0.995   4.164  2.0903  2.0331  0.4303
 4720TIP3    H235576   0.017   1.091   4.047  1.0553 -0.0250 -1.2857
 4721TIP3   OH235577   3.314   6.659   2.294 -0.3970  0.1693 -0.2462
 4721TIP3    H135578   3.244   6.634   2.355  0.9772  0.9058  1.7542
 4721TIP3    H235579   3.395   6.637   2.341  0.7517  1.7611 -1.3740
 4722TIP3   OH235580   4.585   1.229   6.668  0.0001  0.1996 -0.2155
 4722TIP3    H135581   4.508   1.284   6.656  0.1559  0.3472 -0.5529
 4722TIP3    H235582   4.623   1.260   6.750 -0.5540 -0.1849  0.1908
 4723TIP3   OH235583   0.718   4.969  12.462 -0.2003 -0.0697  0.1441
 4723TIP3    H135584   0.718   4.932  12.550 -0.8456 -0.0434  0.1598
 4723TIP3    H235585   0.723   4.892  12.405  2.6261 -0.0250  0.1894
 4724TIP3   OH235586   4.429   0.176   5.077 -0.4632 -0.4720 -0.5541
 4724TIP3    H135587   4.380   0.093   5.070 -0.4148 -0.4777 -0.8551
 4724TIP3    H235588   4.521   0.149   5.076 -0.4438 -0.4007 -0.8832
 4725TIP3   OH235589   3.474   6.101  11.861 -0.0365  0.2575 -0.0259
 4725TIP3    H135590   3.394   6.153  11.858 -0.3819 -0.2870 -2.4615
 4725TIP3    H235591   3.483   6.075  11.952 -0.6509  3.3066  1.0086
 4726TIP3   OH235592   3.959   2.287   0.078 -0.2929  0.3318 -0.2498
 4726TIP3    H135593   4.039   2.324   0.115 -0.7388  0.0064  1.0933
 4726TIP3    H235594   3.891   2.306   0.143 -1.0989 -0.3343 -0.8691
 4727TIP3   OH235595   2.661   1.343  14.352 -0.1905  0.0292 -0.2428
 4727TIP3    H135596   2.655   1.407  14.281 -2.2265 -0.0606 -0.2084
 4727TIP3    H235597   2.645   1.258  14.309  0.1796 -0.2057  0.0754
 4728TIP3   OH235598   2.253   4.245   0.117  0.3060 -0.1768  0.2161
 4728TIP3    H135599   2.305   4.321   0.092  0.3413  0.5595  2.3309
 4728TIP3    H235600   2.165   4.263   0.083 -0.3263  2.0502  2.6824
 4729TIP3   OH235601   5.405   0.867  11.067  0.0896 -1.1420  0.0988
 4729TIP3    H135602   5.456   0.842  11.144  0.5151 -2.0699 -0.4675
 4729TIP3    H235603   5.359   0.787  11.041 -0.8714 -0.5778 -0.0057
 4730TIP3   OH235604   2.738   3.454  17.087 -0.0367  0.9622 -0.2205
 4730TIP3    H135605   2.811   3.513  17.069  0.4439  0.7986  1.1038
 4730TIP3    H235606   2.715   3.470  17.178 -0.7980  0.0694 -0.2353
 4731TIP3   OH235607   2.038   0.439   2.115  0.1883  0.2628 -0.4364
 4731TIP3    H135608   2.086   0.388   2.049  0.1999 -0.2229 -0.0536
 4731TIP3    H235609   1.951   0.450   2.077 -0.2275 -1.1788  0.0461
 4732TIP3   OH235610   4.282   3.900  13.135  0.1463  0.0653  0.2105
 4732TIP3    H135611   4.307   3.950  13.057  0.0790  2.3956  1.6029
 4732TIP3    H235612   4.207   3.848  13.106  1.0353 -0.2791 -1.6500
 4733TIP3   OH235613   3.627   0.551  15.002 -0.2572 -0.0633  0.2427
 4733TIP3    H135614   3.613   0.463  15.037 -0.4136 -0.0178  0.2939
 4733TIP3    H235615   3.542   0.594  15.008 -0.7829 -0.6935 -2.0370
 4734TIP3   OH235616   2.933   3.637  15.039  0.3173 -0.3327  0.6028
 4734TIP3    H135617   2.955   3.712  14.984  1.5650 -0.7783  0.4544
 4734TIP3    H235618   2.859   3.596  14.994  1.1857 -0.5786 -0.6836
 4735TIP3   OH235619   6.528   0.932  12.048  0.5866  0.1045 -0.1007
 4735TIP3    H135620   6.557   1.023  12.042 -0.6427  0.4934 -0.3589
 4735TIP3    H235621   6.488   0.925  12.135  1.8818 -0.5786  0.4771
 4736TIP3   OH235622   4.622   1.695  11.670  0.0051  0.6292 -0.2213
 4736TIP3    H135623   4.607   1.610  11.627 -0.6664  0.5275  0.2051
 4736TIP3    H235624   4.712   1.718  11.646 -0.0013  0.0694 -0.8125
 4737TIP3   OH235625   1.461   0.974   4.722  0.2218  0.0596 -0.2783
 4737TIP3    H135626   1.404   1.014   4.788  0.7145 -0.5649  0.5408
 4737TIP3    H235627   1.547   1.015   4.736 -0.2379  1.9122 -2.3073
 4738TIP3   OH235628   0.352   3.143  14.064  0.2042  0.2818 -0.2825
 4738TIP3    H135629   0.343   3.112  14.154  1.5471  1.3548  0.2422
 4738TIP3    H235630   0.278   3.103  14.018 -0.3475 -0.5037  1.2222
 4739TIP3   OH235631   2.029   6.617   5.257 -0.2938 -0.0991 -0.4969
 4739TIP3    H135632   1.963   6.561   5.298  0.4563 -0.4188  0.2884
 4739TIP3    H235633   2.098   6.557   5.229  0.2690  0.3725 -0.1356
 4740TIP3   OH235634   5.765   2.947   4.031 -0.2784 -0.3075  0.0355
 4740TIP3    H135635   5.744   2.854   4.027  1.5178 -0.7597  0.0468
 4740TIP3    H235636   5.852   2.950   4.073 -0.0941  1.3252 -0.4011
 4741TIP3   OH235637   5.979   5.067  15.338 -0.0405  0.4069 -0.1256
 4741TIP3    H135638   5.907   5.130  15.329  0.7382  1.2238 -0.7601
 4741TIP3    H235639   5.950   4.991  15.289 -0.7465  0.4829  0.1627
 4742TIP3   OH235640   5.194   1.523  12.976  0.0670  0.2930  0.1952
 4742TIP3    H135641   5.265   1.586  12.964 -1.2776  1.6083 -1.3166
 4742TIP3    H235642   5.238   1.438  12.981  1.7481  1.0578 -0.7519
 4743TIP3   OH235643   3.979   6.094   3.467  0.1747  0.1471  0.4213
 4743TIP3    H135644   4.053   6.138   3.508  0.6819 -0.0981 -0.2110
 4743TIP3    H235645   3.915   6.085   3.537  0.9552 -0.1285  1.1176
 4744TIP3   OH235646   0.145   4.569  11.614 -0.0384  0.1138 -0.9171
 4744TIP3    H135647   0.066   4.517  11.598 -0.3309  0.5334 -0.8265
 4744TIP3    H235648   0.204   4.544  11.542  0.2958 -1.2519 -0.2085
 4745TIP3   OH235649   4.614   1.335  14.771 -0.2276 -0.0045 -0.1608
 4745TIP3    H135650   4.549   1.298  14.831 -1.2236  1.1541 -0.4608
 4745TIP3    H235651   4.604   1.284  14.691  0.2719 -0.7853  0.2643
 4746TIP3   OH235652   0.022   1.984   2.594 -0.5728 -0.0165  0.0077
 4746TIP3    H135653  -0.050   1.981   2.656 -0.4818 -0.0981  0.1079
 4746TIP3    H235654  -0.010   2.041   2.524 -1.0663 -0.7285 -0.3644
 4747TIP3   OH235655   5.659   4.135   1.088  0.0744  0.7907  0.1157
 4747TIP3    H135656   5.704   4.166   1.167  0.0380  1.4078 -0.1002
 4747TIP3    H235657   5.586   4.083   1.122  0.5960  0.2863  0.4745
 4748TIP3   OH235658   0.897   3.592  11.512  0.2495  0.1930 -0.1235
 4748TIP3    H135659   0.859   3.567  11.596 -0.0283  0.7262 -0.0822
 4748TIP3    H235660   0.822   3.622  11.460  0.4443  0.0442 -0.4941
 4749TIP3   OH235661   2.213   3.074   3.770 -0.3644 -0.0771  0.8571
 4749TIP3    H135662   2.227   3.164   3.742  0.2824 -0.4234  0.0402
 4749TIP3    H235663   2.300   3.045   3.799 -0.1014 -1.0929 -0.8465
 4750TIP3   OH235664   3.838   0.029   3.585  0.3453 -0.4692 -0.2447
 4750TIP3    H135665   3.916   0.080   3.565  0.2272 -0.6834 -1.3590
 4750TIP3    H235666   3.846  -0.049   3.530 -0.7627 -0.3717 -0.5712
 4751TIP3   OH235667   4.403   1.291   6.387 -0.3911  0.2521  0.1047
 4751TIP3    H135668   4.348   1.351   6.438 -1.2348 -0.4662  0.0795
 4751TIP3    H235669   4.362   1.288   6.301 -1.6481 -1.9274  0.6930
 4752TIP3   OH235670   0.242   3.644  12.423  0.1586  0.1595  0.4679
 4752TIP3    H135671   0.303   3.586  12.378  1.0217  0.5405  1.1018
 4752TIP3    H235672   0.186   3.586  12.474  0.3077 -0.1716  0.2552
 4753TIP3   OH235673   1.320   5.960  14.085 -0.4208 -0.3836 -0.6796
 4753TIP3    H135674   1.288   6.038  14.130  1.2878 -0.3482  0.6085
 4753TIP3    H235675   1.309   5.979  13.992 -1.2149  0.8448 -0.3592
 4754TIP3   OH235676   5.620   1.849  11.181 -0.1159 -0.1738 -0.1472
 4754TIP3    H135677   5.668   1.911  11.236  2.5159 -1.6485 -0.6203
 4754TIP3    H235678   5.617   1.891  11.095 -1.8757  0.9576  0.4144
 4755TIP3   OH235679   1.143   6.761   4.603  0.4860 -0.2992 -0.1378
 4755TIP3    H135680   1.111   6.689   4.549  1.8788  0.5261 -2.1634
 4755TIP3    H235681   1.113   6.739   4.692 -1.1180 -2.1509 -1.0621
 4756TIP3   OH235682   2.438   2.224  15.813 -0.2799  0.5438  0.2882
 4756TIP3    H135683   2.495   2.164  15.860  1.2377  1.1743 -0.6933
 4756TIP3    H235684   2.456   2.208  15.720  0.4703  2.7510 -0.0029
 4757TIP3   OH235685   1.774   6.664  15.982 -0.3007  0.1126 -0.3034
 4757TIP3    H135686   1.855   6.698  15.943  0.0375  0.0685  0.3371
 4757TIP3    H235687   1.786   6.569  15.981 -0.2057  0.1194  0.0764
 4758TIP3   OH235688   6.057   3.075  12.134  0.2847  0.1633 -0.1337
 4758TIP3    H135689   6.147   3.094  12.107  0.6092 -2.5568 -1.3521
 4758TIP3    H235690   6.003   3.135  12.082  1.3428  1.7055  0.4856
 4759TIP3   OH235691   0.184   4.957  16.037  0.2757  0.3031 -0.3003
 4759TIP3    H135692   0.142   4.930  16.118 -1.8919 -0.5766 -1.6147
 4759TIP3    H235693   0.262   4.902  16.031 -0.7915 -1.3185  0.0767
 4760TIP3   OH235694   3.300   6.103  15.428  0.0911 -0.5061 -0.3117
 4760TIP3    H135695   3.247   6.030  15.394  0.7996 -0.5942 -1.2573
 4760TIP3    H235696   3.303   6.088  15.523 -0.6425 -1.1172 -0.3719
 4761TIP3   OH235697   4.808   1.117   2.371  0.3596  0.3260  0.4449
 4761TIP3    H135698   4.726   1.145   2.330  1.6012 -0.1963 -2.6361
 4761TIP3    H235699   4.827   1.186   2.435 -2.1080  0.7938  0.7707
 4762TIP3   OH235700   6.500   5.697  13.964  0.4980  0.4222 -0.1319
 4762TIP3    H135701   6.553   5.658  13.894  0.0945  1.6244 -1.1273
 4762TIP3    H235702   6.542   5.667  14.045 -0.0833 -2.4756 -0.8069
 4763TIP3   OH235703   4.953   5.783   3.463  0.4360 -0.0488 -0.2651
 4763TIP3    H135704   4.983   5.821   3.381 -0.9058  0.0192 -0.7417
 4763TIP3    H235705   4.899   5.708   3.437  0.1041 -0.1062  0.5612
 4764TIP3   OH235706   1.073   0.051   2.789  0.3247  0.2252 -0.1023
 4764TIP3    H135707   1.152  -0.004   2.787  0.1707  0.0050 -0.1847
 4764TIP3    H235708   1.072   0.095   2.705  1.0621  1.2326  0.3982
 4765TIP3   OH235709   4.670   4.386   1.826  0.2184 -0.1155 -0.0403
 4765TIP3    H135710   4.736   4.333   1.781  0.1755 -1.2426  1.1812
 4765TIP3    H235711   4.687   4.372   1.919 -0.2572  1.4753  0.3172
 4766TIP3   OH235712   5.458   5.950   3.744  0.1302 -0.3718 -0.3399
 4766TIP3    H135713   5.511   5.886   3.790  3.0082  1.6531 -0.5707
 4766TIP3    H235714   5.447   5.915   3.656 -0.3778 -1.5569  0.1683
 4767TIP3   OH235715   6.128   2.328  16.230  0.2370  0.4495 -0.3002
 4767TIP3    H135716   6.091   2.413  16.206  1.0638  0.5575 -1.2501
 4767TIP3    H235717   6.217   2.330  16.195 -0.1446 -1.3020 -1.5035
 4768TIP3   OH235718   4.760   3.941  14.923  0.5231 -0.1566 -0.3363
 4768TIP3    H135719   4.789   3.850  14.927  0.3112 -0.2953 -1.4776
 4768TIP3    H235720   4.818   3.981  14.858 -0.2284  0.1740 -0.8263
 4769TIP3   OH235721   5.610   6.282  14.873  0.4439  0.1141 -0.0661
 4769TIP3    H135722   5.662   6.308  14.798 -0.8012  1.2101 -0.5887
 4769TIP3    H235723   5.519   6.285  14.842 -0.2404  2.2042  1.8580
 4770TIP3   OH235724   4.831   2.126  13.503  0.2747  0.2852  0.4183
 4770TIP3    H135725   4.912   2.104  13.550  0.2458  0.7939  0.7221
 4770TIP3    H235726   4.842   2.218  13.478 -0.2228  0.3752  0.5051
 4771TIP3   OH235727   4.984   2.195  12.560 -0.3814 -0.2501  0.5666
 4771TIP3    H135728   5.001   2.157  12.646  1.6991  1.0345  0.7839
 4771TIP3    H235729   4.923   2.267  12.577  1.0825  0.8733  1.2184
 4772TIP3   OH235730   1.452   3.081  11.339 -0.0654  0.8984 -0.5212
 4772TIP3    H135731   1.369   3.060  11.298  0.6336 -2.2764 -0.5233
 4772TIP3    H235732   1.430   3.146  11.406 -2.5968 -0.0528 -0.3194
 4773TIP3   OH235733   5.071   5.177   4.367  0.4147  0.3983  0.1655
 4773TIP3    H135734   4.991   5.172   4.314 -0.2475  0.3041  1.1498
 4773TIP3    H235735   5.117   5.095   4.348  0.7979  0.8826 -1.1727
 4774TIP3   OH235736   1.639   2.297  11.025  0.0181  0.7501  0.9665
 4774TIP3    H135737   1.545   2.282  11.035 -0.7141  3.3493 -0.8527
 4774TIP3    H235738   1.669   2.223  10.973 -1.0215 -0.0749  1.4929
 4775TIP3   OH235739   6.672   6.305  16.289 -0.1534 -0.3993  0.4561
 4775TIP3    H135740   6.649   6.277  16.378 -0.3637  0.7693  0.7859
 4775TIP3    H235741   6.749   6.360  16.300 -0.9211  0.7791  0.0687
 4776TIP3   OH235742   3.505   4.178   4.382  0.1917  0.0756 -0.4439
 4776TIP3    H135743   3.498   4.253   4.441 -2.4118 -1.1741  1.0548
 4776TIP3    H235744   3.436   4.192   4.317  0.6224 -0.3502 -1.0032
 4777TIP3   OH235745   1.788   1.384   1.290 -0.3877 -0.0509  0.0600
 4777TIP3    H135746   1.766   1.330   1.214 -0.6840 -0.7410  0.6221
 4777TIP3    H235747   1.790   1.474   1.256 -3.2005 -0.0096 -0.2493
 4778TIP3   OH235748   5.389   6.618   5.312  0.0449  0.6667 -0.1351
 4778TIP3    H135749   5.365   6.526   5.308 -3.8814  1.3613  2.3488
 4778TIP3    H235750   5.485   6.618   5.308  0.2326 -3.5046  0.2383
 4779TIP3   OH235751   1.640   2.022  12.660  0.4137  0.6167  0.2704
 4779TIP3    H135752   1.662   2.115  12.664  1.6431  0.3440  0.2622
 4779TIP3    H235753   1.616   2.007  12.568 -0.5601  1.0844  0.4447
 4780TIP3   OH235754   1.152   2.965  15.277  0.0535  0.5136 -0.1333
 4780TIP3    H135755   1.221   2.906  15.247 -0.5704  0.3560 -1.3219
 4780TIP3    H235756   1.071   2.919  15.256 -0.4278  1.2587  0.0592
 4781TIP3   OH235757   3.243   6.125   1.308  0.2678  0.6418  0.3213
 4781TIP3    H135758   3.209   6.045   1.268  0.9014  0.5315 -0.0018
 4781TIP3    H235759   3.165   6.178   1.324 -0.1585 -0.0416  0.5548
 4782TIP3   OH235760   1.593   4.677   4.036  0.1028  0.1555  0.1720
 4782TIP3    H135761   1.684   4.648   4.038 -0.0055 -0.3358 -1.1348
 4782TIP3    H235762   1.576   4.697   3.944 -1.1308  0.1957  0.3899
 4783TIP3   OH235763   2.369   0.815  17.291 -0.3876  0.0066  0.3865
 4783TIP3    H135764   2.386   0.900  17.332 -1.0260 -0.4411  1.6298
 4783TIP3    H235765   2.278   0.796  17.311 -0.1058 -1.2290  0.5961
 4784TIP3   OH235766   5.468   5.007  15.770 -0.1611  0.1958  0.0294
 4784TIP3    H135767   5.514   4.930  15.736 -1.5216 -0.5064 -0.3014
 4784TIP3    H235768   5.521   5.036  15.844  0.4207 -1.0085  0.1133
 4785TIP3   OH235769   1.784   3.775  12.243  0.7933 -0.5520 -0.0072
 4785TIP3    H135770   1.705   3.768  12.189  1.6264  0.7251 -1.4862
 4785TIP3    H235771   1.753   3.765  12.333 -0.8039 -1.6666 -0.6398
 4786TIP3   OH235772   5.866   2.206   4.938  0.0072 -0.2041 -0.7161
 4786TIP3    H135773   5.872   2.289   4.892 -0.6673  0.5287  0.4644
 4786TIP3    H235774   5.773   2.184   4.937  0.0146 -0.3081  0.0380
 4787TIP3   OH235775   3.222   6.468  11.391 -0.5499 -0.7083  0.0891
 4787TIP3    H135776   3.178   6.441  11.472 -1.7677  2.1373  0.5138
 4787TIP3    H235777   3.163   6.438  11.321 -2.0927  1.0470  0.5551
 4788TIP3   OH235778   2.306   2.257  13.612 -0.1021  0.2077  0.8630
 4788TIP3    H135779   2.246   2.187  13.639  1.3814 -1.4595  0.0012
 4788TIP3    H235780   2.313   2.247  13.518  3.6413 -1.5266  1.1473
 4789TIP3   OH235781   1.456   5.320  12.471 -0.2890 -0.1135 -0.5586
 4789TIP3    H135782   1.508   5.327  12.551 -1.3541 -2.4408  0.4264
 4789TIP3    H235783   1.422   5.409  12.457  2.5306  1.1218 -0.3679
 4790TIP3   OH235784   4.838   1.722   0.498  0.2872  0.0678  0.9315
 4790TIP3    H135785   4.893   1.644   0.492 -1.8957 -1.4829 -0.2166
 4790TIP3    H235786   4.900   1.795   0.496  2.3027 -1.5382 -0.8812
 4791TIP3   OH235787   4.485   5.825   0.649 -0.1060  0.5697 -0.3970
 4791TIP3    H135788   4.446   5.908   0.678  0.8669  0.6462  0.7562
 4791TIP3    H235789   4.414   5.762   0.655 -0.6508  1.1571 -0.5224
 4792TIP3   OH235790   3.802   6.035   0.092 -0.0552 -0.3600  0.2860
 4792TIP3    H135791   3.719   6.074   0.066  0.3909  0.4244  0.0017
 4792TIP3    H235792   3.868   6.090   0.051  0.6280 -0.3070  1.4061
 4793TIP3   OH235793   3.712   3.798   4.688  0.0659  0.0629 -0.9607
 4793TIP3    H135794   3.649   3.870   4.695 -0.8713 -0.7213 -1.2027
 4793TIP3    H235795   3.668   3.732   4.634  0.6117 -1.0110 -0.1331
 4794TIP3   OH235796   0.158   5.903   2.217  0.5400  0.2544  0.5172
 4794TIP3    H135797   0.096   5.852   2.166  1.5530 -1.8349  1.2428
 4794TIP3    H235798   0.130   5.994   2.205 -0.1677 -0.2482 -2.4453
 4795TIP3   OH235799   2.817   4.960  14.308  0.0936  0.0270 -0.1988
 4795TIP3    H135800   2.741   4.922  14.353 -0.3734 -1.2150 -1.9267
 4795TIP3    H235801   2.781   4.998  14.228  1.3510 -1.2203 -1.3994
 4796TIP3   OH235802   2.593   2.418  15.985 -0.3334 -0.6655 -0.2739
 4796TIP3    H135803   2.501   2.413  16.013 -1.1823  2.2875 -2.1149
 4796TIP3    H235804   2.590   2.412  15.890  1.0085  2.1081 -0.5911
 4797TIP3   OH235805   0.498   1.552  16.102 -0.3177  0.5771 -0.1129
 4797TIP3    H135806   0.538   1.526  16.185  1.1337  1.0894 -0.6161
 4797TIP3    H235807   0.456   1.636  16.120  0.9799  1.2498 -0.1562
 4798TIP3   OH235808   3.588   2.386   0.280  0.3140  0.3129 -0.0930
 4798TIP3    H135809   3.506   2.348   0.313  0.9284  0.6662  1.9914
 4798TIP3    H235810   3.653   2.316   0.292  0.2883 -0.1082 -2.1101
 4799TIP3   OH235811   1.920   1.886  16.516  0.0597  0.6079  0.1698
 4799TIP3    H135812   1.938   1.793  16.511  1.3986  0.8541  0.1180
 4799TIP3    H235813   1.867   1.896  16.596  2.1076  0.0991  1.6809
 4800TIP3   OH235814   4.316   1.296   6.743 -0.2003  0.3610 -0.0159
 4800TIP3    H135815   4.240   1.239   6.740 -1.1937  1.5794  0.9133
 4800TIP3    H235816   4.304   1.357   6.670  0.7117 -0.3992 -0.8314
 4801TIP3   OH235817   5.781   5.484   4.281  0.2056  0.1012 -0.1995
 4801TIP3    H135818   5.858   5.540   4.291  0.0985  0.6703 -2.0476
 4801TIP3    H235819   5.720   5.515   4.348  0.1625  2.2644 -1.1369
 4802TIP3   OH235820   5.785   2.946  14.027  0.2643 -0.4177 -0.1752
 4802TIP3    H135821   5.705   2.994  14.049  0.8289  0.2261  0.5087
 4802TIP3    H235822   5.840   2.954  14.104  0.7763 -1.3329 -0.4309
 4803TIP3   OH235823   2.814   3.023  15.878  0.4667 -0.1004  0.1606
 4803TIP3    H135824   2.721   3.044  15.884  0.9809  2.2241  1.0618
 4803TIP3    H235825   2.828   3.000  15.786 -0.5156  2.2958 -0.6598
 4804TIP3   OH235826   2.761   0.323  15.033  0.4477  0.6349  0.6456
 4804TIP3    H135827   2.775   0.231  15.054 -0.2520  0.7319  1.6127
 4804TIP3    H235828   2.668   0.328  15.009  0.4053  1.1385  0.9048
 4805TIP3   OH235829   6.291   2.104  14.474 -0.2950  0.1182 -0.2226
 4805TIP3    H135830   6.208   2.078  14.513  0.2692 -1.0428  0.2368
 4805TIP3    H235831   6.353   2.036  14.499  0.7752  0.8770 -0.6837
 4806TIP3   OH235832   4.908   3.966   6.632  0.3101 -0.4176 -1.5154
 4806TIP3    H135833   4.892   4.034   6.697  1.6683 -2.7378  1.5227
 4806TIP3    H235834   4.982   3.998   6.580  0.2358  0.8308 -0.8885
 4807TIP3   OH235835   2.573   0.018  13.710 -0.0962 -0.3604 -0.2776
 4807TIP3    H135836   2.657   0.011  13.755 -1.5756 -1.6994  2.5372
 4807TIP3    H235837   2.520   0.073  13.767 -0.7268  1.9629 -2.8749
 4808TIP3   OH235838   3.059   3.686   3.382  0.0466  0.3767 -0.2702
 4808TIP3    H135839   3.075   3.663   3.290 -1.1719 -0.3446 -0.3229
 4808TIP3    H235840   2.996   3.621   3.412  0.2471  0.7543  1.0215
 4809TIP3   OH235841   4.918   6.223  15.680 -0.5780 -0.2342  0.3853
 4809TIP3    H135842   4.953   6.239  15.768 -0.0629  2.5566 -0.2533
 4809TIP3    H235843   4.857   6.295  15.664  0.6504  0.3505 -2.1729
 4810TIP3   OH235844   5.147   4.762  15.314 -0.2190  0.2357  0.2189
 4810TIP3    H135845   5.168   4.853  15.338 -0.3976  0.4525 -0.4362
 4810TIP3    H235846   5.053   4.754  15.329 -0.4990  0.6309 -1.1892
 4811TIP3   OH235847   3.170   1.714  15.433 -0.2922  0.0935 -0.3946
 4811TIP3    H135848   3.225   1.778  15.389 -1.3033  0.0725 -1.7445
 4811TIP3    H235849   3.091   1.761  15.456  0.6804  0.4718  2.7092
 4812TIP3   OH235850   6.618   4.978   1.981  0.2140 -0.6570 -0.3908
 4812TIP3    H135851   6.523   4.972   1.970  0.1821  0.9896 -1.3950
 4812TIP3    H235852   6.634   4.939   2.067 -1.5036 -0.1539  0.2163
 4813TIP3   OH235853   4.342   6.159   6.259  0.0924 -0.1780  0.0214
 4813TIP3    H135854   4.411   6.094   6.274  0.0251  0.1000  1.7086
 4813TIP3    H235855   4.388   6.238   6.234  0.3130 -0.2380  0.2448
 4814TIP3   OH235856   1.161   6.196   2.132 -0.2482 -0.1574  0.6637
 4814TIP3    H135857   1.185   6.258   2.201 -0.8877  1.3128 -0.3630
 4814TIP3    H235858   1.144   6.114   2.178 -1.1135  0.8858  2.3131
 4815TIP3   OH235859   4.460   5.954   3.952  0.2516 -0.1129 -0.1675
 4815TIP3    H135860   4.477   6.011   3.877  1.3796 -0.8156 -0.4693
 4815TIP3    H235861   4.411   6.009   4.014  2.8508  1.8152  0.3498
 4816TIP3   OH235862   6.000   2.721  10.996 -0.5352  0.4245  0.5918
 4816TIP3    H135863   5.964   2.808  10.976 -1.3656  0.4528  2.0829
 4816TIP3    H235864   6.035   2.690  10.912 -1.5281  1.5831 -0.2877
 4817TIP3   OH235865   3.340   4.734  11.402  0.0338  0.2354  0.1225
 4817TIP3    H135866   3.334   4.818  11.448 -0.2269 -0.2449  0.9979
 4817TIP3    H235867   3.327   4.756  11.310 -1.1604  1.0225  0.4464
 4818TIP3   OH235868   4.251   5.452  16.844 -0.7710  0.0513  0.4477
 4818TIP3    H135869   4.173   5.414  16.803 -0.8779  1.3289 -0.6076
 4818TIP3    H235870   4.268   5.531  16.794  1.3621 -0.3071  0.5063
 4819TIP3   OH235871   5.359   3.295  14.205  0.3973  0.7854  0.5385
 4819TIP3    H135872   5.409   3.324  14.128 -2.1179  3.2266 -0.3017
 4819TIP3    H235873   5.423   3.294  14.276  1.7747  3.3603 -0.5537
 4820TIP3   OH235874   1.876   3.494   2.127  0.3582  0.0511  0.2217
 4820TIP3    H135875   1.945   3.560   2.118 -0.2071  0.8052  1.1897
 4820TIP3    H235876   1.865   3.458   2.039  0.6039  1.3390 -0.3631
 4821TIP3   OH235877   1.523   2.308  15.022 -0.5407  0.1603  0.3990
 4821TIP3    H135878   1.443   2.337  15.066 -0.7058  1.9668 -0.9816
 4821TIP3    H235879   1.568   2.389  14.999  0.3797 -0.7572 -1.1989
 4822TIP3   OH235880   3.213   2.863   5.905  0.5684  0.2991 -0.2023
 4822TIP3    H135881   3.192   2.862   5.998 -1.4509 -1.0591 -0.6097
 4822TIP3    H235882   3.268   2.940   5.894  0.6282  0.6529  2.0583
 4823TIP3   OH235883   6.779   1.277   2.584 -0.0549 -0.2171  0.1516
 4823TIP3    H135884   6.774   1.345   2.651  0.6782  0.6061 -0.6125
 4823TIP3    H235885   6.700   1.289   2.531  0.2598  0.2782 -0.2061
 4824TIP3   OH235886   5.239   3.154  10.580 -0.2379  0.3456  0.6128
 4824TIP3    H135887   5.267   3.245  10.594  0.4943  0.4208 -1.0161
 4824TIP3    H235888   5.258   3.110  10.662  0.6464  1.3905  1.0049
 4825TIP3   OH235889   6.405   6.620  13.990 -0.5595 -0.5897  0.5614
 4825TIP3    H135890   6.494   6.592  13.968 -0.6851 -0.4352 -0.1754
 4825TIP3    H235891   6.393   6.701  13.941 -0.8463 -0.2120  1.2452
 4826TIP3   OH235892   6.237   3.357  16.012 -0.1897  0.2503  0.3323
 4826TIP3    H135893   6.197   3.271  16.005 -0.6354  0.5856 -1.9025
 4826TIP3    H235894   6.167   3.413  16.048 -0.1466 -0.1382  1.0394
 4827TIP3   OH235895   2.610   5.724  12.037  0.0442  0.2649  0.2663
 4827TIP3    H135896   2.536   5.741  11.978  0.0532 -0.1440  0.1329
 4827TIP3    H235897   2.606   5.630  12.054  0.7422  0.1804 -0.0178
 4828TIP3   OH235898   5.350   6.301  13.515  0.0295  0.7158  0.9783
 4828TIP3    H135899   5.427   6.317  13.570  1.1254 -1.7549  0.3218
 4828TIP3    H235900   5.277   6.297  13.578  0.5587  2.1448  1.7223
 4829TIP3   OH235901   6.237   4.356  16.650  0.2367 -0.0193  0.3732
 4829TIP3    H135902   6.191   4.432  16.685  1.6469  0.7705  0.5651
 4829TIP3    H235903   6.232   4.366  16.555 -0.0971 -0.0322  0.3842
 4830TIP3   OH235904   5.528   1.943  11.565  0.2768  0.3026  0.2455
 4830TIP3    H135905   5.518   2.010  11.497 -0.7462  0.2343  0.3145
 4830TIP3    H235906   5.540   1.994  11.646 -0.7295  0.4257  0.3326
 4831TIP3   OH235907   2.946   3.224   2.355  0.2846 -0.3249  0.0755
 4831TIP3    H135908   2.869   3.187   2.398  0.9305 -1.9263 -0.0891
 4831TIP3    H235909   2.993   3.148   2.321  1.7799  0.6483 -0.0987
 4832TIP3   OH235910   0.786   4.841  14.057  0.3934  0.5138 -0.4055
 4832TIP3    H135911   0.837   4.796  14.124  0.5265  0.4686 -0.5382
 4832TIP3    H235912   0.819   4.931  14.059  0.4676  0.4889 -0.4789
 4833TIP3   OH235913   0.365   5.223   3.654 -0.3118  0.0085  0.1370
 4833TIP3    H135914   0.459   5.218   3.638 -0.2318  0.6871  0.3516
 4833TIP3    H235915   0.332   5.283   3.587 -0.6132 -0.3388 -0.0283
 4834TIP3   OH235916   4.110   0.395   0.933 -0.5511 -0.2805 -0.4149
 4834TIP3    H135917   4.018   0.404   0.906 -0.7850 -2.8047 -0.7808
 4834TIP3    H235918   4.140   0.315   0.888  1.5545 -0.0096  0.4056
 4835TIP3   OH235919   1.424   4.700  14.691 -0.0036 -0.2887  0.0325
 4835TIP3    H135920   1.487   4.769  14.674  0.0214 -0.5353 -0.9231
 4835TIP3    H235921   1.437   4.677  14.783  0.7048  0.2509  0.0703
 4836TIP3   OH235922   3.493   2.160  15.838 -0.4927  0.2494  0.8310
 4836TIP3    H135923   3.460   2.090  15.783  1.3654  0.1704 -0.2629
 4836TIP3    H235924   3.437   2.235  15.817 -0.5961 -0.1134 -0.2746
 4837TIP3   OH235925   5.982   0.422  15.567 -0.5922  0.0279  0.4927
 4837TIP3    H135926   6.011   0.393  15.480  0.8186 -0.0767  0.9741
 4837TIP3    H235927   5.897   0.381  15.579  0.9172 -3.3183  0.7854
 4838TIP3   OH235928   4.169   3.010   3.709 -0.5652  1.2630  0.1778
 4838TIP3    H135929   4.079   2.979   3.697 -1.2746  2.9779  0.6874
 4838TIP3    H235930   4.165   3.063   3.789  0.9840  1.0990  0.3893
 4839TIP3   OH235931   3.757   4.323  16.117 -0.2909  0.1547  0.1329
 4839TIP3    H135932   3.776   4.246  16.063 -1.6147 -1.0379  1.3048
 4839TIP3    H235933   3.692   4.293  16.180 -2.1648  2.6660 -0.4514
 4840TIP3   OH235934   6.300   5.737   1.214 -0.7258  0.4026 -0.0982
 4840TIP3    H135935   6.312   5.695   1.299 -2.5914  1.9900  1.0384
 4840TIP3    H235936   6.387   5.772   1.193  0.3516 -2.0298 -0.0765
 4841TIP3   OH235937   0.809   0.819   0.258  0.0205  0.2753  0.1031
 4841TIP3    H135938   0.770   0.879   0.193 -1.3884 -1.9724 -1.2707
 4841TIP3    H235939   0.903   0.836   0.252 -0.1730  1.0143 -1.6433
 4842TIP3   OH235940   0.052   0.161  13.968  0.3418  0.0074 -0.1038
 4842TIP3    H135941  -0.022   0.165  14.028  1.4052  0.7068  1.2095
 4842TIP3    H235942   0.072   0.252  13.948  1.3969 -0.1279  0.2758
 4843TIP3   OH235943   3.168   6.109   0.229 -0.5343 -0.3143 -0.3221
 4843TIP3    H135944   3.190   6.182   0.287  1.1410  0.0250 -1.3080
 4843TIP3    H235945   3.251   6.086   0.187 -1.6685 -0.4543 -2.6727
 4844TIP3   OH235946   3.728   1.659   4.021  0.3569  0.0450 -0.0490
 4844TIP3    H135947   3.679   1.705   4.090  0.5825 -0.8618  0.7304
 4844TIP3    H235948   3.820   1.668   4.047  0.5495  0.8182 -0.9433
 4845TIP3   OH235949   0.532   4.569   0.002 -0.1781  0.5679 -0.4502
 4845TIP3    H135950   0.578   4.525  -0.069 -0.9360  0.9016 -1.1567
 4845TIP3    H235951   0.563   4.659  -0.001  1.4428  0.1145  1.0549
 4846TIP3   OH235952   4.768   2.366  14.203 -0.0059  0.2472  0.5782
 4846TIP3    H135953   4.688   2.314  14.193 -1.6609  2.3418  1.8479
 4846TIP3    H235954   4.764   2.430  14.132  0.6089  0.2920  0.5833
 4847TIP3   OH235955   3.551   0.492  16.848  0.0291 -0.4566  0.1265
 4847TIP3    H135956   3.630   0.440  16.834  0.7601  0.9970 -1.3575
 4847TIP3    H235957   3.582   0.579  16.870 -1.1346  0.3576 -1.3023
 4848TIP3   OH235958   0.684   6.077   4.038  0.1615  0.4958  0.2908
 4848TIP3    H135959   0.645   6.151   3.990  0.1994 -0.6062 -1.5545
 4848TIP3    H235960   0.773   6.070   4.002 -0.9384 -2.5804 -2.2837
 4849TIP3   OH235961   6.002   4.934  12.257 -0.0423 -0.2026  0.4997
 4849TIP3    H135962   5.960   4.983  12.186  1.5318  0.2899 -0.1449
 4849TIP3    H235963   6.051   4.864  12.212  1.0844  0.1935  1.0711
 4850TIP3   OH235964   0.040   6.453  14.321  0.5071  0.5746 -0.4631
 4850TIP3    H135965  -0.009   6.498  14.253 -2.4375  0.7073  1.5456
 4850TIP3    H235966   0.075   6.524  14.376  1.8283  0.4452 -1.0975
 4851TIP3   OH235967   1.689   0.329   2.717  0.4003  0.2989  0.3063
 4851TIP3    H135968   1.674   0.235   2.712 -0.8368  0.3160  2.5660
 4851TIP3    H235969   1.780   0.337   2.745 -0.2259 -0.3787  2.7735
 4852TIP3   OH235970   1.826   0.222   2.067  0.0553  0.4883  0.7198
 4852TIP3    H135971   1.748   0.183   2.028  1.9359 -0.5256 -2.3965
 4852TIP3    H235972   1.864   0.152   2.119  0.1622  0.1737  0.2233
 4853TIP3   OH235973   1.235   4.046   2.659 -0.2061 -0.2780 -0.3370
 4853TIP3    H135974   1.292   3.970   2.664  0.2149  0.0559  0.0738
 4853TIP3    H235975   1.154   4.019   2.700  0.2941 -0.1964  0.7235
 4854TIP3   OH235976   2.609   4.391   6.924 -0.1490 -0.5239  0.4837
 4854TIP3    H135977   2.693   4.400   6.970  0.0063 -1.8324  0.4956
 4854TIP3    H235978   2.610   4.301   6.889 -0.4768  0.2484 -1.6562
 4855TIP3   OH235979   0.979   0.420   2.158  0.4434  0.4258 -0.1443
 4855TIP3    H135980   0.901   0.408   2.211  1.6425 -0.3532  1.5459
 4855TIP3    H235981   1.001   0.513   2.167 -1.1151  1.0461 -1.9519
 4856TIP3   OH235982   5.451   4.896  11.453 -0.0487 -0.0255 -0.3344
 4856TIP3    H135983   5.437   4.987  11.426 -0.2764  0.4119  1.1574
 4856TIP3    H235984   5.500   4.857  11.381 -1.7665  0.6831 -1.9761
 4857TIP3   OH235985   0.159   0.632   3.783 -0.0951 -0.5286  1.2693
 4857TIP3    H135986   0.217   0.605   3.854 -0.5372 -1.7419  1.1945
 4857TIP3    H235987   0.216   0.644   3.708  0.1172 -1.3834  1.2826
 4858TIP3   OH235988   6.293   5.688  14.932  0.5640  0.5926 -0.4065
 4858TIP3    H135989   6.363   5.701  14.868  2.0597 -0.9429  0.8057
 4858TIP3    H235990   6.292   5.769  14.984  1.5984  0.5671 -0.3284
 4859TIP3   OH235991   2.324   2.716  16.421  0.0233  0.1372 -0.3940
 4859TIP3    H135992   2.232   2.740  16.425 -0.1499 -0.3790 -1.0447
 4859TIP3    H235993   2.335   2.679  16.333  0.9497  0.6010 -0.4783
 4860TIP3   OH235994   4.536   4.057   0.910  0.1229 -0.0085  0.1322
 4860TIP3    H135995   4.574   4.027   0.993  1.3060 -0.3958 -0.5191
 4860TIP3    H235996   4.446   4.025   0.912  0.1851 -0.1726  1.1837
 4861TIP3   OH235997   1.825   0.041  12.401 -0.1236  0.1705 -0.2180
 4861TIP3    H135998   1.786   0.020  12.485 -0.4566  1.7713  0.0685
 4861TIP3    H235999   1.769  -0.002  12.337 -0.1851 -0.6045  0.3490
 4862TIP3   OH236000   2.391   3.332   5.957  0.6294  0.6579  0.0773
 4862TIP3    H136001   2.390   3.428   5.962  1.4748  0.7464 -1.1727
 4862TIP3    H236002   2.357   3.304   6.043  0.5882  2.0620  0.5509
 4863TIP3   OH236003   5.857   1.787  10.287 -0.0984 -0.1058 -0.5821
 4863TIP3    H136004   5.822   1.740  10.211  1.6267  0.9831 -2.1292
 4863TIP3    H236005   5.935   1.736  10.312 -0.3884 -0.1902  0.1596
 4864TIP3   OH236006   5.013   4.948   1.396 -0.0200  0.4152 -0.3945
 4864TIP3    H136007   5.090   4.961   1.341 -0.0794 -2.2800 -1.2350
 4864TIP3    H236008   4.956   4.890   1.346 -2.0998  1.3649  0.7194
 4865TIP3   OH236009   4.830   0.077  14.312  0.9534  0.5532 -0.3633
 4865TIP3    H136010   4.745   0.121  14.304  0.6934  0.3463  1.0078
 4865TIP3    H236011   4.822   0.022  14.390  2.0391 -0.2012 -0.7526
 4866TIP3   OH236012   6.177   2.290  16.842  0.3085 -0.4563  0.3915
 4866TIP3    H136013   6.169   2.367  16.897  0.2446  0.1063 -0.3889
 4866TIP3    H236014   6.109   2.301  16.775 -1.2995 -2.3368  1.6048
 4867TIP3   OH236015   0.293   6.254   3.063 -0.0106 -0.1852 -0.4575
 4867TIP3    H136016   0.211   6.299   3.085 -0.3293 -0.8200 -0.2989
 4867TIP3    H236017   0.302   6.187   3.131  1.1807  0.5259  0.1140
 4868TIP3   OH236018   0.407   0.745   5.188  0.4081  0.6152  0.0226
 4868TIP3    H136019   0.458   0.811   5.142  0.9608  0.4862  0.4347
 4868TIP3    H236020   0.337   0.794   5.232 -0.2023  0.7237 -1.0457
 4869TIP3   OH236021   6.479   1.512   1.391 -0.2184 -0.8140  0.1504
 4869TIP3    H136022   6.403   1.456   1.376 -0.6427 -1.1518  2.9908
 4869TIP3    H236023   6.533   1.463   1.452 -0.5072  1.6531  2.6077
 4870TIP3   OH236024   2.784   1.534   1.698 -0.0788  0.1840 -0.1652
 4870TIP3    H136025   2.742   1.464   1.748 -0.0434  0.7132  0.6156
 4870TIP3    H236026   2.718   1.559   1.633  0.7214 -2.0799 -1.9602
 4871TIP3   OH236027   4.094   3.131   5.487 -0.1093  0.0744  0.1245
 4871TIP3    H136028   4.059   3.042   5.484 -0.9900  0.4052  0.4022
 4871TIP3    H236029   4.188   3.120   5.469 -0.2052 -0.9037  0.1605
 4872TIP3   OH236030   4.489   4.780   4.678  0.0808  0.8628  0.0200
 4872TIP3    H136031   4.547   4.710   4.648 -2.3247 -1.2082 -0.1310
 4872TIP3    H236032   4.495   4.847   4.609  4.2029  2.0896  1.2787
 4873TIP3   OH236033   2.885   1.117   4.867  0.0813  0.3616  0.1937
 4873TIP3    H136034   2.971   1.159   4.857  0.1038  0.1648 -0.5138
 4873TIP3    H236035   2.875   1.066   4.787 -1.1332  1.1534 -0.1789
 4874TIP3   OH236036   6.549   0.373  17.106  0.4602  0.2514 -0.0511
 4874TIP3    H136037   6.602   0.406  17.178 -0.2379  0.6359  0.2930
 4874TIP3    H236038   6.465   0.417  17.115  0.4474  0.5125 -1.2703
 4875TIP3   OH236039   5.470   6.438   2.317 -0.2696 -0.3083  0.3465
 4875TIP3    H136040   5.405   6.377   2.350 -0.6732 -0.2730 -0.3712
 4875TIP3    H236041   5.483   6.501   2.388  1.1264 -1.9450  1.6398
 4876TIP3   OH236042   1.752   3.308   3.000 -0.2402 -0.1689 -0.2527
 4876TIP3    H136043   1.804   3.230   2.980 -1.4876 -1.8251  2.4008
 4876TIP3    H236044   1.789   3.342   3.081 -1.8773 -0.1167  0.5190
 4877TIP3   OH236045   5.305   4.675  13.307  0.1829 -0.4528 -0.1083
 4877TIP3    H136046   5.295   4.597  13.360 -0.9908  0.3262  0.8706
 4877TIP3    H236047   5.219   4.690  13.269 -0.1653  1.4294  1.2895
 4878TIP3   OH236048   4.639   3.642   0.841  0.2930 -1.0663 -0.4827
 4878TIP3    H136049   4.578   3.596   0.899 -0.5029  1.2113  0.6254
 4878TIP3    H236050   4.713   3.663   0.897 -0.8006  1.7966  0.0458
 4879TIP3   OH236051   6.527   2.598  16.462 -0.5347 -0.0848  0.0061
 4879TIP3    H136052   6.576   2.591  16.380 -1.3863  0.5789 -0.5760
 4879TIP3    H236053   6.534   2.511  16.501  0.0314 -0.3576 -0.6749
 4880TIP3   OH236054   0.359   2.005  12.652 -0.1525  0.1491 -0.0377
 4880TIP3    H136055   0.325   2.093  12.668  1.1419  0.3860  1.5850
 4880TIP3    H236056   0.281   1.950  12.649 -0.8627  1.0578  0.9307
 4881TIP3   OH236057   1.316   5.895   0.327  0.1644 -0.1649 -0.0439
 4881TIP3    H136058   1.300   5.971   0.384  1.0970  0.4154 -0.5381
 4881TIP3    H236059   1.275   5.919   0.244 -0.7145 -0.7825  0.2011
 4882TIP3   OH236060   6.692   4.990  16.743 -0.0053 -0.1988 -0.0372
 4882TIP3    H136061   6.685   5.052  16.670 -1.5451 -0.8236 -0.4612
 4882TIP3    H236062   6.658   5.039  16.818  2.2174  0.6785  0.4629
 4883TIP3   OH236063   4.203   1.889  12.265 -0.2946 -0.3941 -0.7484
 4883TIP3    H136064   4.134   1.933  12.216 -1.0965 -0.5641  0.1984
 4883TIP3    H236065   4.156   1.830  12.325  0.7160 -1.8883 -1.3654
 4884TIP3   OH236066   0.047   3.246  13.532  0.8849 -0.0019  0.1252
 4884TIP3    H136067   0.106   3.247  13.608 -1.7475  1.3681  2.3606
 4884TIP3    H236068   0.077   3.172  13.479  3.5739 -0.3276  1.8926
 4885TIP3   OH236069   0.246   0.739  13.885 -0.3662  0.6129  0.2263
 4885TIP3    H136070   0.299   0.799  13.936 -1.3360  0.2732  1.7247
 4885TIP3    H236071   0.286   0.653  13.899  1.4809  0.8811 -2.5240
 4886TIP3   OH236072   1.769   6.417  14.107  0.1240  0.0846 -0.1719
 4886TIP3    H136073   1.806   6.359  14.174  1.0724 -1.4313 -1.9087
 4886TIP3    H236074   1.735   6.358  14.040  1.2040  1.4955 -2.0828
 4887TIP3   OH236075   4.174   2.255   2.136 -0.0869  0.3908  0.0636
 4887TIP3    H136076   4.239   2.325   2.125 -1.1098  1.6559  1.5188
 4887TIP3    H236077   4.200   2.211   2.217  0.0597 -0.3650 -0.3934
 4888TIP3   OH236078   2.031   4.984  11.033  0.0362 -0.6717 -0.3403
 4888TIP3    H136079   1.981   5.049  10.985  1.3459  0.4120 -0.2966
 4888TIP3    H236080   2.105   4.963  10.976  1.8134  0.9007  1.2584
 4889TIP3   OH236081   0.771   1.125  12.512  0.6868 -0.0941 -0.2289
 4889TIP3    H136082   0.717   1.184  12.460 -0.0197  1.1214  1.7458
 4889TIP3    H236083   0.752   1.150  12.603  1.1946 -2.6544  0.6611
 4890TIP3   OH236084   4.932   4.424   0.961 -0.2250  0.0903  0.3802
 4890TIP3    H136085   4.900   4.428   0.871 -0.7803  2.6312  0.6171
 4890TIP3    H236086   4.879   4.488   1.009  1.5535  0.4708  2.0095
 4891TIP3   OH236087   3.004   2.926   2.349 -0.0008  0.4540 -0.2426
 4891TIP3    H136088   3.087   2.880   2.356 -0.8524 -1.3776 -1.3365
 4891TIP3    H236089   2.971   2.931   2.438  1.7581  2.2652  0.3769
 4892TIP3   OH236090   4.500   6.350   1.049 -0.5708  0.1304 -0.1770
 4892TIP3    H136091   4.559   6.275   1.057  0.5083  1.1162  2.1075
 4892TIP3    H236092   4.415   6.315   1.075  0.4864  0.2110  4.1761
 4893TIP3   OH236093   2.262   5.806   2.455 -0.7386 -0.2355 -0.2548
 4893TIP3    H136094   2.270   5.759   2.372  1.3183  0.6315 -0.5898
 4893TIP3    H236095   2.228   5.892   2.431  0.5015  0.2514 -0.2992
 4894TIP3   OH236096   3.628   5.548   3.679 -0.4699 -0.4199  0.5486
 4894TIP3    H136097   3.675   5.469   3.705  1.2342  0.1715 -0.5181
 4894TIP3    H236098   3.697   5.611   3.656 -1.7864  0.8117 -0.2493
 4895TIP3   OH236099   0.522   5.133  14.615 -0.4906 -0.2757  0.1240
 4895TIP3    H136100   0.589   5.160  14.553 -0.5690 -1.3622 -0.4717
 4895TIP3    H236101   0.554   5.161  14.700  0.0193  0.4981 -0.3158
 4896TIP3   OH236102   5.702   6.225  13.405  0.0305  0.1984 -0.2814
 4896TIP3    H136103   5.644   6.295  13.375 -0.0804  0.8149  1.2627
 4896TIP3    H236104   5.786   6.269  13.419  0.4880 -0.3914 -1.1364
 4897TIP3   OH236105   3.676   2.318  15.479  0.5673  0.0725 -0.1826
 4897TIP3    H136106   3.733   2.300  15.553  0.2057 -2.0306 -0.3577
 4897TIP3    H236107   3.589   2.290  15.509  0.5684 -1.6743 -1.6609
 4898TIP3   OH236108   1.403   6.632  11.046 -0.0378  0.0669  0.2661
 4898TIP3    H136109   1.368   6.657  10.961  0.8310 -0.4899 -0.2699
 4898TIP3    H236110   1.485   6.586  11.026  1.0258  1.3492  1.4798
 4899TIP3   OH236111   2.178   0.807  15.215 -0.8633  0.0038 -0.5396
 4899TIP3    H136112   2.186   0.732  15.157  0.4586  0.4496 -0.9680
 4899TIP3    H236113   2.084   0.821  15.224 -1.1760 -2.2311  0.2611
 4900TIP3   OH236114   2.725   4.991   4.228 -0.2422 -0.5128  0.0790
 4900TIP3    H136115   2.764   4.904   4.238  0.3566 -0.1254  1.4425
 4900TIP3    H236116   2.774   5.046   4.290  1.1767  1.4359 -2.5974
 4901TIP3   OH236117   6.322   3.992   0.617 -0.6011  0.5213 -0.1442
 4901TIP3    H136118   6.279   3.935   0.680 -1.0165  0.2163 -0.6978
 4901TIP3    H236119   6.415   3.979   0.632 -0.6884  0.9430  0.8433
 4902TIP3   OH236120   1.703   6.693   2.081 -0.2972 -0.2341  0.1050
 4902TIP3    H136121   1.636   6.641   2.036 -1.2458  1.5175 -0.5939
 4902TIP3    H236122   1.672   6.699   2.171 -0.8854  0.2178 -0.1204
 4903TIP3   OH236123   5.694   0.230   2.352  0.1107 -0.2395  0.8192
 4903TIP3    H136124   5.665   0.204   2.265 -0.1382  0.0106  0.8267
 4903TIP3    H236125   5.677   0.324   2.357  0.7273 -0.1249  0.9031
 4904TIP3   OH236126   6.335   1.934  11.923 -0.0167 -0.1321 -0.7675
 4904TIP3    H136127   6.316   1.968  11.836 -0.1383 -0.1801 -0.7586
 4904TIP3    H236128   6.412   1.879  11.911  1.0472  1.2443 -0.5546
 4905TIP3   OH236129   1.740   2.872   3.270 -0.2383  0.4654 -0.1572
 4905TIP3    H136130   1.831   2.847   3.256 -0.4401  0.7270 -2.2299
 4905TIP3    H236131   1.690   2.792   3.254 -0.4596  0.6979 -0.6633
 4906TIP3   OH236132   5.468   2.091  17.289  0.1636  0.7270  0.3812
 4906TIP3    H136133   5.479   2.152  17.362 -0.7346  1.0431  0.2746
 4906TIP3    H236134   5.495   2.006  17.323  2.9379  1.4060  0.0807
 4907TIP3   OH236135   5.147   5.628   2.717  0.2861 -0.2326  0.5047
 4907TIP3    H136136   5.151   5.671   2.803  1.3186 -1.0165  0.8652
 4907TIP3    H236137   5.237   5.603   2.699 -0.0040 -0.5117 -0.6027
 4908TIP3   OH236138   1.685   1.554  15.269  0.1207 -0.0651 -0.5495
 4908TIP3    H136139   1.676   1.458  15.268 -0.6984 -0.1015 -4.3048
 4908TIP3    H236140   1.595   1.586  15.276  0.5128  0.7417  4.8268
 4909TIP3   OH236141   4.195   5.667  12.346 -0.2978 -0.2589 -0.0558
 4909TIP3    H136142   4.137   5.721  12.399 -0.8810 -1.4987  0.6235
 4909TIP3    H236143   4.280   5.710  12.351 -0.1924 -0.6275  2.4166
 4910TIP3   OH236144   2.785   2.250  11.571  0.1216  0.4249 -0.1313
 4910TIP3    H136145   2.805   2.205  11.489 -2.0761  0.5233 -0.7801
 4910TIP3    H236146   2.862   2.304  11.588  1.9306 -1.9093 -0.4526
 4911TIP3   OH236147   0.856   6.567  15.297  0.0737  0.4417  0.3742
 4911TIP3    H136148   0.776   6.535  15.338 -0.6223  2.0590  0.3660
 4911TIP3    H236149   0.883   6.497  15.238 -1.3289 -0.1534  0.3970
 4912TIP3   OH236150   3.811   0.129   2.081  0.1235  0.0240  0.3034
 4912TIP3    H136151   3.794   0.219   2.107  0.8976 -0.3688  2.3565
 4912TIP3    H236152   3.728   0.083   2.097 -0.4099  0.4172 -1.1716
 4913TIP3   OH236153   0.230   4.335  15.219 -0.3129 -0.5400  0.2555
 4913TIP3    H136154   0.264   4.258  15.265  1.1797  0.3148  0.6526
 4913TIP3    H236155   0.295   4.403  15.236 -2.0094  1.0578  0.6033
 4914TIP3   OH236156   2.809   6.155  10.897 -0.2078 -0.2893  0.4905
 4914TIP3    H136157   2.871   6.083  10.882 -0.2170 -0.2893  0.4511
 4914TIP3    H236158   2.757   6.158  10.817 -0.2072 -0.2384  0.4917
 4915TIP3   OH236159   0.780   3.440  12.888  0.5028  0.1731  0.3174
 4915TIP3    H136160   0.861   3.462  12.934  0.4410  2.0749 -0.4237
 4915TIP3    H236161   0.751   3.359  12.930  1.9370  0.2998  1.6734
 4916TIP3   OH236162   0.603   1.645   2.076  0.0377  0.0255  0.5505
 4916TIP3    H136163   0.510   1.648   2.098  0.0074 -0.7580  0.5527
 4916TIP3    H236164   0.647   1.690   2.149 -0.3667  0.7907  0.3339
 4917TIP3   OH236165   4.032   0.103   5.095  0.1691  0.2980 -0.3939
 4917TIP3    H136166   3.945   0.122   5.062  0.6490 -0.9896 -2.5661
 4917TIP3    H236167   4.086   0.177   5.067  0.1543  0.2032 -0.6677
 4918TIP3   OH236168   1.378   1.056  14.285 -0.2959 -0.5171  0.3716
 4918TIP3    H136169   1.307   1.012  14.238 -0.5556  0.7615 -0.4815
 4918TIP3    H236170   1.334   1.116  14.346  0.0289  0.3671 -0.2408
 4919TIP3   OH236171   2.145   3.086   2.844  0.0863 -0.1506  0.1897
 4919TIP3    H136172   2.199   3.081   2.765 -0.1652  0.0704  0.0032
 4919TIP3    H236173   2.125   2.994   2.865  1.4873 -0.3172  0.9289
 4920TIP3   OH236174   6.628   2.870   1.410  0.0658  0.1557  0.5776
 4920TIP3    H136175   6.590   2.810   1.347  0.3186 -0.5441  1.0787
 4920TIP3    H236176   6.720   2.877   1.384 -0.4913  2.3684 -1.0396
 4921TIP3   OH236177   1.335   1.505  15.880 -0.0978  0.6628  0.1569
 4921TIP3    H136178   1.365   1.456  15.803  1.2833  0.8614  0.5405
 4921TIP3    H236179   1.282   1.576  15.844  2.6248  2.3226 -0.8874
 4922TIP3   OH236180   0.055   2.394  12.820  0.1538 -0.2601 -0.2797
 4922TIP3    H136181   0.029   2.485  12.808  3.1181  0.5881 -1.1699
 4922TIP3    H236182  -0.024   2.350  12.851 -1.3629  2.6086  0.2674
 4923TIP3   OH236183   2.220   3.167   1.901 -0.3634 -0.0576 -0.2008
 4923TIP3    H136184   2.299   3.123   1.933  0.6927  1.6541 -0.3240
 4923TIP3    H236185   2.248   3.209   1.819 -2.3468 -2.3223 -2.2179
 4924TIP3   OH236186   2.524   1.360   2.828 -0.0743 -0.0960  0.4047
 4924TIP3    H136187   2.557   1.424   2.765 -0.9406 -1.5656 -1.6272
 4924TIP3    H236188   2.516   1.410   2.910 -1.2765  2.5842 -1.2102
 4925TIP3   OH236189   2.059   4.655   1.608  0.1354 -0.3858  0.0011
 4925TIP3    H136190   2.023   4.602   1.678  0.8069 -2.5498 -1.2199
 4925TIP3    H236191   1.996   4.646   1.536 -0.7137  2.0512  0.3203
 4926TIP3   OH236192   3.448   1.671  16.870  0.1562 -0.1668 -0.4727
 4926TIP3    H136193   3.424   1.760  16.844 -1.3075 -0.0093  1.2391
 4926TIP3    H236194   3.517   1.682  16.935 -1.3675 -0.1363  1.1912
 4927TIP3   OH236195   1.829   5.365  12.320  0.0489 -0.2171 -0.4090
 4927TIP3    H136196   1.769   5.420  12.268 -1.5691 -1.5403 -0.0297
 4927TIP3    H236197   1.846   5.417  12.398 -0.5659  0.2317 -0.5600
 4928TIP3   OH236198   5.162   1.836  12.425 -0.0925 -0.3868 -0.3151
 4928TIP3    H136199   5.206   1.910  12.383 -0.1494 -1.0338 -1.5678
 4928TIP3    H236200   5.230   1.795  12.479 -0.4078  1.3560  1.5155
 4929TIP3   OH236201   5.761   3.625   1.312  0.2215 -0.1421 -0.1554
 4929TIP3    H136202   5.710   3.567   1.369 -0.4435  0.5114 -0.0740
 4929TIP3    H236203   5.717   3.620   1.228 -0.4633  1.0103  0.1076
 4930TIP3   OH236204   6.635   2.972   5.354 -0.3074 -0.2749  0.6766
 4930TIP3    H136205   6.724   3.005   5.338 -0.0297 -1.3831 -0.1959
 4930TIP3    H236206   6.613   2.924   5.275 -2.9488  2.5477 -0.4840
 4931TIP3   OH236207   6.481   5.626  14.686 -0.5475 -0.2634  0.3258
 4931TIP3    H136208   6.397   5.588  14.662  0.4790 -1.5216 -1.4719
 4931TIP3    H236209   6.496   5.694  14.621  0.7222 -1.4238 -0.6417
 4932TIP3   OH236210   1.682   4.918   0.326  0.0588  0.3667  0.0050
 4932TIP3    H136211   1.627   4.973   0.272  0.0630  0.6782  0.3132
 4932TIP3    H236212   1.641   4.919   0.412 -0.1770 -0.4550 -0.0877
 4933TIP3   OH236213   4.971   0.955   1.429  0.7438  0.2081 -0.3974
 4933TIP3    H136214   5.048   0.945   1.485 -0.0078 -1.2100  0.4312
 4933TIP3    H236215   4.899   0.971   1.490  0.0469 -0.5384 -0.9977
 4934TIP3   OH236216   3.686   2.306   5.823 -0.2520 -0.3509  0.4644
 4934TIP3    H136217   3.774   2.341   5.829 -1.1230  1.9179  1.1393
 4934TIP3    H236218   3.661   2.289   5.914 -0.2532 -1.7913  0.2234
 4935TIP3   OH236219   4.817   0.730   5.017  0.4104 -0.1402  0.0128
 4935TIP3    H136220   4.830   0.648   5.064  1.9145  0.9799  1.6773
 4935TIP3    H236221   4.891   0.785   5.043 -1.1078  2.1480 -0.1979
 4936TIP3   OH236222   3.511   2.784  10.902 -0.7981  0.1568  0.4926
 4936TIP3    H136223   3.503   2.723  10.829  2.8591  2.0901 -1.8472
 4936TIP3    H236224   3.480   2.868  10.867  0.8083  1.0752  1.1466
 4937TIP3   OH236225   6.708   0.896   4.982 -0.4699 -0.2659  0.6317
 4937TIP3    H136226   6.780   0.834   4.981  1.4205  1.8231  0.0966
 4937TIP3    H236227   6.689   0.909   5.075  1.5829  1.0128  0.9199
 4938TIP3   OH236228   6.061   0.674   4.031  0.3646  0.3169  0.8013
 4938TIP3    H136229   6.117   0.596   4.036  2.4841  1.6907  0.0241
 4938TIP3    H236230   6.057   0.706   4.121  0.4426 -0.0536  0.9413
 4939TIP3   OH236231   4.775   0.057  15.561  0.5470  0.2366  0.1275
 4939TIP3    H136232   4.850   0.113  15.540  1.7431 -1.0611  0.7749
 4939TIP3    H236233   4.783  -0.018  15.503  0.4027 -0.4444  0.9625
 4940TIP3   OH236234   1.641   2.540  16.907  0.3674  0.5471 -0.3393
 4940TIP3    H136235   1.658   2.598  16.833  2.1791  0.1708 -0.2485
 4940TIP3    H236236   1.727   2.505  16.932 -0.0239  1.3581  2.5402
 4941TIP3   OH236237   3.947   4.707   3.150  0.0299  0.1522 -0.2291
 4941TIP3    H136238   3.918   4.764   3.221 -0.7720  2.9773 -2.6009
 4941TIP3    H236239   3.866   4.671   3.113  0.4613 -1.6231  0.4604
 4942TIP3   OH236240   3.666   3.285  16.108 -0.6471  0.2328 -0.6668
 4942TIP3    H136241   3.644   3.315  16.196  1.7666  0.7721 -0.1585
 4942TIP3    H236242   3.590   3.234  16.080 -2.3366  1.7737  0.8683
 4943TIP3   OH236243   0.125   2.510   3.129 -0.2066 -0.2027  0.1954
 4943TIP3    H136244   0.104   2.459   3.051 -1.3865  0.0581  0.3227
 4943TIP3    H236245   0.049   2.498   3.187  0.1291  0.5445  0.8083
 4944TIP3   OH236246   6.684   0.741   0.056 -0.6775  0.2721  0.0054
 4944TIP3    H136247   6.732   0.821   0.078 -0.6139  0.4739 -0.8635
 4944TIP3    H236248   6.605   0.745   0.110 -1.3094  1.5706 -0.9728
 4945TIP3   OH236249   5.463   1.964  12.954  0.1931  0.1830 -0.0029
 4945TIP3    H136250   5.411   1.923  12.885  0.8572 -0.7543  0.0363
 4945TIP3    H236251   5.399   2.010  13.008 -0.3763  0.6127 -1.0186
 4946TIP3   OH236252   1.218   2.351  13.510 -0.3323 -0.4916 -0.6219
 4946TIP3    H136253   1.287   2.287  13.488 -0.4676 -1.4894  1.5319
 4946TIP3    H236254   1.240   2.429  13.459  0.9775 -1.6073 -1.8524
 4947TIP3   OH236255   5.185   1.077   0.588 -0.5188 -0.2706 -0.3893
 4947TIP3    H136256   5.092   1.055   0.579 -0.7990 -0.9414  2.9033
 4947TIP3    H236257   5.184   1.168   0.619 -0.1431 -0.5572  0.4760
 4948TIP3   OH236258   4.520   5.420  13.757  0.2214 -0.2649  0.3247
 4948TIP3    H136259   4.537   5.471  13.836 -0.0386  1.1876 -0.5369
 4948TIP3    H236260   4.427   5.397  13.763  0.3806 -0.8272  0.7977
 4949TIP3   OH236261   5.011   2.070  12.803  0.2821  0.2593 -0.8381
 4949TIP3    H136262   5.013   1.983  12.841 -0.1461  0.4411 -0.3776
 4949TIP3    H236263   5.101   2.088  12.777  0.4027 -0.2446 -0.7634
 4950TIP3   OH236264   3.301   4.311   0.042  0.1986 -0.0609 -0.8097
 4950TIP3    H136265   3.230   4.367   0.073  1.3927  1.6763 -1.1143
 4950TIP3    H236266   3.347   4.285   0.122 -0.9628 -1.5389 -0.5703
 4951TIP3   OH236267   1.649   0.060   6.157  0.6288 -0.3059  0.9826
 4951TIP3    H136268   1.728   0.073   6.209  1.6210 -0.1868 -0.5049
 4951TIP3    H236269   1.672   0.091   6.069 -1.1631  0.0239  0.5801
 4952TIP3   OH236270   6.608   6.343   2.638 -0.0380 -0.3119  0.4738
 4952TIP3    H136271   6.519   6.339   2.603  0.0600  1.7090 -0.1431
 4952TIP3    H236272   6.664   6.321   2.564  0.0061 -0.4537  0.5503
 4953TIP3   OH236273   0.062   0.863   4.361  0.0241 -0.0862  0.7557
 4953TIP3    H136274  -0.022   0.832   4.326  0.7076 -2.4392  1.0415
 4953TIP3    H236275   0.049   0.868   4.456 -0.5051  2.0438  0.6228
 4954TIP3   OH236276   3.408   1.733  10.972 -0.6378  0.1285 -0.0516
 4954TIP3    H136277   3.497   1.711  10.944 -1.3402 -1.2424 -1.3557
 4954TIP3    H236278   3.420   1.794  11.046  1.3841 -0.9670  0.5993
 4955TIP3   OH236279   3.492   1.980   2.923  0.0869  0.2885  0.7690
 4955TIP3    H136280   3.558   1.971   2.991 -0.3565  0.2230  1.1962
 4955TIP3    H236281   3.524   2.052   2.868  1.0829 -0.4824  0.3023
 4956TIP3   OH236282   3.920   4.669  12.761  0.0589 -0.5312  0.0038
 4956TIP3    H136283   3.979   4.744  12.773 -0.2219 -0.1884 -0.7104
 4956TIP3    H236284   3.880   4.656  12.847 -0.8360  0.9428 -0.1647
 4957TIP3   OH236285   6.167   1.226  14.551 -0.4277 -0.4270  0.1621
 4957TIP3    H136286   6.233   1.158  14.545  2.4427  2.1695 -0.5065
 4957TIP3    H236287   6.145   1.246  14.460 -1.2626 -0.4587  0.3460
 4958TIP3   OH236288   1.538   4.335   0.521  0.1960 -0.6706  0.5536
 4958TIP3    H136289   1.602   4.360   0.455 -0.3884  1.6268  0.7577
 4958TIP3    H236290   1.468   4.400   0.513  0.3160  0.0270  3.6749
 4959TIP3   OH236291   2.687   4.999   6.221 -0.4791  0.0644 -0.1514
 4959TIP3    H136292   2.718   5.005   6.311 -0.1168 -1.3591 -0.1664
 4959TIP3    H236293   2.615   5.063   6.217  0.1486  0.8696  0.8486
 4960TIP3   OH236294   0.088   0.112  14.375  0.4396  0.5386  0.0218
 4960TIP3    H136295   0.014   0.117  14.437  0.8390  0.0237  0.5508
 4960TIP3    H236296   0.122   0.023  14.386  0.2975  0.3224 -1.2082
 4961TIP3   OH236297   5.558   3.557  14.225  0.5714  0.3510 -0.0414
 4961TIP3    H136298   5.626   3.494  14.203  0.8549  0.4714  0.4582
 4961TIP3    H236299   5.527   3.530  14.312  0.7134  0.9012  0.1870
 4962TIP3   OH236300   0.154   2.157   3.449  0.0513 -0.3287 -0.0874
 4962TIP3    H136301   0.123   2.238   3.489  2.4220  0.4804  0.2386
 4962TIP3    H236302   0.171   2.098   3.523  0.0659 -0.4702 -0.2022
 4963TIP3   OH236303   2.505   5.716   0.484 -0.2638  0.2395  0.2677
 4963TIP3    H136304   2.559   5.729   0.562 -0.4101 -0.5370  0.5052
 4963TIP3    H236305   2.415   5.712   0.517 -0.4428  1.1761 -0.0890
 4964TIP3   OH236306   6.442   2.683   1.972  0.3604 -0.1429  0.0974
 4964TIP3    H136307   6.449   2.610   1.910  0.6184 -0.2548  0.2556
 4964TIP3    H236308   6.427   2.760   1.917 -0.6602 -0.4217 -0.0223
 4965TIP3   OH236309   2.903   3.014  17.149  0.0140  0.2389  0.4605
 4965TIP3    H136310   2.981   3.005  17.202  1.3330 -1.3441 -1.6030
 4965TIP3    H236311   2.913   3.099  17.105  0.5504  0.0682  0.2512
 4966TIP3   OH236312   6.115   4.412  12.949  0.2709  0.2878 -0.2170
 4966TIP3    H136313   6.087   4.494  12.988 -0.4411  0.0949 -0.3209
 4966TIP3    H236314   6.090   4.419  12.856 -3.3564 -1.5460  0.4481
 4967TIP3   OH236315   3.957   2.617  16.953  0.3991  0.1362  0.3802
 4967TIP3    H136316   3.971   2.658  17.038 -0.1682  1.5587 -0.1910
 4967TIP3    H236317   3.953   2.690  16.891  0.7862 -0.8717 -0.8721
 4968TIP3   OH236318   4.721   5.557  11.719 -0.3390  0.3972 -0.1745
 4968TIP3    H136319   4.743   5.648  11.701  0.4127  0.4098  0.7460
 4968TIP3    H236320   4.799   5.520  11.760 -0.4630 -0.7934 -0.9466
 4969TIP3   OH236321   6.512   1.778  15.420 -0.4746 -0.2670 -0.1582
 4969TIP3    H136322   6.484   1.859  15.378  1.1173  0.5345  0.2725
 4969TIP3    H236323   6.552   1.727  15.350  0.5266  0.2810  0.0101
 4970TIP3   OH236324   1.661   6.160  12.864 -0.2578 -0.4928 -0.3713
 4970TIP3    H136325   1.702   6.165  12.777 -0.8966  0.5475 -0.6292
 4970TIP3    H236326   1.675   6.069  12.892  3.0180  0.0105 -0.0330
 4971TIP3   OH236327   1.715   2.709  17.148  0.2182 -0.2725 -0.2856
 4971TIP3    H136328   1.763   2.734  17.069  1.2332  0.8268  0.6485
 4971TIP3    H236329   1.721   2.614  17.151  1.7715 -0.1980 -0.5433
 4972TIP3   OH236330   5.825   5.394  11.256 -0.7276  0.0012 -0.4172
 4972TIP3    H136331   5.896   5.331  11.236 -0.9420 -0.3994  0.0709
 4972TIP3    H236332   5.806   5.380  11.348 -2.2764 -0.7525 -0.8119
 4973TIP3   OH236333   0.829   3.627   0.722 -0.2424  0.1159  0.1130
 4973TIP3    H136334   0.825   3.722   0.730  0.8059  0.1392  0.5477
 4973TIP3    H236335   0.811   3.596   0.811 -2.2863 -0.1757 -0.3627
 4974TIP3   OH236336   5.020   5.763   0.496 -0.4083 -0.1703 -0.0679
 4974TIP3    H136337   4.998   5.782   0.405 -2.1171  0.8693  0.5152
 4974TIP3    H236338   4.981   5.834   0.546  2.0366  0.2768  1.3766
 4975TIP3   OH236339   6.109   0.131  14.164 -0.3225 -0.1885  0.6818
 4975TIP3    H136340   6.063   0.157  14.244 -0.5548 -1.9428  1.1463
 4975TIP3    H236341   6.163   0.057  14.190  0.7341  0.1379 -0.4786
 4976TIP3   OH236342   6.414   5.509   5.572  0.0027 -0.0186 -0.5526
 4976TIP3    H136343   6.408   5.445   5.643 -3.6036  0.2774 -0.4064
 4976TIP3    H236344   6.439   5.591   5.616 -0.4682 -0.2287  0.1213
 4977TIP3   OH236345   3.630   3.845   2.493 -0.9596 -0.2075 -0.0040
 4977TIP3    H136346   3.646   3.929   2.450 -1.8963  0.7064  1.3564
 4977TIP3    H236347   3.564   3.864   2.560 -0.1580 -1.7294  1.2933
 4978TIP3   OH236348   5.639   0.157  13.134  0.5043  0.1825 -0.2119
 4978TIP3    H136349   5.679   0.140  13.049 -0.9249  0.6661 -0.9949
 4978TIP3    H236350   5.552   0.190  13.115  0.8994  2.4164  1.3749
 4979TIP3   OH236351   3.370   5.839  14.906  0.1306  0.7518  0.1592
 4979TIP3    H136352   3.446   5.782  14.893  1.4763  2.6344 -0.5883
 4979TIP3    H236353   3.329   5.805  14.986  1.7327 -0.3248  0.5837
 4980TIP3   OH236354   4.023   0.353   4.807 -0.1403  0.3538  0.2426
 4980TIP3    H136355   3.973   0.433   4.824 -2.0038 -0.9613  1.2087
 4980TIP3    H236356   4.089   0.352   4.876  0.5516  1.5286 -0.3649
 4981TIP3   OH236357   6.279   5.851  17.208 -0.2318 -0.6315  1.0460
 4981TIP3    H136358   6.282   5.946  17.196  0.0195 -0.9659 -3.0271
 4981TIP3    H236359   6.198   5.836  17.256 -0.6788  1.6037  1.1266
 4982TIP3   OH236360   1.995   0.299  10.853  0.2197  0.7043 -0.6410
 4982TIP3    H136361   2.082   0.298  10.812 -0.1170  2.4196 -1.5259
 4982TIP3    H236362   1.935   0.286  10.780 -0.2763 -2.3328  0.2068
 4983TIP3   OH236363   5.227   5.652  11.438 -0.0518  0.4181 -0.0829
 4983TIP3    H136364   5.174   5.721  11.398 -1.6230 -1.1438 -0.8467
 4983TIP3    H236365   5.162   5.588  11.468  1.2164  0.3158  2.6945
 4984TIP3   OH236366   2.012   5.828   1.302 -0.2651 -0.4551  0.6042
 4984TIP3    H136367   1.933   5.882   1.297  0.0859  0.0787  0.7804
 4984TIP3    H236368   2.084   5.888   1.281  0.0037 -1.1856 -0.7062
 4985TIP3   OH236369   5.994   6.153  16.842 -0.2296 -0.3219 -0.2356
 4985TIP3    H136370   6.078   6.115  16.869 -0.0510  0.6400  0.6233
 4985TIP3    H236371   5.936   6.078  16.830 -0.1022 -0.8808  2.1350
 4986TIP3   OH236372   3.147   0.158  12.584 -0.2109  0.0346  0.0157
 4986TIP3    H136373   3.068   0.135  12.534  0.8600 -1.9319 -0.8887
 4986TIP3    H236374   3.188   0.227  12.532 -0.7166  0.2154 -0.1521
 4987TIP3   OH236375   5.919   3.824   2.039  0.0487 -0.5417  0.2489
 4987TIP3    H136376   5.882   3.912   2.035 -0.4564 -0.7540  0.2573
 4987TIP3    H236377   5.844   3.767   2.055  0.4895 -0.8896  1.0841
 4988TIP3   OH236378   3.459   3.970  16.859 -0.2041  0.5012 -0.2356
 4988TIP3    H136379   3.410   3.920  16.925  0.0211 -1.5083 -1.5043
 4988TIP3    H236380   3.394   4.024  16.816 -0.5399  1.0089  0.8595
 4989TIP3   OH236381   0.930   0.115   1.282 -0.1919 -0.4941  0.6821
 4989TIP3    H136382   0.910   0.174   1.210  4.6551 -1.5633 -1.9881
 4989TIP3    H236383   0.924   0.169   1.361 -2.7595  1.5025 -0.7413
 4990TIP3   OH236384   3.530   6.176  12.399  0.4533 -0.1817  0.0977
 4990TIP3    H136385   3.608   6.137  12.439  1.3487  0.0464 -1.3561
 4990TIP3    H236386   3.528   6.266  12.433  1.1881  0.0018 -0.3203
 4991TIP3   OH236387   1.249   1.776  11.645  0.3230 -0.6191 -0.1812
 4991TIP3    H136388   1.274   1.815  11.561 -0.1060 -1.9907 -0.9830
 4991TIP3    H236389   1.193   1.842  11.686 -0.4286 -0.3861 -1.5068
 4992TIP3   OH236390   5.005   3.099   1.169 -0.4735 -0.5526 -0.2816
 4992TIP3    H136391   5.054   3.025   1.134  2.3733 -0.0984  2.3631
 4992TIP3    H236392   5.067   3.172   1.168 -2.2112  1.0020  0.1021
 4993TIP3   OH236393   2.929   5.393   3.594 -0.6831  0.6643 -0.2240
 4993TIP3    H136394   2.975   5.469   3.631 -1.4168  1.2959 -0.5875
 4993TIP3    H236395   2.850   5.384   3.647  0.4914 -1.3427  1.3774
 4994TIP3   OH236396   0.852   0.991  11.158 -0.1384 -0.3024  0.2821
 4994TIP3    H136397   0.828   0.899  11.165  0.3704 -0.4195  0.4532
 4994TIP3    H236398   0.768   1.037  11.153 -0.4095 -0.7015  1.0273
 4995TIP3   OH236399   5.249   3.774   0.447 -0.0713 -0.2512 -0.5004
 4995TIP3    H136400   5.304   3.829   0.392 -0.5369  0.8273  0.0942
 4995TIP3    H236401   5.263   3.806   0.536 -0.6790 -0.7992 -0.1949
 4996TIP3   OH236402   6.371   0.487  11.754  0.1075  0.2609  0.1871
 4996TIP3    H136403   6.417   0.550  11.810 -1.8200  1.0274  0.9960
 4996TIP3    H236404   6.376   0.526  11.666 -1.9501  2.2213  0.8230
 4997TIP3   OH236405   0.238   6.547  13.414 -0.5072  0.0392  0.4793
 4997TIP3    H136406   0.174   6.604  13.371 -0.3772  0.4127  0.7821
 4997TIP3    H236407   0.304   6.530  13.348 -0.6476  0.0775  0.3285
 4998TIP3   OH236408   5.024   6.457  12.014  0.0473  0.0157 -0.1674
 4998TIP3    H136409   5.020   6.440  12.108 -0.6339 -0.8492 -0.3390
 4998TIP3    H236410   4.936   6.435  11.982  0.4284 -0.2233 -1.0848
 4999TIP3   OH236411   3.829   5.747   3.623 -0.7909 -0.1022  0.6064
 4999TIP3    H136412   3.807   5.825   3.674  0.3597 -0.0831  1.0988
 4999TIP3    H236413   3.788   5.762   3.538 -1.3070  0.6388  0.9704
 5000TIP3   OH236414   2.914   4.545   3.619 -0.4877 -0.4332 -0.8817
 5000TIP3    H136415   2.849   4.498   3.671  0.6482  1.0887  2.1720
 5000TIP3    H236416   2.863   4.604   3.563 -1.7613 -1.5230 -0.8938
 5001TIP3   OH236417   1.019   4.461   0.941  0.8330 -0.6366  0.6028
 5001TIP3    H136418   1.054   4.482   1.028  0.9136 -1.7776  0.8651
 5001TIP3    H236419   1.049   4.371   0.924 -0.5839 -1.0504  0.1159
 5002TIP3   OH236420   6.409   6.499  13.389 -0.3379 -0.5471  0.4818
 5002TIP3    H136421   6.412   6.404  13.380  0.8778 -0.3705 -1.6296
 5002TIP3    H236422   6.450   6.517  13.473 -0.5431 -1.8733  0.8844
 5003TIP3   OH236423   2.132   0.615  13.926  0.1687 -0.1866  0.2287
 5003TIP3    H136424   2.208   0.578  13.971 -0.5713 -2.6074 -0.3402
 5003TIP3    H236425   2.071   0.637  13.997  0.2951 -0.9143  0.5727
 5004TIP3   OH236426   4.800   2.027  14.751  0.2372  0.0352  0.3343
 5004TIP3    H136427   4.813   1.939  14.715  1.3661  0.1940  0.3193
 5004TIP3    H236428   4.866   2.035  14.819  0.1327  0.8703  0.3453
 5005TIP3   OH236429   3.455   6.424  15.364  0.2098 -0.6174  0.0702
 5005TIP3    H136430   3.531   6.380  15.326 -0.6134 -3.1086  1.1343
 5005TIP3    H236431   3.388   6.356  15.371 -1.5559  1.0871  0.7783
 5006TIP3   OH236432   5.190   6.025   1.815 -0.2303  0.7217  0.3305
 5006TIP3    H136433   5.125   6.072   1.763 -0.1685  0.8522  0.3708
 5006TIP3    H236434   5.173   6.052   1.905  1.0348  2.1796  0.1743
 5007TIP3   OH236435   1.338   4.446   3.658 -0.6453 -0.8168 -0.1126
 5007TIP3    H136436   1.286   4.517   3.697  1.5115  1.3641 -0.9077
 5007TIP3    H236437   1.419   4.446   3.709 -0.1879 -2.0620 -0.8088
 5008TIP3   OH236438   5.875   5.040  14.829 -0.5339 -0.2707 -0.5861
 5008TIP3    H136439   5.923   5.045  14.746  0.8755 -1.9777  0.0686
 5008TIP3    H236440   5.784   5.061  14.805  0.1575  1.1056 -2.2086
 5009TIP3   OH236441   1.189   4.534  14.754  0.4029 -0.0040  0.2709
 5009TIP3    H136442   1.209   4.577  14.837  3.0327 -0.3164 -0.1303
 5009TIP3    H236443   1.243   4.580  14.689 -1.0449 -0.2386 -1.1760
 5010TIP3   OH236444   3.918   2.061  12.383 -0.3768 -0.1019 -0.0351
 5010TIP3    H136445   3.971   2.129  12.342 -1.7785  0.1865 -1.4829
 5010TIP3    H236446   3.895   2.002  12.311 -3.2025  0.5970  0.1671
 5011TIP3   OH236447   4.020   5.459   2.898  0.0842 -0.8091  0.5645
 5011TIP3    H136448   3.960   5.524   2.862 -0.0959 -1.9088 -1.2304
 5011TIP3    H236449   3.979   5.431   2.980  0.6247  1.9243  1.9011
 5012TIP3   OH236450   5.714   1.339   4.624  0.4138  0.4210 -0.4450
 5012TIP3    H136451   5.733   1.389   4.703  0.3063  0.7339 -0.6153
 5012TIP3    H236452   5.664   1.263   4.655 -1.1330  1.4185 -0.3848
 5013TIP3   OH236453   0.879   3.903  14.367  0.1160 -0.5488  0.0850
 5013TIP3    H136454   0.856   3.986  14.325  1.5235 -1.1653 -2.0707
 5013TIP3    H236455   0.853   3.836  14.303  0.5406 -1.6824  1.0532
 5014TIP3   OH236456   3.327   0.983   1.450  0.2664  0.1733  0.1983
 5014TIP3    H136457   3.347   0.971   1.543 -0.2307  2.9007  0.7336
 5014TIP3    H236458   3.251   0.926   1.435 -0.3963  0.5472  1.8049
 5015TIP3   OH236459   1.040   3.342  16.425 -0.0340 -0.7063 -0.7438
 5015TIP3    H136460   1.003   3.419  16.382 -0.4004 -1.2327 -1.3992
 5015TIP3    H236461   0.987   3.269  16.392  1.3463 -1.4358 -1.4429
 5016TIP3   OH236462   0.170   2.243  11.471 -0.5381  0.4373  0.1704
 5016TIP3    H136463   0.106   2.310  11.497 -1.0501 -0.2705  0.7705
 5016TIP3    H236464   0.135   2.161  11.506 -0.9517 -0.5010 -2.2237
 5017TIP3   OH236465   6.335   0.625  16.152 -0.0866 -0.2980  0.3359
 5017TIP3    H136466   6.341   0.646  16.245  0.6717 -2.4085  0.8026
 5017TIP3    H236467   6.405   0.562  16.136  0.3427  0.6395 -1.8782
 5018TIP3   OH236468   2.447   3.356  13.646  0.3943 -0.4026  0.0852
 5018TIP3    H136469   2.390   3.431  13.631  0.1672 -0.4070  0.9112
 5018TIP3    H236470   2.452   3.313  13.560  0.4483  0.4891 -0.3671
 5019TIP3   OH236471   2.799   0.232   6.451 -0.4919 -0.0446 -0.2648
 5019TIP3    H136472   2.817   0.141   6.474 -0.4386  0.0516  0.0842
 5019TIP3    H236473   2.885   0.271   6.438 -0.4801  0.1383  0.3165
 5020TIP3   OH236474   5.830   4.855  15.241 -0.1493  0.4603 -0.2373
 5020TIP3    H136475   5.769   4.928  15.233 -0.1212  0.4575 -0.4758
 5020TIP3    H236476   5.859   4.838  15.152 -0.2407  0.0834 -0.1944
 5021TIP3   OH236477   0.868   4.748  11.381 -0.0908 -0.2073  0.1496
 5021TIP3    H136478   0.853   4.661  11.419  0.0397  0.5058  1.9475
 5021TIP3    H236479   0.920   4.732  11.302 -0.4484 -1.7802  0.2029
 5022TIP3   OH236480   2.843   2.040  12.623  0.5731 -0.0393 -0.4779
 5022TIP3    H136481   2.772   2.094  12.588  1.9093  4.2975  2.7140
 5022TIP3    H236482   2.807   2.003  12.704  1.2632  0.4081  0.0412
 5023TIP3   OH236483   2.976   5.328   3.094  0.6409  0.1771 -0.1905
 5023TIP3    H136484   2.898   5.290   3.055  0.1122 -0.2664  1.2152
 5023TIP3    H236485   2.962   5.319   3.189  2.3225  0.2278  0.0974
 5024TIP3   OH236486   3.476   0.796   4.294  0.2922 -0.6235  0.5983
 5024TIP3    H136487   3.489   0.710   4.333  2.1489  0.2435  2.0036
 5024TIP3    H236488   3.504   0.786   4.203  1.1813 -1.3425  0.9410
 5025TIP3   OH236489   4.647   3.765   1.691 -0.5610 -0.4526  0.1052
 5025TIP3    H136490   4.619   3.812   1.770 -0.2275  0.9400 -0.5666
 5025TIP3    H236491   4.646   3.832   1.622  0.7122 -1.2499 -0.7229
 5026TIP3   OH236492   5.613   4.599  13.897 -0.2830  0.5129  0.0679
 5026TIP3    H136493   5.565   4.519  13.875  0.4699 -0.1186  0.6364
 5026TIP3    H236494   5.705   4.574  13.889 -0.0334  1.4381 -0.1036
 5027TIP3   OH236495   0.499   2.039   3.826  0.0712  0.0129 -0.0404
 5027TIP3    H136496   0.492   2.065   3.917 -0.4253  0.6164 -0.2448
 5027TIP3    H236497   0.483   2.119   3.776 -3.5415 -0.9822 -0.7379
 5028TIP3   OH236498   5.031   1.331  12.383 -0.0315  0.1500  0.0655
 5028TIP3    H136499   5.039   1.409  12.328  2.1842 -0.7881 -1.0466
 5028TIP3    H236500   5.059   1.360  12.470 -0.5674  0.9057 -0.0032
 5029TIP3   OH236501   5.994   4.950   0.780 -0.0102  0.1782  0.0614
 5029TIP3    H136502   6.030   4.867   0.813  2.0408  0.3041 -1.6499
 5029TIP3    H236503   5.998   4.942   0.685  0.6608  2.3831 -0.1503
 5030TIP3   OH236504   0.988   5.238   4.815 -0.1551  0.2188  0.2345
 5030TIP3    H136505   0.994   5.190   4.897 -0.9558 -0.5639 -0.1389
 5030TIP3    H236506   0.968   5.170   4.750 -0.0368  0.8941 -0.5175
 5031TIP3   OH236507   0.809   3.169  13.547  0.2053 -0.0961  0.8182
 5031TIP3    H136508   0.806   3.081  13.586  1.4837  0.2411  1.7580
 5031TIP3    H236509   0.890   3.168  13.495 -0.1240  0.3256  0.2912
 5032TIP3   OH236510   3.882   5.091   1.309 -0.5340  0.2835 -0.1338
 5032TIP3    H136511   3.942   5.165   1.296  0.6850 -0.7615 -0.6407
 5032TIP3    H236512   3.911   5.025   1.247  0.2873 -1.7642  2.2590
 5033TIP3   OH236513   0.944   2.456   5.832 -0.3830 -0.3762  0.6093
 5033TIP3    H136514   0.918   2.441   5.923  2.0103  2.4765  1.9399
 5033TIP3    H236515   1.040   2.451   5.833 -0.2175  0.9666 -1.4541
 5034TIP3   OH236516   2.283   3.606  16.153  0.0989  0.8289 -0.8626
 5034TIP3    H136517   2.314   3.520  16.183 -0.5989  0.5229 -0.9963
 5034TIP3    H236518   2.193   3.590  16.124 -0.1339  1.6651 -0.6273
 5035TIP3   OH236519   0.977   4.094  11.620  0.2806 -0.2072 -0.4631
 5035TIP3    H136520   0.907   4.029  11.611  0.8061 -0.8848  0.2668
 5035TIP3    H236521   0.964   4.154  11.546  0.2802 -1.6181 -1.6438
 5036TIP3   OH236522   3.399   0.096  16.568  0.7034  0.0418 -0.1977
 5036TIP3    H136523   3.319   0.135  16.604 -1.3988 -2.6563 -1.5912
 5036TIP3    H236524   3.450   0.072  16.645 -1.6240 -1.5470  0.9819
 5037TIP3   OH236525   3.596   5.023  12.729  0.9657 -0.3562 -0.1987
 5037TIP3    H136526   3.577   5.115  12.749  4.0812  0.1187  1.1486
 5037TIP3    H236527   3.561   4.974  12.802 -0.2695 -0.2066 -0.6766
 5038TIP3   OH236528   5.306   4.070  12.873  0.2198  1.4722 -0.3064
 5038TIP3    H136529   5.348   4.029  12.798 -0.3580  0.3204 -0.0164
 5038TIP3    H236530   5.375   4.078  12.938  0.8365  2.8779 -1.0828
 5039TIP3   OH236531   2.270   4.243  13.636  0.1802 -0.0366 -0.0256
 5039TIP3    H136532   2.189   4.286  13.608  0.2954  0.5320  0.5091
 5039TIP3    H236533   2.320   4.311  13.679  0.3452 -0.7136  0.8877
 5040TIP3   OH236534   6.075   4.005  16.583  0.7355  0.0798 -0.0562
 5040TIP3    H136535   6.108   4.068  16.647  2.0191 -1.9282  1.3982
 5040TIP3    H236536   6.051   4.058  16.508  1.3474  2.3304  1.2246
 5041TIP3   OH236537   1.671   2.678   0.718  0.0796 -0.3206  0.6488
 5041TIP3    H136538   1.662   2.709   0.808  0.2613  0.8855  0.2695
 5041TIP3    H236539   1.590   2.706   0.675 -0.5922 -2.0354  0.7321
 5042TIP3   OH236540   6.154   2.230  11.257 -0.2364 -0.0143  0.2118
 5042TIP3    H136541   6.196   2.313  11.237  0.7253 -0.0346  1.9037
 5042TIP3    H236542   6.104   2.208  11.179  0.5077  1.5177 -0.7340
 5043TIP3   OH236543   2.145   0.399  15.378 -0.0615 -0.7435  0.5571
 5043TIP3    H136544   2.082   0.445  15.322  0.7722 -0.8463 -0.5073
 5043TIP3    H236545   2.117   0.308  15.375  1.9262 -1.4247 -2.6497
 5044TIP3   OH236546   6.219   4.717   1.458  0.5684 -0.4767 -0.2890
 5044TIP3    H136547   6.160   4.737   1.530  0.4069 -1.1006 -0.2417
 5044TIP3    H236548   6.301   4.761   1.481 -0.0640  0.9609 -0.6791
 5045TIP3   OH236549   5.789   6.402  16.044  0.2370  0.0707  0.1135
 5045TIP3    H136550   5.824   6.491  16.049  1.0416 -0.2655  0.8102
 5045TIP3    H236551   5.858   6.348  16.084 -0.6644 -0.7324  0.6044
 5046TIP3   OH236552   4.563   5.109  14.660  0.0884 -0.8219 -0.3108
 5046TIP3    H136553   4.555   5.166  14.737  0.0203  1.0562 -1.6292
 5046TIP3    H236554   4.597   5.027  14.695  1.0262  0.2907  1.5992
 5047TIP3   OH236555   1.712   3.427  16.493 -0.5829  0.0715  0.0196
 5047TIP3    H136556   1.700   3.388  16.406 -0.7546 -0.0624  0.1040
 5047TIP3    H236557   1.765   3.364  16.541 -0.0815  0.3652 -0.1418
 5048TIP3   OH236558   2.956   4.334   5.726 -0.3159 -0.1732 -0.2112
 5048TIP3    H136559   3.013   4.316   5.651 -0.5910  0.0816 -0.4799
 5048TIP3    H236560   2.917   4.419   5.707  0.7588  0.6199  0.9147
 5049TIP3   OH236561   6.679   2.021   3.614  0.2094 -0.1117  0.2731
 5049TIP3    H136562   6.605   1.995   3.669  0.7292 -1.2146  0.4730
 5049TIP3    H236563   6.669   1.968   3.535 -0.5667  1.5030 -0.7733
 5050TIP3   OH236564   4.777   1.471  15.951  0.0291  0.0900  0.2545
 5050TIP3    H136565   4.686   1.455  15.925 -0.5541  3.6229 -0.4671
 5050TIP3    H236566   4.828   1.444  15.875 -0.7444  0.9573 -0.6021
 5051TIP3   OH236567   3.373   4.220  14.695 -0.2594  0.4477 -0.1213
 5051TIP3    H136568   3.390   4.303  14.741  0.7629  0.1540  0.0772
 5051TIP3    H236569   3.327   4.245  14.616  1.8413  1.4690 -1.0933
 5052TIP3   OH236570   2.374   5.251   1.807  0.0818 -0.6021  0.0593
 5052TIP3    H136571   2.308   5.272   1.742 -0.5708  0.2702  0.9689
 5052TIP3    H236572   2.408   5.165   1.780 -1.4107 -1.0726 -0.4440
 5053TIP3   OH236573   2.441   5.654  11.439 -0.2574 -0.7683 -0.3752
 5053TIP3    H136574   2.363   5.655  11.383  1.2054 -0.2834 -2.5344
 5053TIP3    H236575   2.423   5.719  11.506 -1.2278  0.2483 -1.5676
 5054TIP3   OH236576   1.703   3.626   2.278  0.1607 -0.7342 -0.7277
 5054TIP3    H136577   1.761   3.576   2.220  1.1637 -0.6767  0.2081
 5054TIP3    H236578   1.719   3.590   2.365  1.1394  1.4087  0.0305
 5055TIP3   OH236579   1.646   0.744  16.001  0.2397  0.1787  0.1033
 5055TIP3    H136580   1.552   0.753  15.986  0.1338 -2.7314 -1.9253
 5055TIP3    H236581   1.677   0.833  16.015 -2.3124  1.6538 -2.5955
 5056TIP3   OH236582   2.582   1.211  13.438  0.2707 -0.2993  0.5585
 5056TIP3    H136583   2.488   1.205  13.453 -0.1943 -1.6714 -2.1481
 5056TIP3    H236584   2.607   1.297  13.470 -1.8152 -0.0685  1.7106
 5057TIP3   OH236585   6.222   6.289  11.902 -0.0746  0.0485  0.6372
 5057TIP3    H136586   6.295   6.234  11.931  1.1595  1.2115 -0.1136
 5057TIP3    H236587   6.229   6.368  11.955 -0.2615  0.5276 -0.0407
 5058TIP3   OH236588   4.408   4.259   4.060  0.4407 -0.0665  0.2968
 5058TIP3    H136589   4.488   4.257   4.112 -0.0425 -0.6422  1.0482
 5058TIP3    H236590   4.360   4.180   4.087  0.3517 -0.5869 -1.3108
 5059TIP3   OH236591   2.800   1.610  15.518  0.3320 -0.4454 -0.2885
 5059TIP3    H136592   2.865   1.544  15.491 -1.5737 -1.8512 -1.7622
 5059TIP3    H236593   2.825   1.688  15.469  0.8463 -1.0094 -0.9643
 5060TIP3   OH236594   5.242   6.130  14.629 -0.8177 -0.4430 -0.1041
 5060TIP3    H136595   5.215   6.046  14.666 -1.9437 -0.3810 -0.7386
 5060TIP3    H236596   5.259   6.186  14.705  0.3657 -1.3640  0.3235
 5061TIP3   OH236597   5.946   4.916  17.327  0.6366 -0.0018 -0.5426
 5061TIP3    H136598   6.015   4.925  17.262  2.2258  0.0208  1.0542
 5061TIP3    H236599   5.888   4.991  17.312  0.7272 -0.2308 -2.1465
 5062TIP3   OH236600   1.129   3.383   4.203  0.2570 -0.1939 -0.0648
 5062TIP3    H136601   1.109   3.455   4.143  1.3974 -0.0683 -0.3297
 5062TIP3    H236602   1.099   3.304   4.157 -1.4387  0.1284  0.4355
 5063TIP3   OH236603   6.314   4.448  17.179 -0.7168  0.1802  0.2802
 5063TIP3    H136604   6.355   4.364  17.158 -0.6241  0.1741  0.4819
 5063TIP3    H236605   6.229   4.425  17.214 -0.9796  0.2012 -0.3309
 5064TIP3   OH236606   4.623   3.670  11.457  0.1431  0.6586 -0.2014
 5064TIP3    H136607   4.687   3.676  11.529  1.5594  2.4035 -1.5182
 5064TIP3    H236608   4.674   3.636  11.383 -0.7243  1.0564 -0.9940
 5065TIP3   OH236609   2.159   5.106  15.077  0.1848 -0.1625  0.0255
 5065TIP3    H136610   2.206   5.031  15.042  0.3260  0.6282 -1.5577
 5065TIP3    H236611   2.144   5.084  15.169  1.1961 -1.6251 -0.1285
 5066TIP3   OH236612   0.850   2.703  16.345 -0.7359  0.1953  0.5670
 5066TIP3    H136613   0.776   2.656  16.307 -0.0040 -0.0063 -0.6814
 5066TIP3    H236614   0.894   2.743  16.269  1.8501 -1.7255  0.9346
 5067TIP3   OH236615   0.398   6.463  14.445  0.7579 -0.1733  0.3607
 5067TIP3    H136616   0.452   6.482  14.522  0.3945  1.8012  0.1729
 5067TIP3    H236617   0.453   6.405  14.391  1.4372 -0.7086  1.5845
 5068TIP3   OH236618   4.210   2.229  13.853  0.0036 -0.2631 -0.0401
 5068TIP3    H136619   4.155   2.307  13.852  1.2643  0.7182  1.7611
 5068TIP3    H236620   4.161   2.165  13.904 -0.9902 -0.6533 -1.4394
 5069TIP3   OH236621   1.091   1.867  14.481  0.4154  0.0623  0.2772
 5069TIP3    H136622   1.150   1.851  14.408 -1.2278  0.6913 -1.2626
 5069TIP3    H236623   1.003   1.863  14.443 -0.4664  1.7205  1.9434
 5070TIP3   OH236624   2.382   5.930  15.550 -0.3107 -0.0174 -0.6124
 5070TIP3    H136625   2.446   5.970  15.493 -2.4207  1.5475 -2.0183
 5070TIP3    H236626   2.297   5.964  15.520 -1.8306 -1.9555  1.1353
 5071TIP3   OH236627   0.793   5.371  13.401  0.0323 -0.3318  0.5317
 5071TIP3    H136628   0.762   5.412  13.320  0.8456  0.7186  0.7279
 5071TIP3    H236629   0.839   5.292  13.372  0.1079 -0.0903 -0.0194
 5072TIP3   OH236630   5.172   1.150  10.970  0.0256 -0.4966  0.0977
 5072TIP3    H136631   5.143   1.185  10.886  0.1478  2.3300  1.1065
 5072TIP3    H236632   5.261   1.119  10.953  0.1132  0.1910 -0.8044
 5073TIP3   OH236633   0.692   4.188   6.260  0.3116  0.2356 -0.2912
 5073TIP3    H136634   0.765   4.199   6.199  0.7478 -2.3818 -0.3481
 5073TIP3    H236635   0.727   4.215   6.345  1.7527 -1.9371 -0.1277
 5074TIP3   OH236636   0.871   5.178   5.625  0.3790  0.3564 -0.4964
 5074TIP3    H136637   0.842   5.234   5.697 -2.2611 -0.7006 -0.6298
 5074TIP3    H236638   0.910   5.238   5.561  2.4938  1.3587  1.5659
 5075TIP3   OH236639   3.627   0.654  17.134  0.1228 -0.5175  0.2502
 5075TIP3    H136640   3.654   0.661  17.226 -1.4447  0.3179  0.6731
 5075TIP3    H236641   3.669   0.728  17.091  1.2518 -1.1810  0.1659
 5076TIP3   OH236642   3.042   1.295   6.409  0.5181 -0.0743  0.7748
 5076TIP3    H136643   3.116   1.318   6.352  0.9206 -1.7667  0.5594
 5076TIP3    H236644   3.058   1.203   6.432 -1.9627 -0.7529  0.0540
 5077TIP3   OH236645   4.848   4.657  17.064 -0.1826 -0.0816  0.0475
 5077TIP3    H136646   4.934   4.614  17.072 -0.1253  0.1870  1.0273
 5077TIP3    H236647   4.852   4.729  17.127 -1.2938 -0.3502  0.4422
 5078TIP3   OH236648   2.092   4.553  14.088  0.1033  0.4114  0.5258
 5078TIP3    H136649   2.111   4.485  14.023 -0.8458 -2.1031  2.6481
 5078TIP3    H236650   2.169   4.609  14.089  1.4703 -1.3596 -0.5257
 5079TIP3   OH236651   3.690   6.490  14.091 -0.3538  0.0099  0.0032
 5079TIP3    H136652   3.611   6.471  14.143 -0.0390  1.4423  1.0907
 5079TIP3    H236653   3.665   6.564  14.036  0.3589  0.8709  0.7890
 5080TIP3   OH236654   2.841   0.705   3.379  0.3456  0.4409  0.1299
 5080TIP3    H136655   2.796   0.708   3.294 -0.0367 -0.4808  0.2850
 5080TIP3    H236656   2.781   0.657   3.436  1.3578 -0.4939  0.4440
 5081TIP3   OH236657   2.620   4.901   1.404  0.8067 -0.2290  0.2406
 5081TIP3    H136658   2.532   4.866   1.390  0.0009  1.5898  0.4714
 5081TIP3    H236659   2.675   4.853   1.343 -0.3377 -1.4060  0.0941
 5082TIP3   OH236660   3.081   3.626   4.721  0.1717  0.0826 -0.9549
 5082TIP3    H136661   3.035   3.656   4.642 -0.0195 -1.5365 -1.5066
 5082TIP3    H236662   3.056   3.533   4.729  0.6798  0.0538  0.6670
 5083TIP3   OH236663   6.127   0.484  12.815 -0.1438 -0.0416  0.0169
 5083TIP3    H136664   6.123   0.514  12.725  0.6218 -0.6374 -0.2207
 5083TIP3    H236665   6.069   0.544  12.863 -0.0391  0.6819 -0.7475
 5084TIP3   OH236666   3.978   4.158   4.527 -0.1409 -0.4490 -0.0422
 5084TIP3    H136667   3.903   4.120   4.481 -1.1352  1.2247  0.0876
 5084TIP3    H236668   4.048   4.159   4.462 -1.2105  0.8926 -1.2581
 5085TIP3   OH236669   1.888   1.888   5.626  0.6399 -0.1892  0.1356
 5085TIP3    H136670   1.826   1.867   5.695 -0.0112 -0.3430 -0.4887
 5085TIP3    H236671   1.901   1.805   5.579  1.7889 -0.3074  0.6264
 5086TIP3   OH236672   0.338   2.374   4.692 -0.2467 -0.2256 -0.4848
 5086TIP3    H136673   0.371   2.462   4.707  0.7573 -0.7190  0.3570
 5086TIP3    H236674   0.301   2.348   4.777 -0.7260 -0.5435 -0.7858
 5087TIP3   OH236675   6.589   3.996  16.964 -0.1175  0.4475  0.4946
 5087TIP3    H136676   6.622   3.910  16.989 -0.2943 -0.1343 -1.1607
 5087TIP3    H236677   6.596   4.048  17.044  0.1244 -1.0486  1.4985
 5088TIP3   OH236678   5.009   6.381   4.983  0.2717  0.2422 -0.2821
 5088TIP3    H136679   5.018   6.400   4.890  0.0697  1.5528 -0.0635
 5088TIP3    H236680   5.072   6.439   5.025 -0.9339  1.0506  0.4953
 5089TIP3   OH236681   3.824   1.805   5.388  0.3181 -0.1096  0.0833
 5089TIP3    H136682   3.820   1.810   5.292  0.2870 -0.7281  0.0458
 5089TIP3    H236683   3.734   1.784   5.415  0.1948  0.6565  0.2960
 5090TIP3   OH236684   5.066   3.606  15.483 -0.2068  0.0845  0.1623
 5090TIP3    H136685   5.099   3.692  15.510  0.0517 -0.2702  0.9831
 5090TIP3    H236686   5.132   3.544  15.512 -0.9944 -0.5177  0.7092
 5091TIP3   OH236687   3.615   5.798   3.423 -0.0678 -0.3947  0.5688
 5091TIP3    H136688   3.600   5.709   3.393  0.3593  0.1494 -1.3859
 5091TIP3    H236689   3.587   5.854   3.351  3.9862  0.8888 -0.2966
 5092TIP3   OH236690   6.253   3.837  12.650 -0.1403  0.0319 -0.2573
 5092TIP3    H136691   6.267   3.742  12.641 -3.1263 -0.5572  0.1572
 5092TIP3    H236692   6.281   3.856  12.740 -2.2506 -1.1800  0.7603
 5093TIP3   OH236693   1.875   0.440  15.305 -0.3473  1.1854 -0.1389
 5093TIP3    H136694   1.818   0.453  15.381 -0.4029  1.9217 -0.2971
 5093TIP3    H236695   1.853   0.512  15.246  1.2429  1.9135  0.0990
 5094TIP3   OH236696   0.152   4.360  16.326 -0.0483 -0.5033  0.5910
 5094TIP3    H136697   0.122   4.315  16.247  0.0474 -3.5875  2.1591
 5094TIP3    H236698   0.097   4.438  16.331 -0.2665 -0.3727 -2.3223
 5095TIP3   OH236699   3.994   6.638  11.853  0.1692  0.7391  0.1640
 5095TIP3    H136700   4.034   6.614  11.770  0.7826  1.5238  0.2097
 5095TIP3    H236701   3.926   6.701  11.830 -0.7771 -0.2732  0.1258
 5096TIP3   OH236702   3.336   5.724  10.901 -0.4651 -0.3764 -0.3536
 5096TIP3    H136703   3.381   5.737  10.818  1.2088  0.2413  0.5890
 5096TIP3    H236704   3.402   5.683  10.958 -1.1498  0.3647  1.0288
 5097TIP3   OH236705   5.493   2.844   0.279 -0.2028 -0.6932  0.2856
 5097TIP3    H136706   5.547   2.904   0.227 -0.7473  0.3478  0.8822
 5097TIP3    H236707   5.434   2.902   0.328 -0.5940 -1.7149  1.0479
 5098TIP3   OH236708   1.472   3.047  14.758 -0.2330 -0.5590 -0.1287
 5098TIP3    H136709   1.425   2.995  14.693 -0.6848  0.0854 -0.3232
 5098TIP3    H236710   1.405   3.103  14.797  0.1385 -0.5545  0.5074
 5099TIP3   OH236711   1.895   2.154   2.936 -0.1463 -0.7777 -0.0244
 5099TIP3    H136712   1.864   2.237   2.898  1.7980 -1.3380 -3.2713
 5099TIP3    H236713   1.867   2.158   3.027  0.0108  3.5772  0.0836
 5100TIP3   OH236714   3.984   2.458  12.701  0.2472 -0.7014  0.2762
 5100TIP3    H136715   4.057   2.426  12.648  0.0180  0.0487 -0.5132
 5100TIP3    H236716   4.009   2.547  12.726  0.0160 -0.7773  0.8018
 5101TIP3   OH236717   3.989   3.986  17.212 -0.0353  0.7132  0.1640
 5101TIP3    H136718   3.937   4.028  17.281 -0.2670  1.0932 -0.2335
 5101TIP3    H236719   3.931   3.919  17.176 -0.3543  1.2945 -0.4390
 5102TIP3   OH236720   6.592   5.590  17.278  0.4095 -0.0011 -0.1201
 5102TIP3    H136721   6.611   5.542  17.359 -1.3118 -0.1402  0.2394
 5102TIP3    H236722   6.522   5.539  17.236  1.5598 -0.1793 -1.9356
 5103TIP3   OH236723   1.315   2.680   3.129 -0.6534 -0.2628  0.3180
 5103TIP3    H136724   1.393   2.694   3.182  2.0510 -0.1468 -3.2870
 5103TIP3    H236725   1.285   2.592   3.153  0.8706 -0.5096  1.4699
 5104TIP3   OH236726   0.203   2.647  11.049  0.4031 -0.7738  0.4910
 5104TIP3    H136727   0.120   2.610  11.019  0.6051 -0.0773 -1.0090
 5104TIP3    H236728   0.190   2.742  11.043  1.3341 -0.6589  0.1270
 5105TIP3   OH236729   6.564   1.948  15.661  0.1113 -1.1518  0.8288
 5105TIP3    H136730   6.577   1.899  15.580  0.3517 -0.1345  0.2352
 5105TIP3    H236731   6.469   1.960  15.666 -0.0432 -2.4395  1.4605
 5106TIP3   OH236732   0.691   6.207  12.740 -0.2472  0.1298 -1.0797
 5106TIP3    H136733   0.711   6.219  12.833 -0.1099 -0.7618 -0.9771
 5106TIP3    H236734   0.697   6.294  12.702 -1.2148  0.6527 -0.0806
 5107TIP3   OH236735   1.256   6.055  15.149  0.4357  0.0496 -0.3508
 5107TIP3    H136736   1.167   6.043  15.182  1.3311 -1.6705  1.7352
 5107TIP3    H236737   1.266   5.987  15.083  0.2254  0.1816 -0.5187
 5108TIP3   OH236738   0.481   6.732  16.869 -0.2228 -0.2586 -0.3996
 5108TIP3    H136739   0.386   6.727  16.883 -0.2470 -0.2995 -0.5751
 5108TIP3    H236740   0.518   6.746  16.956 -0.5322  1.9557 -0.5546
 5109TIP3   OH236741   2.248   4.446   2.379 -0.3028  0.1596 -0.1470
 5109TIP3    H136742   2.217   4.443   2.289 -0.0546  1.2878 -0.2815
 5109TIP3    H236743   2.307   4.521   2.382 -0.5727  0.3446  1.0393
 5110TIP3   OH236744   0.141   4.093   6.610 -0.0959 -0.0116  0.1613
 5110TIP3    H136745   0.174   4.134   6.690  0.0824  0.1384  0.0133
 5110TIP3    H236746   0.137   4.165   6.547  0.9825 -0.3660 -0.3362
 5111TIP3   OH236747   5.429   1.219  10.810 -0.1444 -0.6441  0.2064
 5111TIP3    H136748   5.383   1.303  10.813 -0.9042 -0.9456 -1.6255
 5111TIP3    H236749   5.513   1.239  10.768 -1.0989 -1.0454 -2.0530
 5112TIP3   OH236750   5.362   3.382   4.151  0.0856  0.0765  0.5165
 5112TIP3    H136751   5.426   3.319   4.117  0.2896  0.0716  0.9109
 5112TIP3    H236752   5.370   3.376   4.246 -0.0917  0.4976  0.5599
 5113TIP3   OH236753   1.480   6.143   3.418  0.3720 -0.0075  0.5480
 5113TIP3    H136754   1.515   6.198   3.348 -0.1455  0.2857  0.5077
 5113TIP3    H236755   1.523   6.175   3.498  0.3369  0.2278  0.4751
 5114TIP3   OH236756   5.861   4.955   5.662  0.1221 -0.0076  0.0498
 5114TIP3    H136757   5.924   4.913   5.721  1.0483  1.1281 -0.0791
 5114TIP3    H236758   5.783   4.970   5.715  0.9702  1.0708  1.0375
 5115TIP3   OH236759   4.359   6.619  11.774  0.3209  0.1596 -0.7401
 5115TIP3    H136760   4.289   6.593  11.714  1.8319 -0.7954 -2.1525
 5115TIP3    H236761   4.319   6.613  11.861 -1.1298 -1.1317 -1.4505
 5116TIP3   OH236762   0.693   1.879   1.648  0.1946 -0.3317  0.6337
 5116TIP3    H136763   0.743   1.961   1.640  0.5102 -0.5686  0.1730
 5116TIP3    H236764   0.758   1.810   1.639 -0.2489 -0.6468 -0.2497
 5117TIP3   OH236765   2.032   1.135  14.369 -0.0461  0.3149 -0.7529
 5117TIP3    H136766   2.055   1.215  14.322  0.9691 -0.5213 -1.7409
 5117TIP3    H236767   2.076   1.065  14.321 -1.0291 -0.8689 -0.0090
 5118TIP3   OH236768   2.649   3.574  13.750  0.3136  0.2782  0.4052
 5118TIP3    H136769   2.657   3.663  13.717 -0.4976  0.2616  0.1545
 5118TIP3    H236770   2.618   3.523  13.675  2.8182 -0.6595 -0.0921
 5119TIP3   OH236771   2.498   5.900  17.004  0.4565  0.0374 -0.2415
 5119TIP3    H136772   2.522   5.816  16.966  0.5158 -0.8498  1.6301
 5119TIP3    H236773   2.446   5.944  16.936 -0.2192 -1.8184 -0.9715
 5120TIP3   OH236774   4.005   6.197   0.961 -0.0576 -0.3905  0.0698
 5120TIP3    H136775   4.034   6.174   1.049 -1.0140 -1.2834  0.1731
 5120TIP3    H236776   3.910   6.190   0.965 -0.2858  1.7352 -0.4524
 5121TIP3   OH236777   0.420   2.390   1.012 -0.2824 -0.3122 -0.3348
 5121TIP3    H136778   0.369   2.346   0.944 -2.0463  0.2692  0.5569
 5121TIP3    H236779   0.506   2.348   1.007 -0.7322 -1.1505 -2.0695
 5122TIP3   OH236780   4.475   2.454  12.694 -0.6440  0.1435 -0.4046
 5122TIP3    H136781   4.499   2.500  12.614 -0.9202  1.4414  0.2307
 5122TIP3    H236782   4.418   2.515  12.741  0.2249 -0.2209  1.1984
 5123TIP3   OH236783   4.411   0.505  12.760  0.4063 -0.0445  0.2971
 5123TIP3    H136784   4.404   0.448  12.684  3.1238  1.0526 -0.9371
 5123TIP3    H236785   4.361   0.583  12.737 -1.8080 -1.1117  1.2402
 5124TIP3   OH236786   5.481   1.139   1.042  0.3131 -0.2033  0.4617
 5124TIP3    H136787   5.461   1.228   1.014  1.3253 -0.1951 -0.3152
 5124TIP3    H236788   5.566   1.147   1.086 -0.4865 -0.4858  2.1758
 5125TIP3   OH236789   5.865   1.087  12.659  0.1402  0.0557 -0.8335
 5125TIP3    H136790   5.825   1.117  12.740 -1.7862 -1.1582 -1.2906
 5125TIP3    H236791   5.864   1.164  12.602 -0.0562  0.4597 -0.2935
 5126TIP3   OH236792   5.368   0.966  14.824  0.1023  0.3600 -0.1082
 5126TIP3    H136793   5.384   0.930  14.911 -0.5530  1.5248  0.5288
 5126TIP3    H236794   5.287   1.017  14.834 -0.3006  0.0526 -1.5496
 5127TIP3   OH236795   1.695   3.856   0.906 -0.1804 -0.2555  0.4248
 5127TIP3    H136796   1.610   3.814   0.892  0.1250 -0.5224 -0.6982
 5127TIP3    H236797   1.693   3.934   0.849  0.5430 -0.5749 -0.0534
 5128TIP3   OH236798   6.383   1.898  11.366 -0.4426  0.0151  0.0865
 5128TIP3    H136799   6.392   1.965  11.298  0.1984 -0.9282 -0.7871
 5128TIP3    H236800   6.427   1.821  11.330 -1.4678 -0.9996  0.9185
 5129TIP3   OH236801   0.085   2.069  13.634 -0.2457 -0.2004 -0.5008
 5129TIP3    H136802   0.162   2.045  13.686 -0.1380 -0.5872 -0.8405
 5129TIP3    H236803   0.067   2.160  13.659  0.7018  0.1067 -0.8912
 5130TIP3   OH236804   3.476   0.663  12.843  0.0517 -0.7288 -0.1326
 5130TIP3    H136805   3.559   0.677  12.889 -0.1364  0.6440 -0.1783
 5130TIP3    H236806   3.497   0.595  12.778  0.5738 -1.9542  1.2605
 5131TIP3   OH236807   4.751   4.827   3.396 -0.2881  0.7761  0.1352
 5131TIP3    H136808   4.786   4.858   3.313 -1.9081  2.5008  0.0153
 5131TIP3    H236809   4.766   4.733   3.395  1.2707  0.9927 -1.3186
 5132TIP3   OH236810   5.962   6.015  15.190 -0.0126  0.5217 -0.1901
 5132TIP3    H136811   6.034   6.077  15.176  0.1829  0.1251 -1.0188
 5132TIP3    H236812   5.967   5.955  15.115  0.2102 -0.9076  0.9296
 5133TIP3   OH236813   3.814   0.333   4.057 -0.3862  0.6873  0.0561
 5133TIP3    H136814   3.826   0.287   3.974 -2.0936  0.2960 -0.0115
 5133TIP3    H236815   3.861   0.280   4.121 -1.7543 -0.8157 -0.1349
 5134TIP3   OH236816   4.611   0.789  11.708 -0.2652  0.5567  0.3774
 5134TIP3    H136817   4.593   0.697  11.689 -0.3232  0.0755  2.4930
 5134TIP3    H236818   4.676   0.815  11.642  1.5304 -1.6885  1.1111
 5135TIP3   OH236819   1.689   5.666  16.149  0.7697  0.3730 -0.4130
 5135TIP3    H136820   1.717   5.586  16.193  0.0547  0.0302 -0.5627
 5135TIP3    H236821   1.750   5.678  16.077  1.6019  0.6184  0.3147
 5136TIP3   OH236822   1.410   2.972   4.654  0.2503  0.9051 -0.6412
 5136TIP3    H136823   1.499   2.998   4.674 -0.1124  0.6439  1.5853
 5136TIP3    H236824   1.375   3.043   4.600  1.3928  1.6107 -0.4742
 5137TIP3   OH236825   3.039   6.428  15.613 -0.6889  0.4420 -0.0308
 5137TIP3    H136826   2.988   6.347  15.603  0.2925 -0.3388  1.1221
 5137TIP3    H236827   2.982   6.486  15.665 -1.9999  1.0968 -2.0530
 5138TIP3   OH236828   0.078   0.812   1.335  0.3343  0.2404 -0.3025
 5138TIP3    H136829   0.119   0.888   1.376  0.4613 -0.8514  1.7612
 5138TIP3    H236830   0.045   0.844   1.251  2.5177  1.9620 -0.6111
 5139TIP3   OH236831   6.454   0.884   2.177  0.0924 -0.0724  0.1001
 5139TIP3    H136832   6.499   0.925   2.251 -1.0821  0.2740  0.6430
 5139TIP3    H236833   6.363   0.878   2.204  0.2838 -3.9085  0.4217
 5140TIP3   OH236834   0.016   1.203  12.691  0.5956 -0.3199  0.6178
 5140TIP3    H136835  -0.061   1.163  12.653  1.1132  0.2588 -1.1303
 5140TIP3    H236836   0.088   1.146  12.665  1.0332  0.4091  0.2000
 5141TIP3   OH236837   5.916   6.586   6.005 -0.1459 -0.3599  0.1232
 5141TIP3    H136838   5.899   6.496   5.976 -2.5670  0.3840 -1.0548
 5141TIP3    H236839   5.833   6.613   6.044 -0.2137  2.0776 -1.5398
 5142TIP3   OH236840   0.233   1.896   2.787  0.0313 -0.2287  0.1619
 5142TIP3    H136841   0.318   1.930   2.817  0.3668 -0.2789 -0.6984
 5142TIP3    H236842   0.190   1.867   2.867  1.2190 -1.0773  0.5264
 5143TIP3   OH236843   2.998   5.687  15.165 -0.1301  0.0161  0.4227
 5143TIP3    H136844   2.987   5.619  15.232  0.1456 -0.0885  0.3599
 5143TIP3    H236845   2.909   5.701  15.131 -0.2065 -0.2241  0.5217
 5144TIP3   OH236846   2.666   3.818   0.417  0.0085 -0.5900 -0.1198
 5144TIP3    H136847   2.679   3.855   0.504 -2.9941  0.7489 -0.1321
 5144TIP3    H236848   2.754   3.789   0.390  1.6162  1.8273  2.0198
 5145TIP3   OH236849   3.957   5.949  11.232  0.3489  0.4098  0.5689
 5145TIP3    H136850   3.973   6.003  11.154 -1.5676  1.5948  0.9326
 5145TIP3    H236851   4.045   5.930  11.266  1.2523 -0.1840 -1.8556
 5146TIP3   OH236852   3.498   3.743  15.061  0.5540 -0.1192  0.3010
 5146TIP3    H136853   3.579   3.735  15.111  0.0897  3.9043  2.0741
 5146TIP3    H236854   3.524   3.784  14.978  0.3877  1.8811  1.1744
 5147TIP3   OH236855   1.128   4.350  14.237  0.7583 -0.0347  0.0322
 5147TIP3    H136856   1.143   4.440  14.207  1.4069 -0.4457 -0.9442
 5147TIP3    H236857   1.047   4.324  14.193 -0.5259  0.6983  1.8453
 5148TIP3   OH236858   3.985   6.613  10.924 -0.2384  0.6434  0.0509
 5148TIP3    H136859   3.982   6.518  10.916 -0.4237  0.7100 -0.7745
 5148TIP3    H236860   3.894   6.640  10.932 -0.1349  0.6925  1.1595
 5149TIP3   OH236861   4.116   0.622   2.840 -0.0743  0.0192 -0.0575
 5149TIP3    H136862   4.083   0.564   2.772  0.5116 -0.7242  0.2754
 5149TIP3    H236863   4.039   0.668   2.872 -0.3332  0.5330 -1.3543
 5150TIP3   OH236864   4.765   3.374  14.205 -1.0008  0.1519  0.1235
 5150TIP3    H136865   4.749   3.468  14.196  1.0715  0.4414 -1.1665
 5150TIP3    H236866   4.727   3.336  14.126  0.3740  0.2678 -0.6281
 5151TIP3   OH236867   6.119   4.575  12.723  1.0903 -0.3790 -0.0273
 5151TIP3    H136868   6.181   4.594  12.793  1.1017 -2.9318  0.7232
 5151TIP3    H236869   6.096   4.661  12.688  3.7187  0.7527  0.8035
 5152TIP3   OH236870   0.535   4.784  11.020  0.2266 -0.6000 -0.1093
 5152TIP3    H136871   0.592   4.711  10.996  0.5932 -0.4391  0.2568
 5152TIP3    H236872   0.562   4.807  11.109  0.2853  0.1475 -0.3178
 5153TIP3   OH236873   3.995   4.843   1.251  0.3317 -0.3812 -0.6272
 5153TIP3    H136874   3.902   4.839   1.275  0.3840  0.8834 -0.0946
 5153TIP3    H236875   4.009   4.768   1.193 -1.4975  0.4948 -2.3310
 5154TIP3   OH236876   4.675   6.769   4.208  0.0341 -0.6575 -0.1667
 5154TIP3    H136877   4.629   6.851   4.195  0.4777 -0.7140 -2.6417
 5154TIP3    H236878   4.759   6.793   4.248  0.2203  0.1425 -1.0132
 5155TIP3   OH236879   5.526   4.305  13.612  0.1671  0.2314  0.2046
 5155TIP3    H136880   5.509   4.213  13.592 -1.3108  0.3932  0.5301
 5155TIP3    H236881   5.609   4.325  13.569  0.8060 -1.3963  0.6042
 5156TIP3   OH236882   2.486   3.166   0.687 -0.1410 -0.1692 -0.0803
 5156TIP3    H136883   2.542   3.210   0.623 -1.7230  0.7408 -0.8811
 5156TIP3    H236884   2.539   3.164   0.767  1.1304  0.4234 -0.8774
 5157TIP3   OH236885   2.873   4.339  12.640  0.0009  0.0111 -0.3598
 5157TIP3    H136886   2.834   4.374  12.560 -2.1015  0.6138  0.8740
 5157TIP3    H236887   2.909   4.415  12.685  1.0145 -0.3047 -0.5955
 5158TIP3   OH236888   1.551   5.170  11.716 -0.0094  0.5866  0.5136
 5158TIP3    H136889   1.514   5.097  11.764  0.3321  0.3705  0.4537
 5158TIP3    H236890   1.488   5.189  11.647 -0.0112  0.2235  0.4127
 5159TIP3   OH236891   1.310   1.967   4.953 -0.3441 -0.6878 -0.2231
 5159TIP3    H136892   1.340   1.959   5.043  2.8721 -0.3320 -1.1408
 5159TIP3    H236893   1.215   1.962   4.959 -0.2104 -1.6622  3.0575
 5160TIP3   OH236894   2.355   1.219  12.024 -0.4500  0.1325 -0.2314
 5160TIP3    H136895   2.398   1.301  12.001  0.5490 -0.6600 -1.2568
 5160TIP3    H236896   2.355   1.219  12.120 -1.7026  1.9393 -0.1741
 5161TIP3   OH236897   6.268   0.044   0.324  0.5497  0.2716 -0.3738
 5161TIP3    H136898   6.183   0.059   0.283  0.6277  0.2156 -0.5602
 5161TIP3    H236899   6.321   0.119   0.297  0.5330  0.3500 -0.1870
 5162TIP3   OH236900   5.945   5.802  12.918  0.6917  0.1017 -0.0271
 5162TIP3    H136901   6.032   5.793  12.958  1.1070 -0.6594 -1.0282
 5162TIP3    H236902   5.925   5.895  12.924  1.3413  0.2078  0.6967
 5163TIP3   OH236903   1.249   1.086  16.770 -0.1457  0.0181 -0.0713
 5163TIP3    H136904   1.207   1.000  16.762 -0.7563  0.3123 -0.0481
 5163TIP3    H236905   1.308   1.076  16.845  0.3619 -0.6079 -0.5361
 5164TIP3   OH236906   5.722   5.922  13.310  0.6671  0.4086  0.0835
 5164TIP3    H136907   5.641   5.956  13.348  0.7923  1.3037 -0.4299
 5164TIP3    H236908   5.779   5.906  13.386 -0.1559 -0.7471  0.4944
 5165TIP3   OH236909   3.123   3.247  13.089 -0.1277 -0.4971  0.3620
 5165TIP3    H136910   3.132   3.309  13.161  0.2426 -1.7951  1.4785
 5165TIP3    H236911   3.197   3.265  13.031  1.1220 -1.1570  1.6905
 5166TIP3   OH236912   0.832   3.675  14.148  0.1936 -0.6180 -0.5033
 5166TIP3    H136913   0.838   3.707  14.058  4.3655 -0.4322 -0.3242
 5166TIP3    H236914   0.864   3.585  14.145 -0.1401 -0.8076  0.7538
 5167TIP3   OH236915   5.265   0.542   2.876  0.9006  0.5012  0.4712
 5167TIP3    H136916   5.226   0.477   2.818  1.6320  1.0496 -0.6733
 5167TIP3    H236917   5.337   0.496   2.919 -0.9654 -0.5537  2.6922
 5168TIP3   OH236918   1.924   4.167   2.547 -0.5032 -0.0610 -0.4449
 5168TIP3    H136919   1.874   4.221   2.609  0.6146  1.0575 -0.4890
 5168TIP3    H236920   1.923   4.217   2.465 -1.8567 -1.4679 -1.3387
 5169TIP3   OH236921   2.768   2.417   4.829 -0.2928  0.1037 -0.0451
 5169TIP3    H136922   2.715   2.495   4.847 -0.6616  0.5831 -2.7775
 5169TIP3    H236923   2.710   2.359   4.781  0.9073 -0.4183 -0.9310
 5170TIP3   OH236924   0.455   2.863   5.799  0.5000  0.0469 -0.1149
 5170TIP3    H136925   0.399   2.917   5.854  0.3888 -0.2639  0.0825
 5170TIP3    H236926   0.542   2.900   5.807  0.2700  0.7385 -0.6792
 5171TIP3   OH236927   3.340   6.514   6.325 -0.2793 -0.4354  1.0167
 5171TIP3    H136928   3.369   6.476   6.407  1.4657 -0.6538  0.3389
 5171TIP3    H236929   3.412   6.499   6.264 -0.9944  0.8458 -0.2194
 5172TIP3   OH236930   6.262   5.101   1.410 -0.2992  0.2811 -0.3692
 5172TIP3    H136931   6.316   5.175   1.441 -0.1287 -0.3672  0.9654
 5172TIP3    H236932   6.299   5.079   1.325 -0.8577  2.2352 -1.1841
 5173TIP3   OH236933   6.639   2.132  13.281  0.0789 -0.4622 -0.1808
 5173TIP3    H136934   6.624   2.037  13.287  0.3044 -0.4296  1.2894
 5173TIP3    H236935   6.552   2.169  13.268 -0.5881 -0.6440  3.0390
 5174TIP3   OH236936   0.158   5.476  12.709  0.5363 -0.1284  0.2694
 5174TIP3    H136937   0.250   5.499  12.696  0.4119  0.2784  0.0962
 5174TIP3    H236938   0.160   5.384  12.738  1.0486  0.1569  1.1715
 5175TIP3   OH236939   6.173   6.036   2.737  0.2125  0.1472  0.3440
 5175TIP3    H136940   6.131   5.956   2.705  0.4350 -0.2386  0.9989
 5175TIP3    H236941   6.258   6.007   2.770  0.0782  0.5679  1.0793
 5176TIP3   OH236942   2.820   5.948   2.623  0.0011 -0.2410  0.5336
 5176TIP3    H136943   2.859   6.032   2.647 -0.0208 -0.1975  0.4154
 5176TIP3    H236944   2.889   5.902   2.575 -0.9718  0.9639 -2.2061
 5177TIP3   OH236945   1.495   4.087  10.942  0.8089  0.8630  0.2120
 5177TIP3    H136946   1.541   4.028  10.882 -1.0752 -0.9947  0.4405
 5177TIP3    H236947   1.518   4.055  11.029 -1.0212 -0.3058  0.3256
 5178TIP3   OH236948   6.579   4.384   0.683 -0.2645  0.0991  0.4353
 5178TIP3    H136949   6.495   4.396   0.639 -0.5418  0.6541  1.0940
 5178TIP3    H236950   6.564   4.418   0.771 -0.1883 -2.3405  1.4828
 5179TIP3   OH236951   5.100   3.353   4.578 -0.3205 -0.0520  0.0517
 5179TIP3    H136952   5.111   3.425   4.639  2.1277 -0.0367 -0.2884
 5179TIP3    H236953   5.011   3.322   4.593 -0.8240  1.8808  1.4514
 5180TIP3   OH236954   4.678   0.765  13.920  0.6833  0.3267  0.3552
 5180TIP3    H136955   4.615   0.750  13.990  0.2161  0.4126 -0.0439
 5180TIP3    H236956   4.708   0.677  13.895 -0.7686  0.1318 -0.8081
 5181TIP3   OH236957   1.985   4.719   0.721  0.0436  0.0985 -0.0466
 5181TIP3    H136958   1.997   4.658   0.648 -1.6153  0.7476 -0.8891
 5181TIP3    H236959   1.906   4.689   0.766  0.2586  0.5413  0.6609
 5182TIP3   OH236960   4.882   4.716  15.306 -0.1664  0.4929 -0.0279
 5182TIP3    H136961   4.834   4.796  15.283 -0.8424  0.4240  1.0787
 5182TIP3    H236962   4.837   4.682  15.383  0.2582 -0.8392 -0.3303
 5183TIP3   OH236963   5.340   5.614   0.370  0.1309 -0.2728  0.1128
 5183TIP3    H136964   5.382   5.662   0.442  1.7344 -1.0685 -0.2442
 5183TIP3    H236965   5.316   5.681   0.307  0.9154  0.2158  0.3191
 5184TIP3   OH236966   5.423   2.444  11.631  0.1456  0.4406  0.2005
 5184TIP3    H136967   5.470   2.513  11.679  1.5941 -0.9518  0.8809
 5184TIP3    H236968   5.336   2.443  11.670  0.6253  0.7846  1.3245
 5185TIP3   OH236969   4.651   0.110   0.198 -0.0942 -0.1983 -0.2329
 5185TIP3    H136970   4.725   0.129   0.139  0.0561  0.4716  0.1607
 5185TIP3    H236971   4.686   0.124   0.286 -1.2274  2.1971 -0.0950
 5186TIP3   OH236972   3.153   5.863   0.412 -0.0614  0.1377 -1.0036
 5186TIP3    H136973   3.244   5.833   0.408 -0.0477  0.0797 -0.3031
 5186TIP3    H236974   3.147   5.928   0.342  0.0878 -0.9801 -2.0861
 5187TIP3   OH236975   3.736   3.621  15.217  0.5784 -0.3541  0.7980
 5187TIP3    H136976   3.670   3.594  15.281  0.3897 -0.2667  0.6435
 5187TIP3    H236977   3.816   3.576  15.244  0.0364 -1.9030 -0.0499
 5188TIP3   OH236978   2.940   6.250  11.792  0.8950 -0.8872 -0.3320
 5188TIP3    H136979   2.937   6.165  11.837  0.6826 -1.6736 -1.7902
 5188TIP3    H236980   2.996   6.235  11.716  0.5053  0.1706 -0.8368
 5189TIP3   OH236981   0.219   4.796  16.282  0.2152  0.0358 -0.5901
 5189TIP3    H136982   0.257   4.800  16.370 -0.7865 -0.8827 -0.0897
 5189TIP3    H236983   0.272   4.732  16.236  0.6814  0.4449 -0.6268
 5190TIP3   OH236984   6.264   4.041  12.380 -0.3198  0.6376  0.2623
 5190TIP3    H136985   6.286   4.117  12.326 -0.9291  1.3385  0.9646
 5190TIP3    H236986   6.199   4.074  12.442 -0.8703 -0.5567  0.3468
 5191TIP3   OH236987   0.379   4.777  13.793 -0.4016  0.0455 -0.3964
 5191TIP3    H136988   0.327   4.811  13.720 -1.5406 -0.3954  0.1775
 5191TIP3    H236989   0.365   4.840  13.864 -1.6702 -0.9877  0.3352
 5192TIP3   OH236990   3.508   5.654  14.220 -0.4160  0.3193 -0.1018
 5192TIP3    H136991   3.502   5.599  14.142  1.2784 -0.6181  0.3810
 5192TIP3    H236992   3.582   5.712  14.203 -0.5038  0.6221  0.5118
 5193TIP3   OH236993   4.524   6.109  16.380 -0.3272 -0.1145 -0.6373
 5193TIP3    H136994   4.460   6.058  16.429  0.3364 -0.5100 -0.1780
 5193TIP3    H236995   4.550   6.052  16.308  0.3400 -0.3950 -0.1824
 5194TIP3   OH236996   1.715   3.696  15.677 -0.6298  0.1671  0.4081
 5194TIP3    H136997   1.632   3.738  15.655 -0.7415 -0.7062 -0.9306
 5194TIP3    H236998   1.736   3.643  15.600 -1.4472 -3.7741  2.6646
 5195TIP3   OH236999   0.601   3.882   1.802  0.1470 -0.3653 -0.4065
 5195TIP3    H137000   0.676   3.824   1.793  0.1033 -0.3403 -0.9622
 5195TIP3    H237001   0.589   3.920   1.715 -1.2047 -1.2265 -0.6184
 5196TIP3   OH237002   1.168   4.495   1.199 -0.2377 -0.1704  0.0434
 5196TIP3    H137003   1.126   4.460   1.278  0.3356  0.2353  0.5400
 5196TIP3    H237004   1.221   4.422   1.165  1.9353  0.4912  1.7633
 5197TIP3   OH237005   1.255   2.098  17.276 -0.4557  0.7317 -0.0414
 5197TIP3    H137006   1.186   2.165  17.279  0.2652  1.5111 -0.5798
 5197TIP3    H237007   1.239   2.051  17.194 -1.5158 -0.3780  0.7728
 5198TIP3   OH237008   0.904   0.135  11.674 -0.2141 -0.2543  0.1348
 5198TIP3    H137009   0.853   0.056  11.658 -0.3484  0.1831 -1.9437
 5198TIP3    H237010   0.928   0.166  11.587 -1.6670  2.9634  0.7407
 5199TIP3   OH237011   4.266   2.072   4.182  0.3413 -0.1966  0.1051
 5199TIP3    H137012   4.353   2.036   4.201 -1.1868 -3.8052  0.9406
 5199TIP3    H237013   4.246   2.040   4.094  0.7073  2.7447 -1.2006
 5200TIP3   OH237014   1.630   2.059   5.237  0.9695  0.0203 -0.0029
 5200TIP3    H137015   1.584   1.975   5.232  0.0435  0.5786 -1.7410
 5200TIP3    H237016   1.669   2.070   5.150  0.4077  1.7560 -0.0748
 5201TIP3   OH237017   5.729   5.049  17.183 -0.3697  0.3332 -0.4348
 5201TIP3    H137018   5.644   5.015  17.157 -0.7676  1.3776 -0.5262
 5201TIP3    H237019   5.710   5.125  17.238  0.4941  0.2389  0.0165
 5202TIP3   OH237020   1.054   3.841   5.959 -0.6056  0.6762  0.1977
 5202TIP3    H137021   1.003   3.903   6.010 -1.0114  0.1918  0.3930
 5202TIP3    H237022   1.022   3.850   5.869 -0.6589  0.7496  0.2245
 5203TIP3   OH237023   5.661   1.527  14.749  0.0211  0.4818 -0.4282
 5203TIP3    H137024   5.723   1.569  14.808 -0.1501  0.1883 -0.0320
 5203TIP3    H237025   5.611   1.467  14.805 -1.3707  1.5009 -0.5190
 5204TIP3   OH237026   2.523   3.338   3.632 -0.5367 -0.2134  0.1670
 5204TIP3    H137027   2.473   3.402   3.580  0.5523  0.4409 -0.0932
 5204TIP3    H237028   2.559   3.279   3.566  0.6197  0.4575  0.1773
 5205TIP3   OH237029   0.863   4.826  11.657 -0.5519  0.4222 -0.1133
 5205TIP3    H137030   0.852   4.851  11.565  2.5443  0.9664 -0.4585
 5205TIP3    H237031   0.781   4.850  11.699 -1.9725  0.3771 -2.6750
 5206TIP3   OH237032   4.487   0.132   5.739 -0.1970  0.0576 -0.5530
 5206TIP3    H137033   4.435   0.056   5.765 -1.2521  0.7361 -0.6448
 5206TIP3    H237034   4.477   0.195   5.810 -1.7006  1.2388 -1.7466
 5207TIP3   OH237035   6.047   0.944  12.897  1.0005 -0.5304 -0.7745
 5207TIP3    H137036   5.958   0.950  12.931  0.3773  1.7322 -2.5675
 5207TIP3    H237037   6.103   0.953  12.975 -0.3640  2.5520 -0.0091
 5208TIP3   OH237038   4.816   5.043  12.040  0.4604 -0.1655 -0.0725
 5208TIP3    H137039   4.850   5.068  12.125  2.7808 -0.6602 -0.7863
 5208TIP3    H237040   4.756   4.970  12.059  0.3548  0.2199  1.1679
 5209TIP3   OH237041   6.523   3.335  12.945 -0.0819 -0.1149  0.7235
 5209TIP3    H137042   6.432   3.308  12.957 -0.8004  0.7948 -1.8632
 5209TIP3    H237043   6.520   3.431  12.942  0.8925 -0.0797  0.3265
 5210TIP3   OH237044   5.476   0.196   3.166 -0.3761 -0.0046  0.1356
 5210TIP3    H137045   5.563   0.157   3.170 -0.7339 -0.7636  2.7098
 5210TIP3    H237046   5.417   0.124   3.190 -1.7056  0.5470 -1.3709
 5211TIP3   OH237047   5.169   3.626  12.407 -0.1922 -0.0855 -0.4846
 5211TIP3    H137048   5.124   3.639  12.324  0.6054 -1.4356 -1.1659
 5211TIP3    H237049   5.184   3.531  12.411  0.9475  0.1208  0.5653
 5212TIP3   OH237050   3.515   4.380  13.798 -0.2975  0.7766 -0.2682
 5212TIP3    H137051   3.605   4.358  13.822 -0.1880  1.6068  0.1226
 5212TIP3    H237052   3.467   4.297  13.804  0.7069  0.0505 -1.8202
 5213TIP3   OH237053   3.496   4.721   5.552  0.0104 -0.0809 -0.4161
 5213TIP3    H137054   3.576   4.770   5.532  0.1996  0.2734  1.1026
 5213TIP3    H237055   3.429   4.788   5.566 -0.4020 -0.3575 -0.9886
 5214TIP3   OH237056   5.412   5.022   4.135 -0.1916 -0.1530  0.0220
 5214TIP3    H137057   5.388   5.033   4.227  0.0311 -0.8903  0.1665
 5214TIP3    H237058   5.328   5.018   4.089 -0.3256 -1.0490  0.3375
 5215TIP3   OH237059   3.325   6.121   2.173  0.0151  0.0981 -0.1084
 5215TIP3    H137060   3.378   6.073   2.109  2.5573  0.7595  1.3788
 5215TIP3    H237061   3.367   6.206   2.182 -0.6653  0.2966  1.9018
 5216TIP3   OH237062   0.871   3.521   2.730  0.1541  0.2240 -0.2807
 5216TIP3    H137063   0.850   3.487   2.817 -0.0016 -1.5755 -0.9833
 5216TIP3    H237064   0.799   3.581   2.709 -0.1442  0.1633  0.5433
 5217TIP3   OH237065   3.631   6.503  11.836 -0.0658 -0.3861  0.2779
 5217TIP3    H137066   3.679   6.583  11.814  1.0820 -0.5646  1.9607
 5217TIP3    H237067   3.573   6.529  11.908 -0.8078 -0.7375 -0.1730
 5218TIP3   OH237068   3.858   6.076   1.805 -0.6181 -0.0222 -0.2029
 5218TIP3    H137069   3.768   6.098   1.826 -0.7291  0.2176 -0.8831
 5218TIP3    H237070   3.910   6.117   1.874 -1.0059  0.1591 -0.0164
 5219TIP3   OH237071   5.174   6.202   4.752 -0.2727 -0.1117 -0.7256
 5219TIP3    H137072   5.100   6.143   4.761 -1.1724  1.1513  0.6487
 5219TIP3    H237073   5.231   6.181   4.826 -0.0818  0.0303 -0.8304
 5220TIP3   OH237074   6.559   5.060   2.611  0.2365  0.6707  0.6277
 5220TIP3    H137075   6.582   5.144   2.650 -1.1889  0.6941  1.4804
 5220TIP3    H237076   6.487   5.079   2.551  1.1321  0.3267 -0.6050
 5221TIP3   OH237077   5.007   1.620  13.757 -0.2792  0.2061  0.1685
 5221TIP3    H137078   5.022   1.558  13.829  0.1578 -1.5443 -1.3624
 5221TIP3    H237079   5.002   1.566  13.679  0.1526  2.1238 -1.2680
 5222TIP3   OH237080   3.913   6.691  12.988 -0.6082 -0.0374  0.3299
 5222TIP3    H137081   3.942   6.698  13.079 -1.1551  0.6378  0.4525
 5222TIP3    H237082   3.993   6.670  12.940 -0.2141  0.1480  0.8889
 5223TIP3   OH237083   2.657   5.202   6.430 -0.3205 -0.5128 -0.0005
 5223TIP3    H137084   2.631   5.112   6.446 -1.6106 -0.4108 -1.2689
 5223TIP3    H237085   2.609   5.253   6.495  1.0248 -0.7673  1.2445
 5224TIP3   OH237086   5.378   5.393  12.592 -0.5638 -0.0294 -0.3346
 5224TIP3    H137087   5.388   5.324  12.526 -0.5824 -0.5223  0.1674
 5224TIP3    H237088   5.468   5.415  12.616 -0.5509  0.3987 -0.7795
 5225TIP3   OH237089   3.898   3.931  11.880 -0.1140  0.4417 -0.3695
 5225TIP3    H137090   3.887   4.025  11.863  1.0933  0.9165  1.2516
 5225TIP3    H237091   3.888   3.923  11.974  2.9408 -0.5440 -0.0376
 5226TIP3   OH237092   4.637   5.707  13.861  0.0960 -0.2020 -0.1375
 5226TIP3    H137093   4.643   5.664  13.776 -0.5522  0.1632 -0.3724
 5226TIP3    H237094   4.546   5.736  13.867  0.3759  0.6272  0.2544
 5227TIP3   OH237095   0.471   6.193   3.461  0.1123 -0.1275 -0.4070
 5227TIP3    H137096   0.462   6.261   3.394  1.2658 -0.0722 -0.5255
 5227TIP3    H237097   0.476   6.241   3.544 -1.9741 -0.2252 -0.1845
 5228TIP3   OH237098   2.575   6.440  13.362 -0.5326  0.2527 -0.8490
 5228TIP3    H137099   2.499   6.430  13.305 -1.4728  0.5520  0.3092
 5228TIP3    H237100   2.570   6.366  13.422  1.0693 -0.6857 -1.7995
 5229TIP3   OH237101   2.243   4.963  15.863 -0.1784  0.3243 -0.1197
 5229TIP3    H137102   2.230   4.999  15.951  0.3753 -1.8335  0.9241
 5229TIP3    H237103   2.266   4.871  15.878  0.1925 -0.0455 -2.5295
 5230TIP3   OH237104   6.018   5.162   2.985 -0.7020 -0.2379  0.0877
 5230TIP3    H137105   6.066   5.086   2.953 -2.4807 -0.3382 -2.7035
 5230TIP3    H237106   5.947   5.126   3.039 -0.6332 -0.4562  0.0310
 5231TIP3   OH237107   0.726   2.692  15.932  0.5712 -0.2293  0.7081
 5231TIP3    H137108   0.666   2.737  15.991 -1.1519 -1.7074  0.1693
 5231TIP3    H237109   0.688   2.704  15.845  1.9540  0.1517  0.1150
 5232TIP3   OH237110   1.056   6.282   0.924  0.1507  0.0585 -0.3347
 5232TIP3    H137111   1.059   6.376   0.908 -1.9884  0.0769 -0.9623
 5232TIP3    H237112   1.064   6.273   1.019  1.7643  0.7562 -0.3870
 5233TIP3   OH237113   2.357   2.226  12.445  0.0602 -0.1569 -0.1561
 5233TIP3    H137114   2.267   2.239  12.473  0.6164  3.2323  0.4385
 5233TIP3    H237115   2.357   2.246  12.352  0.4154  1.5563  0.1754
 5234TIP3   OH237116   3.489   3.115   6.388 -0.5030  0.3287 -0.5245
 5234TIP3    H137117   3.399   3.092   6.367 -0.9214  1.1654  0.2304
 5234TIP3    H237118   3.505   3.075   6.474  0.2154 -0.6953 -1.1139
 5235TIP3   OH237119   4.486   1.089   2.074  0.1314  0.0486 -0.2673
 5235TIP3    H137120   4.484   1.121   2.164  0.6151  0.4731 -0.4034
 5235TIP3    H237121   4.576   1.102   2.046 -0.3681  1.3913 -1.3371
 5236TIP3   OH237122   4.924   6.745  12.066 -0.2505 -0.0919 -0.0380
 5236TIP3    H137123   4.970   6.660  12.065 -1.2060 -0.7652 -4.0747
 5236TIP3    H237124   4.994   6.810  12.061  0.4130 -0.8427 -0.7878
 5237TIP3   OH237125   6.670   6.379   1.310 -0.3882  0.0852  0.2415
 5237TIP3    H137126   6.621   6.428   1.376  1.1990 -1.6105  2.8888
 5237TIP3    H237127   6.760   6.411   1.318  0.5947 -2.7042  1.7035
 5238TIP3   OH237128   4.305   5.021   4.499  0.6451  0.2031  0.3662
 5238TIP3    H137129   4.274   5.076   4.427  1.7085 -1.2505 -1.3035
 5238TIP3    H237130   4.354   5.080   4.556  0.0346  1.3430 -0.2619
 5239TIP3   OH237131   6.049   4.497   2.019  0.2848 -0.2342  0.8211
 5239TIP3    H137132   6.071   4.405   2.004  0.2104 -0.4821  2.1798
 5239TIP3    H237133   5.960   4.495   2.054  1.0591  0.1713  2.9339
 5240TIP3   OH237134   5.479   6.341  12.475 -0.4221 -0.0735  0.2609
 5240TIP3    H137135   5.465   6.325  12.382 -2.3395  0.9915  0.3135
 5240TIP3    H237136   5.534   6.268  12.505 -0.9524 -1.1943 -1.4002
 5241TIP3   OH237137   1.149   4.901  11.910  0.3002  0.1699 -0.0688
 5241TIP3    H137138   1.196   4.899  11.993  0.1955 -1.1182 -0.0209
 5241TIP3    H237139   1.058   4.884  11.933  0.6191 -2.8495 -0.6180
 5242TIP3   OH237140   5.500   0.400   2.714 -0.5566 -0.1062  0.1170
 5242TIP3    H137141   5.523   0.324   2.768 -0.8920  0.4308  1.0402
 5242TIP3    H237142   5.578   0.417   2.662 -0.2592 -0.7002  0.3639
 5243TIP3   OH237143   6.682   0.649   3.352 -0.0252 -0.0380 -0.8789
 5243TIP3    H137144   6.722   0.574   3.308  0.1482  0.2960 -1.3141
 5243TIP3    H237145   6.751   0.716   3.351 -0.2985  0.2476 -0.8341
 5244TIP3   OH237146   0.952   0.757  11.596  0.1430 -0.3515  0.1736
 5244TIP3    H137147   0.915   0.844  11.584  1.8129  0.3496 -0.1799
 5244TIP3    H237148   0.882   0.705  11.635 -1.0188  1.0246 -0.0439
 5245TIP3   OH237149   0.501   5.232   5.909  0.5166 -0.5326 -0.3361
 5245TIP3    H137150   0.575   5.172   5.905  1.2413  0.3828 -1.2344
 5245TIP3    H237151   0.540   5.317   5.933 -0.2632 -0.0789 -0.6377
 5246TIP3   OH237152   0.183   0.901   2.890 -0.0683 -0.1961  0.3440
 5246TIP3    H137153   0.187   0.980   2.943 -0.0428 -1.4432  2.3286
 5246TIP3    H237154   0.208   0.831   2.950 -1.2936 -1.8733 -0.9856
 5247TIP3   OH237155   3.213   3.868   4.267 -0.6278 -0.3970 -0.2461
 5247TIP3    H137156   3.270   3.826   4.202 -0.4700 -0.3059 -0.1685
 5247TIP3    H237157   3.249   3.956   4.277 -1.6549  0.1566 -1.2590
 5248TIP3   OH237158   2.645   6.494   5.574  0.2533  0.0129 -0.2651
 5248TIP3    H137159   2.690   6.577   5.561  0.2338 -0.0437 -0.6916
 5248TIP3    H237160   2.687   6.456   5.651  2.1611 -0.8696 -1.6731
 5249TIP3   OH237161   3.503   0.337  13.502  0.5734 -0.4304 -0.3176
 5249TIP3    H137162   3.529   0.368  13.589  1.1842  0.5180 -0.8308
 5249TIP3    H237163   3.548   0.395  13.441 -1.9531  0.6175 -1.2765
 5250TIP3   OH237164   4.219   6.620  12.046  0.3869 -0.3674  0.1497
 5250TIP3    H137165   4.228   6.549  12.110  2.3892  0.2301  0.6020
 5250TIP3    H237166   4.136   6.602  12.002  0.3526 -2.4178  0.9275
 5251TIP3   OH237167   6.747   6.105   1.437  0.1360  0.3261  0.1209
 5251TIP3    H137168   6.828   6.137   1.397 -0.8171  1.5744 -0.8995
 5251TIP3    H237169   6.777   6.050   1.509  1.8964  0.3707 -0.5026
 5252TIP3   OH237170   3.516   1.398   6.240  0.1814  0.2510 -0.1069
 5252TIP3    H137171   3.519   1.302   6.230 -2.9592 -0.0231  0.6229
 5252TIP3    H237172   3.608   1.423   6.255  0.9908 -2.7553  0.7697
 5253TIP3   OH237173   3.379   5.048   5.973  0.3903 -0.0987 -0.2904
 5253TIP3    H137174   3.300   5.066   5.922 -0.1446 -0.2215  0.4606
 5253TIP3    H237175   3.399   4.957   5.955  0.6744  0.0810 -0.8949
 5254TIP3   OH237176   3.318   1.373   2.734 -0.1087 -0.0612  0.1572
 5254TIP3    H137177   3.391   1.315   2.714 -0.2069 -0.3183  0.5436
 5254TIP3    H237178   3.241   1.316   2.734 -0.0473 -0.1974  1.8297
 5255TIP3   OH237179   1.312   6.244   0.195  0.2909 -0.4360 -0.6131
 5255TIP3    H137180   1.246   6.209   0.255 -0.2135 -0.9372 -1.4322
 5255TIP3    H237181   1.323   6.175   0.129 -0.6777  0.8987 -2.2566
 5256TIP3   OH237182   4.821   2.463  12.566  0.1118 -0.1322 -0.5836
 5256TIP3    H137183   4.744   2.495  12.613  2.0000  1.1445  1.9032
 5256TIP3    H237184   4.803   2.484  12.474 -1.8962  1.4371  0.0882
 5257TIP3   OH237185   4.541   4.694   1.198  0.4547  0.1640  0.0460
 5257TIP3    H137186   4.545   4.628   1.268  0.2012  0.3466  0.2340
 5257TIP3    H237187   4.461   4.742   1.215 -1.3244 -1.7647 -2.1409
 5258TIP3   OH237188   4.009   3.282  11.324 -0.3637 -0.0940 -0.5618
 5258TIP3    H137189   4.025   3.238  11.240 -1.2865 -0.8575 -0.3535
 5258TIP3    H237190   3.984   3.371  11.300  1.4123  0.3327 -0.9975
 5259TIP3   OH237191   3.286   3.809  11.735  0.1977  0.3865 -0.4666
 5259TIP3    H137192   3.362   3.839  11.685 -0.4175  0.4161 -1.4084
 5259TIP3    H237193   3.303   3.717  11.751  0.7845  0.5692 -0.0104
 5260TIP3   OH237194   4.171   5.725   3.467  0.1711  0.2418  0.4570
 5260TIP3    H137195   4.215   5.652   3.424 -1.1491 -0.5654  0.4155
 5260TIP3    H237196   4.201   5.722   3.558  0.6648  0.0946  0.2916
 5261TIP3   OH237197   5.864   1.935   3.463  0.0655 -0.1850  0.6089
 5261TIP3    H137198   5.830   1.872   3.527  0.1980  0.5829  1.4573
 5261TIP3    H237199   5.839   1.899   3.378 -0.2408 -1.1544  1.0965
 5262TIP3   OH237200   3.853   2.716  12.636 -0.0885  0.2326  0.1470
 5262TIP3    H137201   3.763   2.737  12.611 -0.7321 -2.3313  0.0066
 5262TIP3    H237202   3.887   2.664  12.563 -0.0879 -2.6371  2.0164
 5263TIP3   OH237203   3.035   2.522   4.786  0.0166 -0.5072  0.1756
 5263TIP3    H137204   3.065   2.503   4.875 -1.1815 -2.0943  0.2853
 5263TIP3    H237205   2.940   2.516   4.791 -0.1110  0.3163 -1.0187
 5264TIP3   OH237206   5.995   1.049  16.486  0.4328  0.3039  0.1251
 5264TIP3    H137207   5.945   1.052  16.568 -1.3861  0.0261 -0.9233
 5264TIP3    H237208   6.070   1.106  16.502  0.1107  0.2865  1.9624
 5265TIP3   OH237209   1.685   3.770  17.033 -0.0586  0.1205  0.3314
 5265TIP3    H137210   1.604   3.814  17.008  1.2348  1.8545 -1.1111
 5265TIP3    H237211   1.728   3.750  16.950  0.4721 -1.8938  1.0285
 5266TIP3   OH237212   1.225   4.318   2.730 -0.5378  0.2781  0.2668
 5266TIP3    H137213   1.136   4.299   2.701 -0.4570  0.2797  0.0178
 5266TIP3    H237214   1.273   4.237   2.714 -0.2022  0.6658 -0.7600
 5267TIP3   OH237215   4.619   3.118   5.494 -0.5633  0.2768  0.6427
 5267TIP3    H137216   4.700   3.083   5.458 -0.8319  1.5335 -1.3679
 5267TIP3    H237217   4.644   3.203   5.530 -0.3917 -0.7695  3.1762
 5268TIP3   OH237218   4.391   6.158  14.472 -0.2166 -0.3920 -0.2569
 5268TIP3    H137219   4.322   6.206  14.517 -0.2470 -0.3292 -0.3708
 5268TIP3    H237220   4.346   6.107  14.405 -0.5150 -2.7002  1.5965
 5269TIP3   OH237221   3.300   3.923  12.000  0.2879 -0.7409 -0.4512
 5269TIP3    H137222   3.288   3.910  11.906  0.8344 -1.6224 -0.4177
 5269TIP3    H237223   3.335   4.011  12.008 -3.5141  0.9854 -0.7427
 5270TIP3   OH237224   4.313   1.641  13.648 -0.4487  0.0019  0.2040
 5270TIP3    H137225   4.356   1.558  13.669  0.8771  1.1260  2.2686
 5270TIP3    H237226   4.363   1.677  13.576  0.3167 -0.0319  0.7060
 5271TIP3   OH237227   5.850   3.411  13.144 -0.1305 -0.0753 -0.2619
 5271TIP3    H137228   5.860   3.504  13.122 -1.4714  0.5673  1.5716
 5271TIP3    H237229   5.852   3.409  13.239 -2.2198 -1.6327 -0.1849
 5272TIP3   OH237230   0.425   6.657  14.114 -0.4600  0.0034  0.3967
 5272TIP3    H137231   0.407   6.581  14.059 -2.0091  0.0712  0.7599
 5272TIP3    H237232   0.416   6.732  14.055  1.8528 -0.0767 -0.1518
 5273TIP3   OH237233   4.313   3.587   6.209 -0.3738  0.0250  0.1341
 5273TIP3    H137234   4.221   3.560   6.220 -0.3961 -0.8517 -1.8941
 5273TIP3    H237235   4.313   3.642   6.132  0.6605  0.9837  0.7946
 5274TIP3   OH237236   3.616   0.352   5.154  0.2908 -0.6128  0.0873
 5274TIP3    H137237   3.656   0.439   5.167 -0.9671 -0.1720  1.1814
 5274TIP3    H237238   3.638   0.303   5.233 -0.4245 -0.7222  0.2221
 5275TIP3   OH237239   1.016   2.379  16.547  0.1972  0.2364 -0.0973
 5275TIP3    H137240   1.030   2.412  16.636 -1.0837  0.5599  0.0023
 5275TIP3    H237241   1.077   2.306  16.538  0.6849  0.5118  0.8756
 5276TIP3   OH237242   1.649   3.712  13.302  0.5058 -0.1998 -0.3760
 5276TIP3    H137243   1.717   3.697  13.236  0.5093  1.0104 -0.6638
 5276TIP3    H237244   1.674   3.655  13.375  1.1903 -0.6244 -0.9228
 5277TIP3   OH237245   0.103   2.555   2.032  0.0634 -0.0069  0.3873
 5277TIP3    H137246   0.114   2.636   1.983 -0.4768 -0.9768 -1.4096
 5277TIP3    H237247   0.015   2.561   2.069 -0.3892 -0.2224 -0.6336
 5278TIP3   OH237248   0.992   0.419  15.978  0.4794  0.4698 -0.1517
 5278TIP3    H137249   1.030   0.503  16.003  1.7350 -0.2024  0.3051
 5278TIP3    H237250   1.014   0.409  15.886  0.9598  0.3378 -0.0291
 5279TIP3   OH237251   4.922   6.262   2.147  0.3519  0.0415 -0.3439
 5279TIP3    H137252   4.959   6.348   2.166  2.1222 -0.6720 -0.3280
 5279TIP3    H237253   4.870   6.240   2.225 -0.3364  1.1828 -0.4608
 5280TIP3   OH237254   0.060   4.552  13.544  0.7772  0.2056  1.0244
 5280TIP3    H137255   0.027   4.640  13.558  0.8580  0.6179 -0.9886
 5280TIP3    H237256  -0.010   4.508  13.495  2.2553  0.4576 -1.4963
 5281TIP3   OH237257   2.220   2.368  14.272 -0.3277 -0.4580  0.5659
 5281TIP3    H137258   2.309   2.375  14.306 -0.0332 -1.1893 -0.0186
 5281TIP3    H237259   2.216   2.435  14.203  0.1500 -1.1697 -0.1751
 5282TIP3   OH237260   3.376   0.886   2.861 -0.0577  0.2258 -0.5936
 5282TIP3    H137261   3.337   0.861   2.777  0.4062  0.3912 -0.8597
 5282TIP3    H237262   3.326   0.837   2.926 -0.3449  0.0085 -0.9767
 5283TIP3   OH237263   3.744   5.284   2.247 -0.6594  0.7238 -0.2158
 5283TIP3    H137264   3.713   5.367   2.211 -1.7203 -0.2162 -1.5648
 5283TIP3    H237265   3.687   5.268   2.322 -1.0059  0.8075 -0.4608
 5284TIP3   OH237266   5.601   1.595  16.228 -0.0067 -0.4268  0.2935
 5284TIP3    H137267   5.676   1.562  16.278  0.8423  0.2025 -0.5390
 5284TIP3    H237268   5.634   1.608  16.140 -0.4079  2.1816  0.4540
 5285TIP3   OH237269   0.149   5.970   0.416 -0.3242  0.0008 -0.2171
 5285TIP3    H137270   0.119   5.938   0.331 -1.1203 -2.0937  0.7596
 5285TIP3    H237271   0.155   5.891   0.470  0.1505  1.2595  1.6746
 5286TIP3   OH237272   4.530   1.405  15.909 -0.2890 -0.4219 -0.5920
 5286TIP3    H137273   4.517   1.344  15.982  0.2817 -0.2273 -0.3188
 5286TIP3    H237274   4.452   1.395  15.855 -0.0310 -1.6786 -0.7578
 5287TIP3   OH237275   3.788   0.058  12.685 -0.0554 -0.0434 -0.0348
 5287TIP3    H137276   3.746   0.026  12.765  2.1538 -2.4743  0.2886
 5287TIP3    H237277   3.879   0.027  12.692  0.7067  1.3591 -2.6025
 5288TIP3   OH237278   0.705   2.139   5.400 -0.4360 -0.3949 -0.7276
 5288TIP3    H137279   0.670   2.050   5.394  0.3895 -0.7174 -0.8311
 5288TIP3    H237280   0.649   2.182   5.465  1.2692 -2.0165  1.9943
 5289TIP3   OH237281   0.825   5.588  10.965 -0.2507 -0.0241 -0.3169
 5289TIP3    H137282   0.737   5.624  10.957  0.7323  2.2288 -2.4918
 5289TIP3    H237283   0.853   5.611  11.054 -1.0775  1.1927 -0.3578
 5290TIP3   OH237284   4.917   6.075  11.169 -0.0952  0.8212 -0.6535
 5290TIP3    H137285   4.920   6.135  11.243  0.9775  1.2167 -0.9861
 5290TIP3    H237286   4.825   6.053  11.159 -0.1643  0.0686  1.3287
 5291TIP3   OH237287   5.485   0.938  13.983 -0.1795 -0.2322 -0.2616
 5291TIP3    H137288   5.535   1.014  14.012  1.8482 -2.1357  1.7601
 5291TIP3    H237289   5.476   0.949  13.889  3.5397  0.6835 -0.6904
 5292TIP3   OH237290   1.901   5.364  11.858  0.3152 -0.1033  0.0444
 5292TIP3    H137291   1.915   5.307  11.933 -0.2876 -0.2030  0.0906
 5292TIP3    H237292   1.892   5.451  11.895 -1.6401 -0.3509  0.2940
 5293TIP3   OH237293   4.682   5.027  13.023  0.4486 -0.3828  0.4484
 5293TIP3    H137294   4.749   5.095  13.029 -0.0761  0.4382 -1.7919
 5293TIP3    H237295   4.616   5.051  13.088  0.2847  1.3002 -0.2841
 5294TIP3   OH237296   6.662   0.825   2.892 -0.3236 -0.2045 -0.0694
 5294TIP3    H137297   6.752   0.851   2.876 -0.1719 -0.7003 -0.0250
 5294TIP3    H237298   6.650   0.744   2.843 -1.1161  0.4921 -1.0728
 5295TIP3   OH237299   0.738   4.969   3.105  0.4312 -0.3179  0.0422
 5295TIP3    H137300   0.822   4.995   3.142  0.7955  1.8078 -2.0260
 5295TIP3    H237301   0.676   5.036   3.134 -0.3091 -1.2154  0.5798
 5296TIP3   OH237302   1.398   6.592   0.162 -0.3595  0.4127  0.2769
 5296TIP3    H137303   1.436   6.529   0.101  2.3684  1.9513  0.2371
 5296TIP3    H237304   1.407   6.551   0.248 -0.9323 -0.2503  0.0379
 5297TIP3   OH237305   2.226   6.573   4.880  0.1416 -0.5161  0.3121
 5297TIP3    H137306   2.148   6.519   4.891  0.0699 -1.3342 -2.9544
 5297TIP3    H237307   2.193   6.662   4.869  0.0658 -0.1341  3.0420
 5298TIP3   OH237308   4.309   3.079   2.034  0.3857 -0.3772  0.3285
 5298TIP3    H137309   4.264   3.145   1.981 -0.0524 -1.7171 -1.0257
 5298TIP3    H237310   4.252   3.067   2.110 -0.3376 -0.3064 -0.1888
 5299TIP3   OH237311   6.013   6.178  15.494 -0.5242  0.0031  0.0605
 5299TIP3    H137312   6.054   6.239  15.554 -0.7196 -1.8284  2.1697
 5299TIP3    H237313   6.084   6.146  15.439  0.7406 -1.9517  2.6363
 5300TIP3   OH237314   1.201   4.647  12.936  0.0759 -0.1224 -0.3066
 5300TIP3    H137315   1.207   4.709  13.009  1.3942 -0.0185 -0.4720
 5300TIP3    H237316   1.285   4.657  12.890  1.0746 -3.2153  0.6133
 5301TIP3   OH237317   4.499   2.661   5.840  0.3785  0.3985 -0.0407
 5301TIP3    H137318   4.419   2.710   5.860 -0.4399 -0.8302 -0.1932
 5301TIP3    H237319   4.496   2.649   5.746  0.7335  0.3172 -0.0402
 5302TIP3   OH237320   0.019   2.443  13.299  0.6889  0.0703  0.2328
 5302TIP3    H137321   0.040   2.350  13.305 -1.3312 -0.4350  0.2155
 5302TIP3    H237322  -0.073   2.448  13.322  0.5130  1.9601 -0.6905
 5303TIP3   OH237323   3.488   6.138   1.190  0.2726  0.0243  0.1257
 5303TIP3    H137324   3.408   6.119   1.239  0.4058  1.8442  1.1411
 5303TIP3    H237325   3.503   6.232   1.205  2.1779 -0.1190 -0.6633
 5304TIP3   OH237326   2.430   2.609   3.335  0.1038  0.3660  0.7939
 5304TIP3    H137327   2.451   2.702   3.323 -1.4846  0.6602 -0.1391
 5304TIP3    H237328   2.488   2.564   3.274 -0.2613  0.9221  0.0044
 5305TIP3   OH237329   2.644   1.579  10.936 -0.8468 -0.2979 -0.2576
 5305TIP3    H137330   2.671   1.606  11.023 -1.3236  0.4065 -0.3160
 5305TIP3    H237331   2.549   1.591  10.937 -0.6010  2.9929 -1.9182
 5306TIP3   OH237332   3.418   2.742   4.966 -0.4857 -0.0867 -0.5740
 5306TIP3    H137333   3.394   2.746   4.873 -0.3106  0.5826 -0.5925
 5306TIP3    H237334   3.355   2.798   5.010 -0.2760 -0.0221 -0.3504
 5307TIP3   OH237335   4.976   5.187   0.767 -0.4859 -0.3080 -0.1999
 5307TIP3    H137336   4.980   5.170   0.673 -1.5779  0.2755 -0.3768
 5307TIP3    H237337   4.959   5.281   0.774 -1.3638 -0.5013  0.5377
 5308TIP3   OH237338   1.169   1.613  11.266  0.4267  0.0074  0.2432
 5308TIP3    H137339   1.209   1.692  11.230  0.7748  0.3706  1.4009
 5308TIP3    H237340   1.210   1.541  11.217  0.9036  0.4796 -0.0650
 5309TIP3   OH237341   2.138   0.138  12.048 -0.5033 -0.1477 -0.1593
 5309TIP3    H137342   2.138   0.233  12.032 -1.2910 -0.1395 -0.1297
 5309TIP3    H237343   2.229   0.119  12.074 -0.6859  0.8590  1.3902
 5310TIP3   OH237344   6.680   2.052  14.906 -0.1164  0.0969 -0.1961
 5310TIP3    H137345   6.654   1.980  14.963 -1.0568 -0.2861 -1.0946
 5310TIP3    H237346   6.601   2.103  14.892  0.3796  0.9009 -0.1603
 5311TIP3   OH237347   5.680   3.052  16.774  0.1614  0.1809  0.6599
 5311TIP3    H137348   5.664   2.966  16.736  0.0113  0.9389 -1.0728
 5311TIP3    H237349   5.625   3.111  16.723 -1.3535  1.0738  3.1491
 5312TIP3   OH237350   1.725   1.279  15.282  0.0231 -0.0712 -0.0152
 5312TIP3    H137351   1.730   1.211  15.215 -0.5248  0.1814 -0.3211
 5312TIP3    H237352   1.671   1.240  15.351 -0.5227  0.1494 -0.3133
 5313TIP3   OH237353   3.117   0.107   3.950 -0.3867 -0.7352 -0.6505
 5313TIP3    H137354   3.022   0.102   3.955 -0.4507  0.8303  0.5874
 5313TIP3    H237355   3.134   0.156   3.870 -0.7442  0.7548  0.1484
 5314TIP3   OH237356   4.460   2.293  11.588 -0.2132  0.1236 -0.4595
 5314TIP3    H137357   4.434   2.371  11.539  3.0463  1.4182 -0.3314
 5314TIP3    H237358   4.497   2.234  11.523  1.3379  0.5683 -0.0100
 5315TIP3   OH237359   3.308   5.891  11.737  1.1508  0.3106 -0.7153
 5315TIP3    H137360   3.383   5.884  11.678  1.5896  0.4586 -0.1824
 5315TIP3    H237361   3.326   5.969  11.789  1.4829 -0.6137  0.5972
 5316TIP3   OH237362   2.963   0.600  14.451  0.0255  0.3562  0.6186
 5316TIP3    H137363   2.907   0.569  14.380  1.7763  1.0344 -1.1735
 5316TIP3    H237364   2.990   0.521  14.497 -0.9761 -0.1187  0.4024
 5317TIP3   OH237365   2.282   4.176  12.109  0.0317  0.5098 -0.6250
 5317TIP3    H137366   2.249   4.144  12.194 -1.0636 -0.2090 -1.2907
 5317TIP3    H237367   2.310   4.265  12.127  0.8840  0.0011  0.7510
 5318TIP3   OH237368   6.053   4.452   3.862  0.3517  0.3974  0.1990
 5318TIP3    H137369   6.128   4.438   3.920  1.1509  1.7993 -0.4517
 5318TIP3    H237370   6.091   4.461   3.775 -0.7990 -1.2052 -0.5147
 5319TIP3   OH237371   2.746   6.261   0.544 -0.7292  0.1080  0.3182
 5319TIP3    H137372   2.704   6.321   0.482  1.8594  1.9401  0.1853
 5319TIP3    H237373   2.752   6.179   0.496 -1.6444  0.5593 -0.6388
 5320TIP3   OH237374   1.786   2.219   3.700  0.6239  0.0729 -0.1068
 5320TIP3    H137375   1.769   2.299   3.748  2.7812 -0.0012  0.8995
 5320TIP3    H237376   1.830   2.247   3.620  1.3291 -0.0647  0.2190
 5321TIP3   OH237377   2.879   6.108   5.814  0.6112 -0.6311  0.1000
 5321TIP3    H137378   2.854   6.163   5.739 -1.8110  0.1796  1.4066
 5321TIP3    H237379   2.844   6.022   5.793 -0.3895 -0.3148  0.4347
 5322TIP3   OH237380   3.092   2.098  15.329  0.4642  0.1970  0.4380
 5322TIP3    H137381   3.030   2.170  15.327 -0.6407 -0.7073  0.9257
 5322TIP3    H237382   3.131   2.102  15.417  0.7062  0.4387  0.3209
 5323TIP3   OH237383   3.516   0.748  13.516 -0.4564  0.5522  0.1211
 5323TIP3    H137384   3.606   0.718  13.522 -0.8922 -1.1553 -1.0470
 5323TIP3    H237385   3.470   0.703  13.587 -0.1642  2.5703  1.6773
 5324TIP3   OH237386   5.128   0.131  14.837 -1.0587 -0.3837 -0.0942
 5324TIP3    H137387   5.138   0.043  14.873  2.3590 -0.4750 -0.8665
 5324TIP3    H237388   5.203   0.180  14.872 -1.7635  1.6400 -1.2231
 5325TIP3   OH237389   0.497   3.575   2.104 -0.7816 -0.4871  0.2095
 5325TIP3    H137390   0.437   3.647   2.086 -1.6383 -1.2905 -0.2029
 5325TIP3    H237391   0.485   3.555   2.197 -0.2480  0.1535  0.4229
 5326TIP3   OH237392   0.794   5.852  11.156  0.0834  0.0721  0.6301
 5326TIP3    H137393   0.884   5.847  11.126 -0.5449 -2.0971 -1.1095
 5326TIP3    H237394   0.744   5.881  11.080 -1.0928 -2.1325  0.4716
 5327TIP3   OH237395   6.429   2.215   4.718  0.1704 -0.4424  0.1899
 5327TIP3    H137396   6.372   2.289   4.736  0.3936 -0.2414  0.0781
 5327TIP3    H237397   6.462   2.189   4.804  0.4104 -0.1545  0.1843
 5328TIP3   OH237398   1.220   2.483   5.829  0.6441  0.2357 -0.2765
 5328TIP3    H137399   1.265   2.560   5.862  0.3820 -0.1026  0.9259
 5328TIP3    H237400   1.287   2.435   5.780  0.7971  1.2194 -1.0562
 5329TIP3   OH237401   4.091   3.483   5.492  0.8851  0.6913 -0.0923
 5329TIP3    H137402   4.007   3.495   5.448  1.6652 -0.8604 -2.1774
 5329TIP3    H237403   4.070   3.433   5.571 -0.1086 -0.0922 -0.8296
 5330TIP3   OH237404   0.432   6.401   1.726  0.2450 -0.6316 -0.5134
 5330TIP3    H137405   0.457   6.470   1.788  2.2571  0.1680 -2.1047
 5330TIP3    H237406   0.397   6.449   1.650 -3.5639 -1.6310  0.4193
 5331TIP3   OH237407   5.304   0.606  10.977  0.2312  0.6600  0.4042
 5331TIP3    H137408   5.369   0.576  11.041  0.4688  0.1208 -0.0742
 5331TIP3    H237409   5.266   0.525  10.942  1.2668  0.8593 -1.3166
 5332TIP3   OH237410   6.493   5.589  15.673  0.7961  0.4792  0.3235
 5332TIP3    H137411   6.553   5.526  15.634 -0.2957  0.9168 -2.2534
 5332TIP3    H237412   6.548   5.642  15.730  2.5343 -0.1915 -0.6488
 5333TIP3   OH237413   4.876   1.967  15.217 -0.0160  0.0737 -0.3544
 5333TIP3    H137414   4.940   1.900  15.239 -2.1471 -2.6014 -1.7223
 5333TIP3    H237415   4.839   1.994  15.301 -0.0969 -1.5398  0.1425
 5334TIP3   OH237416   4.451   0.449   5.781 -0.3182 -0.5326 -0.9365
 5334TIP3    H137417   4.403   0.479   5.857 -0.1047 -1.6184 -0.3550
 5334TIP3    H237418   4.542   0.446   5.810  0.0139  0.6198 -1.7481
 5335TIP3   OH237419   3.223   4.646  15.891  0.0051 -0.4096  0.0969
 5335TIP3    H137420   3.228   4.739  15.868 -2.1640 -0.2882 -0.1777
 5335TIP3    H237421   3.237   4.600  15.809  3.2052 -0.4872  0.5798
 5336TIP3   OH237422   6.774   1.119  12.999 -0.7532 -1.1669  0.5961
 5336TIP3    H137423   6.833   1.172  13.053 -0.8884  0.3410 -0.6875
 5336TIP3    H237424   6.829   1.087  12.927 -1.2212 -0.7570  0.0508
 5337TIP3   OH237425   2.647   5.655  13.464 -0.2999  0.0425  0.4137
 5337TIP3    H137426   2.687   5.711  13.531  2.5681 -1.5492  0.1659
 5337TIP3    H237427   2.642   5.569  13.505  0.8428 -0.7971 -1.1136
 5338TIP3   OH237428   5.104   0.503  13.161 -0.3655 -0.2219 -0.2493
 5338TIP3    H137429   5.079   0.546  13.079 -1.1457  1.2382  0.7063
 5338TIP3    H237430   5.041   0.431  13.171 -0.3145 -0.3558 -0.8865
 5339TIP3   OH237431   3.114   6.739   4.666  0.6364  0.3444  0.7343
 5339TIP3    H137432   3.171   6.771   4.736  1.8193  1.0887 -0.5310
 5339TIP3    H237433   3.051   6.811   4.652  0.0809 -0.0093  1.3479
 5340TIP3   OH237434   2.007   0.275  11.766 -0.1015 -0.2692 -0.6358
 5340TIP3    H137435   2.054   0.204  11.809  0.3737  0.0777 -0.5628
 5340TIP3    H237436   1.931   0.291  11.822 -0.6601 -1.2665 -1.1046
 5341TIP3   OH237437   1.336   4.849  14.028  0.0775 -0.1471 -0.1904
 5341TIP3    H137438   1.265   4.838  13.965  0.5819  0.0782 -0.8260
 5341TIP3    H237439   1.373   4.761  14.039  0.1890 -0.1377 -0.4678
 5342TIP3   OH237440   4.915   1.407   4.415 -0.0098 -0.2104 -0.6654
 5342TIP3    H137441   4.991   1.465   4.404 -1.0396  1.2476 -0.2948
 5342TIP3    H237442   4.840   1.466   4.414 -0.9984 -1.3476  1.4431
 5343TIP3   OH237443   5.527   2.296   0.140 -0.1901 -0.5919 -0.1337
 5343TIP3    H137444   5.596   2.350   0.179 -0.7060  0.2288 -0.3316
 5343TIP3    H237445   5.448   2.320   0.188 -0.8006  0.2840 -1.5417
 5344TIP3   OH237446   0.849   1.443  15.487  0.1670  1.0147 -0.0195
 5344TIP3    H137447   0.785   1.375  15.467  2.0082 -0.2793 -1.9024
 5344TIP3    H237448   0.797   1.518  15.514 -2.1001 -0.1192 -1.0211
 5345TIP3   OH237449   2.783   5.253   2.917  0.1213 -0.1633 -0.8478
 5345TIP3    H137450   2.730   5.239   2.839  1.5566  0.3242 -1.9489
 5345TIP3    H237451   2.726   5.226   2.989 -2.0167  1.3817 -1.8468
 5346TIP3   OH237452   4.994   2.532   4.822  0.2685 -0.0351  0.3119
 5346TIP3    H137453   4.945   2.522   4.904  0.5705 -0.1559  0.4790
 5346TIP3    H237454   5.066   2.591   4.844 -1.1236  2.0657 -0.4979
 5347TIP3   OH237455   4.363   2.082  16.723 -0.3456  0.3980 -0.3382
 5347TIP3    H137456   4.300   2.047  16.786 -0.2650  2.6749  1.1150
 5347TIP3    H237457   4.315   2.088  16.641 -0.7570 -1.6799 -0.2952
 5348TIP3   OH237458   3.297   2.828   4.096 -0.1140  0.1217 -0.0233
 5348TIP3    H137459   3.387   2.804   4.117 -0.1155 -1.7172 -1.8083
 5348TIP3    H237460   3.301   2.862   4.007 -1.1734  0.2814 -0.0279
 5349TIP3   OH237461   0.100   4.051  13.018  0.1817  0.1428  0.1170
 5349TIP3    H137462   0.105   4.083  12.928 -1.1881  0.2094  0.0365
 5349TIP3    H237463   0.191   4.033  13.042  0.3983 -3.0073 -2.3709
 5350TIP3   OH237464   6.430   4.897   0.816 -0.2588 -0.2747 -0.0788
 5350TIP3    H137465   6.433   4.963   0.747 -1.3499 -0.3535 -0.2293
 5350TIP3    H237466   6.384   4.940   0.888  0.1000 -0.4768  0.2700
 5351TIP3   OH237467   5.981   2.618   2.187 -0.1966 -0.1660  0.2640
 5351TIP3    H137468   6.008   2.552   2.123  0.3436  1.2981 -1.0923
 5351TIP3    H237469   6.016   2.700   2.152 -2.3721  1.1161  0.9556
 5352TIP3   OH237470   1.112   6.222  16.276 -0.1196  0.1519  0.5160
 5352TIP3    H137471   1.095   6.237  16.183 -0.7814  0.3450  0.6605
 5352TIP3    H237472   1.085   6.131  16.291  0.1475  0.0670  0.4817
 5353TIP3   OH237473   1.692   6.756   5.063  0.7616 -0.3208 -0.1475
 5353TIP3    H137474   1.681   6.668   5.026  1.3606  0.2454 -1.7804
 5353TIP3    H237475   1.609   6.775   5.105  1.0168 -2.1239  1.3115
 5354TIP3   OH237476   4.675   1.465   4.034  0.5371 -0.4160 -0.2039
 5354TIP3    H137477   4.629   1.530   3.981 -0.4377 -0.3840  0.6522
 5354TIP3    H237478   4.608   1.398   4.054  0.7476 -0.2144  1.3226
 5355TIP3   OH237479   0.704   5.779  16.927  0.2454 -0.7822 -0.1628
 5355TIP3    H137480   0.681   5.726  17.003  0.4714 -0.3112  0.2426
 5355TIP3    H237481   0.787   5.821  16.951 -0.9627  1.4302  0.4233
 5356TIP3   OH237482   1.242   3.712  12.276 -0.7207  0.1966 -0.5451
 5356TIP3    H137483   1.273   3.647  12.340 -0.3202  1.0101  0.1030
 5356TIP3    H237484   1.162   3.747  12.314  1.5954  3.6839  1.6865
 5357TIP3   OH237485   0.935   0.874  12.545  0.1074 -0.4015  0.0055
 5357TIP3    H137486   1.002   0.903  12.484 -0.3134  0.9890  0.1518
 5357TIP3    H237487   0.865   0.940  12.537  0.0373 -0.1736  1.9431
 5358TIP3   OH237488   2.220   5.074   5.306  0.6943  0.1286  0.3890
 5358TIP3    H137489   2.136   5.109   5.337  1.0231  2.1083 -0.8042
 5358TIP3    H237490   2.280   5.148   5.309  1.2396  0.0129 -3.0136
 5359TIP3   OH237491   1.856   1.911  11.368  0.1460  0.6994  0.1473
 5359TIP3    H137492   1.834   1.945  11.455  0.7139 -2.1924  1.5539
 5359TIP3    H237493   1.945   1.879  11.377 -0.0606 -0.3632 -1.2792
 5360TIP3   OH237494   5.181   3.905  13.247 -0.2871 -0.0329 -0.6294
 5360TIP3    H137495   5.097   3.884  13.207  1.1018 -1.8684 -2.8496
 5360TIP3    H237496   5.243   3.846  13.205  2.5606  2.8482 -0.9100
 5361TIP3   OH237497   1.814   5.643   0.123  0.4913  0.2465  0.3176
 5361TIP3    H137498   1.906   5.657   0.101  0.8537 -0.1746  1.5276
 5361TIP3    H237499   1.792   5.716   0.180  0.0239  0.4201 -0.0752
 5362TIP3   OH237500   3.033   1.441   6.613 -0.1569  0.1559  0.1729
 5362TIP3    H137501   3.076   1.522   6.587  2.0070 -1.0923 -0.4269
 5362TIP3    H237502   3.030   1.388   6.533 -0.0996 -0.9359  0.8669
 5363TIP3   OH237503   5.162   5.566   3.956  0.3547 -0.6294 -0.2194
 5363TIP3    H137504   5.234   5.549   4.017  1.5876  1.4285 -0.9908
 5363TIP3    H237505   5.187   5.519   3.876  0.6604 -0.2512 -0.3506
 5364TIP3   OH237506   1.328   0.318  11.728  0.4324 -0.4894 -0.1350
 5364TIP3    H137507   1.365   0.391  11.678 -1.1319 -0.3532 -1.1510
 5364TIP3    H237508   1.388   0.308  11.803  1.7361  0.5728 -0.9836
 5365TIP3   OH237509   4.833   2.062   4.675  0.1290 -0.0783 -0.4286
 5365TIP3    H137510   4.819   2.096   4.763  0.0975  1.4552 -0.9835
 5365TIP3    H237511   4.825   2.139   4.618  0.7865 -0.9140 -1.7138
 5366TIP3   OH237512   5.117   0.382   1.898  0.1906 -0.4888  0.2432
 5366TIP3    H137513   5.174   0.319   1.852  1.7562  1.2263 -0.2820
 5366TIP3    H237514   5.118   0.354   1.989  0.9518 -1.1561  0.0385
 5367TIP3   OH237515   3.058   1.555   5.376  0.5015 -0.0555 -0.1697
 5367TIP3    H137516   3.115   1.620   5.416  1.1842 -0.3842 -0.5775
 5367TIP3    H237517   3.083   1.472   5.418  0.6859 -0.2806 -0.7117
 5368TIP3   OH237518   0.541   6.433  12.572 -0.0288 -0.5051 -0.9448
 5368TIP3    H137519   0.538   6.473  12.659  1.6293  0.8187 -1.4391
 5368TIP3    H237520   0.452   6.400  12.558 -1.1130  1.7345  0.1244
 5369TIP3   OH237521   1.696   3.927   1.583 -0.5595  0.2825 -0.2037
 5369TIP3    H137522   1.733   3.999   1.635  0.5785 -0.0120 -0.5795
 5369TIP3    H237523   1.613   3.907   1.627 -0.1955  0.8421  0.7892
 5370TIP3   OH237524   2.303   2.665  12.020 -0.2071  0.4153  0.3172
 5370TIP3    H137525   2.332   2.753  12.047  0.5739  0.1932  0.2223
 5370TIP3    H237526   2.211   2.662  12.045 -0.0225  0.9497  1.1182
 5371TIP3   OH237527   0.990   1.932   6.364 -0.7240  0.0441  0.2630
 5371TIP3    H137528   1.070   1.881   6.377 -1.1851 -0.8822 -0.3663
 5371TIP3    H237529   0.945   1.928   6.449 -0.9107 -0.9054  0.1341
 5372TIP3   OH237530   3.878   1.083   5.009 -0.0151  0.1982 -0.0926
 5372TIP3    H137531   3.860   1.035   5.090  0.7230 -0.0540 -0.0656
 5372TIP3    H237532   3.965   1.120   5.023  0.0269  0.3253 -0.6930
 5373TIP3   OH237533   6.700   4.613  10.507  0.0231  0.1485  0.2803
 5373TIP3    H137534   6.614   4.600  10.547  0.0346  0.0844  0.2849
 5373TIP3    H237535   6.751   4.536  10.535 -0.5213 -0.8835 -1.3962
 5374TIP3   OH237536   1.498   0.068  14.211 -0.2557 -0.0853  0.3128
 5374TIP3    H137537   1.441   0.141  14.235 -1.2208 -0.7135  0.0038
 5374TIP3    H237538   1.524   0.088  14.121 -0.4402 -0.0677  0.2611
 5375TIP3   OH237539   0.397   0.677   6.184  0.4300 -0.1037  0.1547
 5375TIP3    H137540   0.450   0.756   6.169  1.6293 -0.9128 -0.0725
 5375TIP3    H237541   0.446   0.607   6.140 -1.1864 -0.8020 -0.6265
 5376TIP3   OH237542   0.695   6.689   6.415  0.2288 -0.2039 -0.1523
 5376TIP3    H137543   0.765   6.632   6.384  0.3114 -0.7186  0.9161
 5376TIP3    H237544   0.620   6.668   6.360  0.6648 -0.3018 -0.7132
 5377TIP3   OH237545   2.752   0.698   6.390  0.4329 -0.3435 -0.2742
 5377TIP3    H137546   2.679   0.702   6.328 -1.3418  0.6696  1.7765
 5377TIP3    H237547   2.719   0.647   6.463  2.0940 -0.5811  0.3521
 5378TIP3   OH237548   0.784   2.919  12.388  0.2736 -0.4367 -0.2186
 5378TIP3    H137549   0.737   2.840  12.416 -2.5518  1.0643 -0.3841
 5378TIP3    H237550   0.748   2.939  12.301  2.0756  0.1996 -0.8615
 5379TIP3   OH237551   0.253   3.148   0.476 -0.0045 -0.1144 -0.7960
 5379TIP3    H137552   0.212   3.070   0.438  0.4171 -0.3756 -0.7186
 5379TIP3    H237553   0.345   3.143   0.448  0.4652 -0.6319  0.7560
 5380TIP3   OH237554   0.268   2.712  12.059  0.0546 -0.7592 -0.3642
 5380TIP3    H137555   0.310   2.715  11.973  0.7897 -0.6208 -0.0122
 5380TIP3    H237556   0.237   2.622  12.067 -0.8264 -0.5405 -1.1354
 5381TIP3   OH237557   6.428   6.648   0.921  0.2835  0.2209  0.0083
 5381TIP3    H137558   6.343   6.691   0.912 -0.1811 -0.3819  1.3536
 5381TIP3    H237559   6.410   6.567   0.968  1.8678  1.1513  2.4042
 5382TIP3   OH237560   3.467   4.597  17.042  0.2638  0.5416 -0.3252
 5382TIP3    H137561   3.372   4.602  17.040  0.2944  1.5131  0.1673
 5382TIP3    H237562   3.489   4.526  16.982 -0.7194  0.9187 -1.1511
 5383TIP3   OH237563   2.028   6.068  11.424 -0.0572  0.1491 -0.0026
 5383TIP3    H137564   2.071   6.073  11.338 -0.6367 -0.2679 -0.3214
 5383TIP3    H237565   1.968   6.142  11.424  1.1536  1.1725  0.7340
 5384TIP3   OH237566   0.890   2.052  13.631 -0.3527 -0.6255 -1.1220
 5384TIP3    H137567   0.887   1.978  13.692 -0.1199  0.6046  0.4564
 5384TIP3    H237568   0.802   2.057  13.595 -1.4425  0.3778  1.3979
 5385TIP3   OH237569   3.059   4.608   0.447  0.0131 -0.0920  0.5665
 5385TIP3    H137570   3.097   4.638   0.365  0.3198 -1.0993  0.3276
 5385TIP3    H237571   2.977   4.565   0.421  1.3028 -2.6794  0.4461
 5386TIP3   OH237572   5.348   6.551  15.105  0.0096 -0.4518  0.5340
 5386TIP3    H137573   5.349   6.588  15.193 -0.4282 -2.3911  1.4284
 5386TIP3    H237574   5.375   6.460  15.117 -1.6622 -1.2452 -1.0777
 5387TIP3   OH237575   5.607   4.340   0.914 -0.7427  0.6556 -0.0808
 5387TIP3    H137576   5.639   4.291   0.989 -0.9352  1.6724  0.6855
 5387TIP3    H237577   5.512   4.338   0.922 -0.7503  1.2067 -0.0069
 5388TIP3   OH237578   6.017   1.442  15.045 -0.5178 -0.1396  0.6236
 5388TIP3    H137579   6.047   1.518  14.996 -2.4542 -0.0588 -0.5669
 5388TIP3    H237580   6.096   1.404  15.084  0.5862  1.9623  0.5245
 5389TIP3   OH237581   5.959   4.634  14.085 -0.6023  0.5633  0.0515
 5389TIP3    H137582   5.918   4.595  14.008 -0.6181  0.2377  0.2184
 5389TIP3    H237583   6.014   4.564  14.121  2.2923  1.7830 -1.6771
 5390TIP3   OH237584   5.068   0.866   4.729 -0.7704 -0.0160  0.4316
 5390TIP3    H137585   5.053   0.772   4.740  1.1456 -0.6249 -1.5392
 5390TIP3    H237586   5.155   0.881   4.765 -1.2365  1.1426  1.1430
 5391TIP3   OH237587   0.425   6.084  15.371  0.5245  0.3785 -0.4382
 5391TIP3    H137588   0.402   6.085  15.464  1.6901  0.2670 -0.1297
 5391TIP3    H237589   0.355   6.133  15.328 -0.3249 -0.0463  0.4201
 5392TIP3   OH237590   6.067   6.051  14.371 -0.6342  0.4720 -0.8759
 5392TIP3    H137591   6.069   6.111  14.297 -2.5919  0.3804 -1.0652
 5392TIP3    H237592   6.067   5.964  14.331 -2.0347  0.4246 -0.8214
 5393TIP3   OH237593   3.340   4.278   4.195 -0.1330  0.1012  0.4608
 5393TIP3    H137594   3.286   4.296   4.119 -2.1640 -0.2882  1.7309
 5393TIP3    H237595   3.354   4.364   4.235  0.2414  0.2110  0.0944
 5394TIP3   OH237596   0.086   4.953   0.681 -0.0011 -0.1382 -0.2260
 5394TIP3    H137597   0.176   4.949   0.715 -0.3437  0.6151  0.8055
 5394TIP3    H237598   0.096   4.987   0.593  0.8130 -1.0278 -0.4979
 5395TIP3   OH237599   2.140   2.481   0.161 -0.3405 -0.0292 -0.2497
 5395TIP3    H137600   2.085   2.545   0.206  0.4353  0.0164  0.6715
 5395TIP3    H237601   2.213   2.532   0.127 -0.9960 -0.0334 -1.7531
 5396TIP3   OH237602   4.746   1.598   4.554 -0.0823  0.2391 -0.3045
 5396TIP3    H137603   4.722   1.689   4.534 -3.9739 -1.1571 -3.3398
 5396TIP3    H237604   4.684   1.572   4.622 -0.6652 -0.7287 -1.1800
 5397TIP3   OH237605   4.063   0.299  14.106  0.0309 -0.2887 -0.1731
 5397TIP3    H137606   4.104   0.265  14.185 -0.0580 -1.0428 -0.4463
 5397TIP3    H237607   3.992   0.355  14.138  0.7661  0.4003  0.2899
 5398TIP3   OH237608   4.876   0.418   2.323 -0.2095 -0.1802 -0.3359
 5398TIP3    H137609   4.845   0.418   2.233 -1.6599 -0.1097  0.1279
 5398TIP3    H237610   4.866   0.328   2.353  0.5017 -0.2561 -0.3206
 5399TIP3   OH237611   2.161   1.014  16.764 -0.0120  0.6733  0.3516
 5399TIP3    H137612   2.256   1.001  16.762 -0.0696  0.3429 -0.8907
 5399TIP3    H237613   2.128   0.932  16.801  0.1872  0.8346  0.8991
 5400TIP3   OH237614   3.619   6.451  12.545 -0.5565 -0.4038  0.1134
 5400TIP3    H137615   3.712   6.432  12.535 -0.4238  0.3718 -0.1622
 5400TIP3    H237616   3.614   6.546  12.553 -1.1754 -0.5547  1.8636
 5401TIP3   OH237617   4.398   3.075  16.050  0.2114 -0.0185  0.3577
 5401TIP3    H137618   4.349   3.155  16.070  2.8364  1.3281  2.2159
 5401TIP3    H237619   4.423   3.085  15.958  0.6032  1.4317  0.5854
 5402TIP3   OH237620   1.349   1.781  11.135  0.2672 -0.4999 -0.6400
 5402TIP3    H137621   1.397   1.861  11.112 -0.0106 -0.1926 -0.1674
 5402TIP3    H237622   1.411   1.710  11.116  1.1894 -0.0761  0.6073
 5403TIP3   OH237623   1.165   1.772  13.533 -0.4447 -0.0694  0.1093
 5403TIP3    H137624   1.112   1.718  13.473  0.2613  1.5237 -2.0998
 5403TIP3    H237625   1.167   1.858  13.491  1.0132  0.8370  1.9317
 5404TIP3   OH237626   0.540   6.255  17.194  0.2795  0.0733  0.0231
 5404TIP3    H137627   0.501   6.339  17.168  2.4274  1.0618 -0.1807
 5404TIP3    H237628   0.465   6.201  17.220 -1.5291  0.8232 -3.1604
 5405TIP3   OH237629   0.837   4.975   0.093 -0.3400  0.4409 -0.2657
 5405TIP3    H137630   0.860   5.062   0.127  3.2278 -0.8524  1.1910
 5405TIP3    H237631   0.855   4.981  -0.001 -0.4732  1.3744 -0.2409
 5406TIP3   OH237632   4.706   0.783  13.254  0.3120 -0.3040 -0.4573
 5406TIP3    H137633   4.710   0.708  13.314  2.2690 -0.3905 -0.6406
 5406TIP3    H237634   4.797   0.804  13.236 -0.2034  1.8159 -0.8316
 5407TIP3   OH237635   6.660   1.873  11.148 -0.3042  0.4363 -0.0749
 5407TIP3    H137636   6.687   1.781  11.137 -0.1681  0.4437  0.1780
 5407TIP3    H237637   6.619   1.896  11.065  1.4849  0.7740 -0.9209
 5408TIP3   OH237638   4.869   6.636  12.884  0.1689 -0.0780 -0.2332
 5408TIP3    H137639   4.866   6.728  12.856 -1.9753 -0.4866 -1.5893
 5408TIP3    H237640   4.900   6.588  12.807  0.2911 -0.5899  0.1303
 5409TIP3   OH237641   6.571   5.088  16.965 -0.0351 -0.5022 -0.5923
 5409TIP3    H137642   6.568   4.996  16.991 -0.8109 -0.1506  0.6514
 5409TIP3    H237643   6.574   5.136  17.048 -0.5295  0.6197 -1.2021
 5410TIP3   OH237644   5.537   5.132   1.336 -0.2860 -0.3781 -0.4987
 5410TIP3    H137645   5.478   5.097   1.403 -1.0765  1.7610 -0.0221
 5410TIP3    H237646   5.497   5.104   1.253 -1.3580  0.0527 -0.1477
 5411TIP3   OH237647   2.472   2.387   5.977 -0.4727  0.0937  0.1013
 5411TIP3    H137648   2.454   2.395   5.884  0.7291 -0.6903 -0.2277
 5411TIP3    H237649   2.523   2.306   5.985 -1.2210 -0.2711  1.5445
 5412TIP3   OH237650   5.075   6.201  11.889 -0.3311  0.0765  0.7093
 5412TIP3    H137651   4.995   6.226  11.936  1.0600  0.5824  2.9930
 5412TIP3    H237652   5.139   6.187  11.958  1.5005 -0.5813 -1.0411
 5413TIP3   OH237653   2.573   1.750   0.397  0.3858 -0.5551  0.3285
 5413TIP3    H137654   2.666   1.763   0.415  0.0684  1.4764  0.7483
 5413TIP3    H237655   2.571   1.688   0.324  2.1466  0.8980 -1.0383
 5414TIP3   OH237656   2.794   2.974  14.136  0.1492 -0.4644 -0.1266
 5414TIP3    H137657   2.742   3.019  14.203  1.0680 -0.1657  0.4101
 5414TIP3    H237658   2.810   2.886  14.173  0.6055 -0.3192  0.0382
 5415TIP3   OH237659   2.426   2.798   5.046  0.0190  0.1890 -0.0393
 5415TIP3    H137660   2.465   2.833   5.126 -1.8825  1.7019  0.2962
 5415TIP3    H237661   2.337   2.776   5.070  0.2624 -2.2136 -1.0390
 5416TIP3   OH237662   3.230   3.587   3.077 -0.1333 -0.1413 -0.0495
 5416TIP3    H137663   3.138   3.560   3.086  0.4002 -1.5283  1.7954
 5416TIP3    H237664   3.274   3.509   3.042  0.4191  0.3775 -0.5250
 5417TIP3   OH237665   1.618   1.072  12.716  0.2195 -0.2117  0.3756
 5417TIP3    H137666   1.608   1.023  12.798  0.9867 -1.1713 -0.0876
 5417TIP3    H237667   1.663   1.012  12.657  2.5766  1.5104  0.2471
 5418TIP3   OH237668   4.690   5.680   4.384 -1.1030 -0.2211 -0.3461
 5418TIP3    H137669   4.660   5.710   4.470 -0.7002  1.3906 -0.7333
 5418TIP3    H237670   4.615   5.632   4.349 -1.6848  0.0860  0.4314
 5419TIP3   OH237671   4.543   3.015  15.426  0.4139  0.4483  0.3402
 5419TIP3    H137672   4.566   3.023  15.333  0.6539 -1.1260  0.2418
 5419TIP3    H237673   4.596   2.942  15.458 -1.0957 -0.3134  1.2239
 5420TIP3   OH237674   2.729   0.847   2.576  0.1576 -0.2519  0.5449
 5420TIP3    H137675   2.651   0.797   2.599  1.1337 -0.4510  3.8943
 5420TIP3    H237676   2.695   0.921   2.525 -1.8513 -1.6774 -0.3411
 5421TIP3   OH237677   2.591   1.596   1.517  0.4500  0.5475 -0.1513
 5421TIP3    H137678   2.527   1.527   1.496 -1.4941  1.8270  1.1980
 5421TIP3    H237679   2.616   1.632   1.432  0.0125 -0.5313 -0.7625
 5422TIP3   OH237680   4.150   2.961   2.214  0.1250  0.0553  0.1034
 5422TIP3    H137681   4.208   2.934   2.285 -0.4555  0.6089  0.7959
 5422TIP3    H237682   4.172   2.902   2.142  3.2497  1.7329 -0.4777
 5423TIP3   OH237683   1.836   4.799   1.866 -0.1987 -0.7263 -0.1972
 5423TIP3    H137684   1.839   4.800   1.962  0.1086 -0.5009 -0.2058
 5423TIP3    H237685   1.856   4.890   1.841 -0.0053 -0.8474 -0.4815
 5424TIP3   OH237686   6.486   4.677   3.873 -0.3239 -0.1457  0.2043
 5424TIP3    H137687   6.550   4.618   3.912  0.5200 -0.2085 -1.1925
 5424TIP3    H237688   6.444   4.625   3.804  0.4351  0.8397 -1.0517
 5425TIP3   OH237689   2.831   0.982  13.613  0.6035 -0.4820  0.0736
 5425TIP3    H137690   2.866   1.010  13.529  0.1734  0.0763  0.0696
 5425TIP3    H237691   2.896   0.922  13.648  0.3479 -1.4638 -1.0717
 5426TIP3   OH237692   4.728   3.364   0.253  0.4562 -0.3618 -0.1487
 5426TIP3    H137693   4.731   3.449   0.208  0.2743 -0.4238 -0.2796
 5426TIP3    H237694   4.733   3.386   0.346 -0.5769 -0.1364 -0.1275
 5427TIP3   OH237695   3.885   4.109  12.465  0.2162 -0.2166  0.4796
 5427TIP3    H137696   3.805   4.073  12.504  0.3677  1.1004  2.1476
 5427TIP3    H237697   3.860   4.197  12.436  1.3174  0.7472  2.2599
 5428TIP3   OH237698   1.464   1.178   5.682 -0.1299 -0.1772  0.1188
 5428TIP3    H137699   1.380   1.131   5.685  0.4080 -1.0981  1.4198
 5428TIP3    H237700   1.502   1.153   5.598 -1.0477  0.0552 -0.3760
 5429TIP3   OH237701   3.936   4.302  13.595  0.1735 -0.5262 -0.3886
 5429TIP3    H137702   4.011   4.361  13.587 -0.0573 -0.1751  0.0373
 5429TIP3    H237703   3.887   4.313  13.513 -0.0133  0.0713 -0.1975
 5430TIP3   OH237704   1.211   3.497   3.007  0.3222  0.3624 -0.2903
 5430TIP3    H137705   1.188   3.511   3.099  1.5670 -1.0736  0.2820
 5430TIP3    H237706   1.307   3.492   3.007  0.2564 -2.4158 -1.1924
 5431TIP3   OH237707   5.765   1.134  12.186  0.2319 -0.0405 -0.1387
 5431TIP3    H137708   5.670   1.151  12.184  0.0475 -0.9865  0.0913
 5431TIP3    H237709   5.803   1.209  12.141 -0.6228  0.3816 -0.1939
 5432TIP3   OH237710   2.128   3.254  13.888 -0.2327  0.2688 -0.6176
 5432TIP3    H137711   2.196   3.188  13.880 -0.1994  0.3447 -1.0217
 5432TIP3    H237712   2.063   3.216  13.947  0.0520  0.1060 -0.4099
 5433TIP3   OH237713   5.591   6.072  11.165 -0.0461 -0.3825 -0.0185
 5433TIP3    H137714   5.591   6.128  11.087  0.3340 -0.4414 -0.0616
 5433TIP3    H237715   5.587   5.983  11.131 -0.0950 -0.4002  0.0338
 5434TIP3   OH237716   5.645   5.283  12.180  0.1240 -0.0641 -0.4300
 5434TIP3    H137717   5.632   5.332  12.098 -1.1459  0.4617  0.0685
 5434TIP3    H237718   5.698   5.341  12.235 -0.5103  0.3225 -0.2242
 5435TIP3   OH237719   2.430   4.524   6.044  0.0804  0.2495 -0.0215
 5435TIP3    H137720   2.356   4.535   5.983  0.5777 -0.4468 -0.7779
 5435TIP3    H237721   2.482   4.603   6.031 -0.5833  0.8008  0.6025
 5436TIP3   OH237722   5.365   0.219  12.039 -0.4272 -0.2677 -0.5170
 5436TIP3    H137723   5.408   0.268  12.110  1.5903 -0.9495 -1.1845
 5436TIP3    H237724   5.329   0.286  11.982 -1.5885  0.3060  0.8441
 5437TIP3   OH237725   2.987   0.007  15.530  0.4280  0.2687  0.7504
 5437TIP3    H137726   3.035  -0.072  15.506 -1.5870 -1.4578  1.9889
 5437TIP3    H237727   2.915   0.012  15.467  1.5473  2.2664 -0.4874
 5438TIP3   OH237728   4.901   3.306  13.646 -0.2265  0.1796 -0.6092
 5438TIP3    H137729   4.821   3.349  13.677 -0.1735  0.9275 -1.4519
 5438TIP3    H237730   4.934   3.365  13.578  1.6476  0.4314  0.4790
 5439TIP3   OH237731   0.340   3.402  14.633  0.7732 -0.5011  0.2162
 5439TIP3    H137732   0.296   3.389  14.549  0.4569  0.7494  0.1649
 5439TIP3    H237733   0.287   3.468  14.677 -0.1286 -2.3823  2.1806
 5440TIP3   OH237734   3.839   1.254  17.161 -0.1580  0.0176  0.4404
 5440TIP3    H137735   3.890   1.191  17.212  1.0632  0.4041 -0.2709
 5440TIP3    H237736   3.898   1.328  17.146 -1.3308  1.0380  0.6442
 5441TIP3   OH237737   4.719   4.330  10.981  0.0030  0.0706  0.5655
 5441TIP3    H137738   4.713   4.397  11.049 -1.9649  0.1032  0.4135
 5441TIP3    H237739   4.687   4.373  10.902 -2.2311 -1.2531  0.6768
 5442TIP3   OH237740   3.184   0.822   3.647  0.2177 -0.4301 -0.8862
 5442TIP3    H137741   3.250   0.887   3.669 -1.0094  1.2182 -1.8481
 5442TIP3    H237742   3.160   0.841   3.556 -0.6994 -1.7552 -0.9498
 5443TIP3   OH237743   2.260   1.968  17.212  0.7270 -0.1201 -0.1723
 5443TIP3    H137744   2.270   2.063  17.220 -3.6100  0.4725  0.6012
 5443TIP3    H237745   2.253   1.953  17.118  1.1397  0.3447 -0.2848
 5444TIP3   OH237746   0.615   4.360  16.613 -0.4468 -0.0411  0.1112
 5444TIP3    H137747   0.564   4.287  16.649  0.2139 -0.4946  0.1352
 5444TIP3    H237748   0.650   4.405  16.690  1.7129 -1.5393  0.0783
 5445TIP3   OH237749   5.239   3.283   1.214 -0.2925  0.4792  0.3647
 5445TIP3    H137750   5.264   3.229   1.139  0.0623 -1.3530  1.7013
 5445TIP3    H237751   5.244   3.373   1.183  0.6896 -0.1855 -1.5448
 5446TIP3   OH237752   2.354   0.752  13.095 -0.5995  0.5666  0.1815
 5446TIP3    H137753   2.331   0.788  13.009 -0.5914 -0.7217 -0.3798
 5446TIP3    H237754   2.446   0.776  13.107 -0.9004  1.7113  0.3471
 5447TIP3   OH237755   0.200   0.259  16.542  0.2251  0.2376  0.2605
 5447TIP3    H137756   0.121   0.212  16.569  0.4871 -0.3426  0.0256
 5447TIP3    H237757   0.168   0.344  16.511 -0.5935 -0.9161 -2.2697
 5448TIP3   OH237758   2.965   6.594   1.336  0.0151  0.3873 -0.3181
 5448TIP3    H137759   2.996   6.633   1.418 -0.1856 -0.5034  0.2034
 5448TIP3    H237760   3.025   6.627   1.269  0.9042  0.2145  0.3730
 5449TIP3   OH237761   4.441   4.416   5.920 -0.0281 -0.1692  0.3308
 5449TIP3    H137762   4.381   4.426   5.846 -0.0952 -0.6234  0.3226
 5449TIP3    H237763   4.457   4.506   5.950 -1.0134 -0.0603  0.5695
 5450TIP3   OH237764   4.200   2.410  15.051  0.2149 -0.4700  0.2100
 5450TIP3    H137765   4.269   2.444  14.994 -0.5393 -0.6747 -0.8492
 5450TIP3    H237766   4.175   2.484  15.105 -0.2454  0.2369 -0.9236
 5451TIP3   OH237767   4.962   6.571  14.121  0.2223  0.0218  0.2074
 5451TIP3    H137768   4.938   6.636  14.187 -2.0343 -0.2521 -0.2784
 5451TIP3    H237769   5.011   6.504  14.170  1.1220  1.2261  1.0196
 5452TIP3   OH237770   5.907   4.820  14.973 -0.0971 -0.2713 -0.0808
 5452TIP3    H137771   5.891   4.900  14.923  0.6600  0.9166  1.4986
 5452TIP3    H237772   5.963   4.767  14.916 -0.8824  0.1492 -1.2880
 5453TIP3   OH237773   4.389   0.670   1.563 -0.2464  0.6839  0.0151
 5453TIP3    H137774   4.335   0.638   1.490  0.5507 -0.0473 -0.2783
 5453TIP3    H237775   4.479   0.660   1.532  0.4670 -3.8211  2.5486
 5454TIP3   OH237776   1.482   4.150  16.967  0.2719 -0.1573 -0.9247
 5454TIP3    H137777   1.522   4.138  17.053  0.8886 -3.3148 -1.5111
 5454TIP3    H237778   1.491   4.065  16.924 -1.8356  0.6993 -3.3704
 5455TIP3   OH237779   1.153   3.692  11.445  0.4559 -0.2210 -0.5375
 5455TIP3    H137780   1.066   3.673  11.478  0.7285  0.8165  0.8970
 5455TIP3    H237781   1.142   3.699  11.350 -0.9936 -0.2246 -0.3895
 5456TIP3   OH237782   2.625   6.656   1.787 -0.1387 -0.0991  0.0394
 5456TIP3    H137783   2.659   6.741   1.814 -1.4956  0.7937 -0.9006
 5456TIP3    H237784   2.630   6.658   1.691  0.2063 -1.2521  0.0219
 5457TIP3   OH237785   3.333   5.436  11.226 -0.2951  0.4893 -0.2767
 5457TIP3    H137786   3.297   5.480  11.303 -0.1623  0.6672 -0.3160
 5457TIP3    H237787   3.364   5.351  11.260 -0.5130  0.4426 -0.1944
 5458TIP3   OH237788   3.251   2.152   0.465 -0.5721  0.3867 -0.7542
 5458TIP3    H137789   3.200   2.145   0.385 -1.0797  0.2293 -0.4222
 5458TIP3    H237790   3.189   2.185   0.530  0.0534  1.3639 -0.6376
 5459TIP3   OH237791   2.703   1.887  15.074 -0.3981  0.0021  0.4358
 5459TIP3    H137792   2.792   1.918  15.087 -0.6326  0.3448  1.2939
 5459TIP3    H237793   2.712   1.797  15.043  0.2415  0.1041  0.3227
 5460TIP3   OH237794   0.395   2.834   1.658  0.0830 -0.2705 -0.0605
 5460TIP3    H137795   0.404   2.872   1.570 -0.1272 -2.0141 -0.8754
 5460TIP3    H237796   0.367   2.744   1.642 -2.0963 -0.0134  1.8712
 5461TIP3   OH237797   0.234   2.715   5.958  0.0604 -0.1385 -0.1024
 5461TIP3    H137798   0.315   2.719   6.010 -0.2597  0.3064  0.3807
 5461TIP3    H237799   0.177   2.780   6.000 -0.3055  0.0243 -0.8479
 5462TIP3   OH237800   5.500   1.342  13.970  0.1080  0.1475  0.2040
 5462TIP3    H137801   5.551   1.273  14.013 -0.7189  1.0576  2.7822
 5462TIP3    H237802   5.514   1.420  14.024 -0.7561  1.4613 -1.3863
 5463TIP3   OH237803   3.571   1.265   5.822 -0.0912 -0.1502 -0.2856
 5463TIP3    H137804   3.620   1.183   5.833 -1.2007 -0.6281  1.3148
 5463TIP3    H237805   3.627   1.332   5.862 -0.3912 -0.5728  0.8617
 5464TIP3   OH237806   4.709   5.514   3.575  0.0432 -0.7513  0.3470
 5464TIP3    H137807   4.721   5.565   3.656  3.4987  0.9794 -1.0612
 5464TIP3    H237808   4.650   5.568   3.522  0.9133  0.0949  0.2195
 5465TIP3   OH237809   1.378   3.690  14.995 -0.5017 -0.1842 -0.2475
 5465TIP3    H137810   1.363   3.673  15.088  0.1226 -1.2147 -0.3231
 5465TIP3    H237811   1.293   3.674  14.954 -0.8881  0.6791  0.1789
 5466TIP3   OH237812   2.461   1.227   4.792 -0.4961 -0.4076 -0.0717
 5466TIP3    H137813   2.419   1.172   4.858  0.3582 -1.4667 -0.3717
 5466TIP3    H237814   2.464   1.314   4.831 -1.0743 -0.7609  0.7872
 5467TIP3   OH237815   0.157   3.925  11.716  0.3218 -0.1676  0.2471
 5467TIP3    H137816   0.111   3.842  11.713  0.3445 -0.1574 -0.3559
 5467TIP3    H237817   0.121   3.976  11.643 -0.7826  0.9234  1.4868
 5468TIP3   OH237818   3.211   3.816  16.666 -0.0874 -0.1579  0.3645
 5468TIP3    H137819   3.261   3.755  16.720 -1.2013  0.4400  2.1624
 5468TIP3    H237820   3.128   3.770  16.649 -0.5087  0.4124  0.8322
 5469TIP3   OH237821   5.096   1.290   5.619 -0.3358 -0.2778  0.6393
 5469TIP3    H137822   5.148   1.315   5.542 -0.6812 -0.3230  0.3854
 5469TIP3    H237823   5.067   1.373   5.656  2.3547 -0.0640  2.5471
 5470TIP3   OH237824   1.376   4.069   3.277  0.2019 -0.4388 -0.0924
 5470TIP3    H137825   1.423   4.021   3.344  0.8792 -0.2847 -0.4480
 5470TIP3    H237826   1.408   4.159   3.285 -0.1830 -0.2872 -0.2073
 5471TIP3   OH237827   0.881   1.877  13.854 -0.5253 -0.8011 -0.3278
 5471TIP3    H137828   0.869   1.809  13.921 -1.3236 -0.5101 -0.1669
 5471TIP3    H237829   0.795   1.918  13.846  0.3386  1.3739  0.8371
 5472TIP3   OH237830   3.869   1.511  11.857 -0.1116  0.1151 -0.0977
 5472TIP3    H137831   3.869   1.486  11.764 -0.3737 -2.4530  0.5139
 5472TIP3    H237832   3.790   1.471  11.893 -0.9574  2.5487  0.9437
 5473TIP3   OH237833   3.215   0.675  12.896  0.2435  0.4912 -0.3377
 5473TIP3    H137834   3.200   0.588  12.932  1.5566  0.4360  0.1429
 5473TIP3    H237835   3.309   0.689  12.906  0.4226  1.1032 -2.3596
 5474TIP3   OH237836   3.255   0.715   4.079  0.2764 -0.0876 -0.2328
 5474TIP3    H137837   3.259   0.624   4.106 -3.0319 -0.0924  0.7445
 5474TIP3    H237838   3.194   0.716   4.005 -0.3162  1.3610  0.2287
 5475TIP3   OH237839   0.111   2.609   1.129  0.2994 -0.1838 -0.6181
 5475TIP3    H137840   0.109   2.539   1.063 -0.7317 -2.8449  2.0223
 5475TIP3    H237841   0.204   2.619   1.149  0.4305 -1.1377 -0.7074
 5476TIP3   OH237842   3.399   1.116   6.264 -0.0394 -0.2964  0.0128
 5476TIP3    H137843   3.311   1.154   6.271  0.7036  1.1962  2.4252
 5476TIP3    H237844   3.397   1.038   6.319  0.1933 -0.1240  0.2707
 5477TIP3   OH237845   0.574   5.011   6.469  0.0632 -0.1591  0.1713
 5477TIP3    H137846   0.569   4.966   6.553  0.3240 -0.3309  0.0941
 5477TIP3    H237847   0.501   5.073   6.471  0.0617 -0.1718  0.5183
 5478TIP3   OH237848   0.052   5.892  16.231  0.3082 -0.2255  0.7979
 5478TIP3    H137849   0.112   5.957  16.268  0.1389  0.6048 -0.3276
 5478TIP3    H237850  -0.033   5.912  16.269  0.4088 -0.2906  1.0563
 5479TIP3   OH237851   4.204   2.576   2.985  0.7831 -0.2507 -0.7982
 5479TIP3    H137852   4.249   2.493   2.969  0.8292 -0.7400  1.5119
 5479TIP3    H237853   4.172   2.569   3.075 -0.2851  1.7617 -0.9637
 5480TIP3   OH237854   3.173   5.263  15.440 -0.2573 -0.2809 -0.1411
 5480TIP3    H137855   3.223   5.278  15.520  0.3301  1.5640 -0.7958
 5480TIP3    H237856   3.185   5.170  15.421 -0.4389 -0.7575  1.9056
 5481TIP3   OH237857   4.541   2.802  14.395 -0.4054  0.3832 -0.4500
 5481TIP3    H137858   4.556   2.707  14.389  1.2305  0.7418 -3.4140
 5481TIP3    H237859   4.456   2.815  14.354 -0.0114  0.3181 -1.3036
 5482TIP3   OH237860   2.709   4.635  12.620 -0.2956 -0.0012  0.4667
 5482TIP3    H137861   2.620   4.663  12.598 -0.9098 -1.1017  1.4383
 5482TIP3    H237862   2.758   4.646  12.538 -1.2805  0.7634 -0.0451
 5483TIP3   OH237863   6.042   1.518   6.362  0.0623  0.4104  0.2291
 5483TIP3    H137864   5.987   1.529   6.439  1.0304  0.1609  0.9729
 5483TIP3    H237865   6.121   1.568   6.382  0.2857  0.4208 -0.6466
 5484TIP3   OH237866   6.239   3.100   6.525  0.5401  0.6192 -0.1879
 5484TIP3    H137867   6.276   3.174   6.477  1.0964  0.1382 -0.5223
 5484TIP3    H237868   6.207   3.138   6.606 -0.7707  1.5111 -1.0839
 5485TIP3   OH237869   6.480   4.902  11.346 -0.3238  0.2922 -0.2650
 5485TIP3    H137870   6.575   4.910  11.355 -0.4077  1.3815 -0.2393
 5485TIP3    H237871   6.466   4.900  11.251 -0.2630 -0.1370 -0.2681
 5486TIP3   OH237872   1.893   5.116  12.390  0.1588  0.3324  0.0378
 5486TIP3    H137873   1.900   5.211  12.397  1.4196  0.2937 -0.4060
 5486TIP3    H237874   1.870   5.087  12.478 -0.9082  1.0867  0.0224
 5487TIP3   OH237875   2.922   0.396   4.293 -0.7049 -0.1828  0.4604
 5487TIP3    H137876   2.844   0.385   4.348 -1.5307 -1.8022 -0.9369
 5487TIP3    H237877   2.966   0.311   4.299 -1.0516 -0.5584 -1.6544
 5488TIP3   OH237878   0.124   6.366  15.411  0.3957 -0.3945  0.2351
 5488TIP3    H137879   0.143   6.458  15.392  1.4122 -0.8035 -0.8466
 5488TIP3    H237880   0.185   6.343  15.481 -0.2215 -0.1127  0.8725
 5489TIP3   OH237881   2.231   4.170   4.564  0.1130  0.2629 -0.0716
 5489TIP3    H137882   2.138   4.165   4.588  0.0677  0.8094 -0.1212
 5489TIP3    H237883   2.261   4.079   4.564 -0.8092 -0.0802 -1.5653
 5490TIP3   OH237884   4.076   0.990   0.732 -0.4461  0.2888  0.2343
 5490TIP3    H137885   4.078   1.081   0.703  0.9814  1.6113  3.7909
 5490TIP3    H237886   4.168   0.962   0.728 -0.8707 -1.0317 -0.7977
 5491TIP3   OH237887   2.962   3.068  13.454 -0.0663 -0.6912 -0.3392
 5491TIP3    H137888   3.033   3.132  13.456  1.9428 -2.8050  1.2594
 5491TIP3    H237889   2.961   3.036  13.364 -0.0466  0.4031 -0.7493
 5492TIP3   OH237890   1.596   5.748  16.830  0.5062  0.3555  0.1989
 5492TIP3    H137891   1.619   5.841  16.828  1.4061  0.1333 -0.2718
 5492TIP3    H237892   1.537   5.740  16.905  0.2483  1.3413  0.1212
 5493TIP3   OH237893   1.723   0.458   3.433  0.1980  0.4937  0.4161
 5493TIP3    H137894   1.644   0.480   3.483  0.2317 -1.9429  1.7356
 5493TIP3    H237895   1.795   0.495   3.484  0.0808  0.0826  0.8842
 5494TIP3   OH237896   1.079   1.630  12.534  0.1071 -0.2170  1.0231
 5494TIP3    H137897   1.147   1.569  12.561  1.2211  0.0126 -1.0566
 5494TIP3    H237898   1.027   1.582  12.470  1.3667  1.1109 -1.1003
 5495TIP3   OH237899   2.823   4.937   6.468 -0.0871 -0.0502 -0.4305
 5495TIP3    H137900   2.860   4.885   6.539  0.9707 -1.2413 -1.8114
 5495TIP3    H237901   2.728   4.934   6.483  0.0794 -0.8134  0.5445
 5496TIP3   OH237902   1.748   4.235  13.816 -0.5088  0.7694 -0.0012
 5496TIP3    H137903   1.744   4.326  13.784 -1.0400  0.8484  0.2915
 5496TIP3    H237904   1.686   4.232  13.888 -0.6341  0.1172 -0.1318
 5497TIP3   OH237905   4.698   1.250  14.299  0.1699 -0.4978  0.2578
 5497TIP3    H137906   4.788   1.251  14.267 -0.0433 -2.1169 -0.4723
 5497TIP3    H237907   4.645   1.276  14.223  0.0291  0.9764  0.8261
 5498TIP3   OH237908   0.622   1.855   4.476  0.2903 -0.0886 -0.2195
 5498TIP3    H137909   0.625   1.791   4.547  1.3749  0.7684  0.5419
 5498TIP3    H237910   0.560   1.922   4.507 -0.4670 -0.4958 -0.8030
 5499TIP3   OH237911   1.045   3.403  15.009 -0.0062  0.0096 -0.5792
 5499TIP3    H137912   0.972   3.393  14.948 -0.6031 -1.9407  0.3743
 5499TIP3    H237913   1.006   3.441  15.087 -0.1126 -1.2776  0.0276
 5500TIP3   OH237914   6.387   5.146  11.012  0.3150  0.0205 -0.1270
 5500TIP3    H137915   6.345   5.065  11.039  1.0848 -0.2653  0.2501
 5500TIP3    H237916   6.473   5.143  11.053 -0.6053  2.3145  2.2195
 5501TIP3   OH237917   1.590   3.186  16.339  0.4461  0.1164 -0.0789
 5501TIP3    H137918   1.543   3.174  16.257 -0.0994  1.1928  0.0599
 5501TIP3    H237919   1.604   3.097  16.372 -3.3477 -0.2855  0.8962
 5502TIP3   OH237920   1.297   4.270   1.136 -0.1627  0.2745  0.0640
 5502TIP3    H137921   1.278   4.191   1.084  0.6106  0.7536 -0.9878
 5502TIP3    H237922   1.388   4.258   1.164 -0.4604  0.1939  1.0267
 5503TIP3   OH237923   3.889   5.919  12.917 -0.3822 -0.0105  0.2297
 5503TIP3    H137924   3.946   5.989  12.887 -1.8195  1.1707  0.1175
 5503TIP3    H237925   3.932   5.883  12.994  0.6370  0.6465 -0.0250
 5504TIP3   OH237926   1.192   2.702  16.114 -0.0803 -0.0886 -0.0117
 5504TIP3    H137927   1.126   2.698  16.046  0.8320  2.3096 -1.1474
 5504TIP3    H237928   1.143   2.699  16.196 -1.5672  1.0608 -0.8196
 5505TIP3   OH237929   3.027   4.150   2.605 -0.0287 -0.3176 -0.7950
 5505TIP3    H137930   3.117   4.118   2.602 -0.0067 -0.4479  0.6892
 5505TIP3    H237931   3.035   4.245   2.596  0.2409 -0.3349 -0.7468
 5506TIP3   OH237932   5.937   6.030   0.059 -0.0831 -0.0454  0.1224
 5506TIP3    H137933   5.957   5.942   0.028 -0.0546  0.6983 -2.1857
 5506TIP3    H237934   6.018   6.060   0.100  0.7189 -0.2512 -1.2505
 5507TIP3   OH237935   6.631   3.502  11.895 -0.5536  0.3583  0.2456
 5507TIP3    H137936   6.576   3.490  11.972 -1.6284  0.7367 -0.4479
 5507TIP3    H237937   6.575   3.480  11.821  0.1938  0.8628 -0.4880
 5508TIP3   OH237938   2.718   2.072  15.389  0.0872 -0.3311  0.0082
 5508TIP3    H137939   2.730   2.065  15.294  0.3516 -1.8574  0.1271
 5508TIP3    H237940   2.764   2.153  15.412  0.3962 -0.1600 -1.1024
 5509TIP3   OH237941   3.143   1.903  17.076  0.4197 -0.0056  0.3832
 5509TIP3    H137942   3.095   1.907  16.993  1.0070  1.7577  0.0749
 5509TIP3    H237943   3.230   1.936  17.054  0.4754  0.8495  1.7600
 5510TIP3   OH237944   1.143   5.854  12.685  0.0189 -0.4609 -1.1289
 5510TIP3    H137945   1.059   5.829  12.647 -1.1156 -0.2774  1.0486
 5510TIP3    H237946   1.174   5.927  12.631 -1.9224  0.3689 -1.1960
 5511TIP3   OH237947   2.843   5.075  15.485 -0.2825 -0.1697  0.4476
 5511TIP3    H137948   2.856   5.062  15.391 -0.6548  1.0093  0.2105
 5511TIP3    H237949   2.903   5.013  15.527  2.8054  1.8990 -0.5923
 5512TIP3   OH237950   2.665   5.133   3.124 -0.2027 -0.7516 -0.2651
 5512TIP3    H137951   2.577   5.170   3.120  0.3769  0.5965 -1.1741
 5512TIP3    H237952   2.675   5.107   3.216 -0.6390  1.4160  0.4630
 5513TIP3   OH237953   2.024   3.708   3.961 -0.1197 -0.4103 -0.5946
 5513TIP3    H137954   2.016   3.613   3.949  1.9173 -0.5256 -1.4124
 5513TIP3    H237955   2.097   3.718   4.023 -0.5880  0.6249 -0.1874
 5514TIP3   OH237956   0.196   1.510   5.304  0.5879  0.4075 -0.6847
 5514TIP3    H137957   0.234   1.597   5.297 -1.1708  1.1691 -1.2757
 5514TIP3    H237958   0.169   1.488   5.215 -1.6556  0.5415 -0.0828
 5515TIP3   OH237959   5.033   1.204   2.807  0.2126 -0.1571  0.3497
 5515TIP3    H137960   5.009   1.265   2.877 -0.9629  1.0587 -1.0545
 5515TIP3    H237961   5.117   1.236   2.774  0.4277 -0.3215  0.7297
 5516TIP3   OH237962   3.469   5.123  14.162  0.9711 -0.3619 -1.0014
 5516TIP3    H137963   3.386   5.114  14.116  0.9289  0.5488 -1.1168
 5516TIP3    H237964   3.466   5.055  14.230 -0.1172  0.0208 -0.6427
 5517TIP3   OH237965   1.672   6.449   5.022 -0.4427 -0.2181  0.6693
 5517TIP3    H137966   1.644   6.462   4.932 -0.9997 -1.4195  0.6462
 5517TIP3    H237967   1.738   6.379   5.017  2.8088  2.5809  0.7048
 5518TIP3   OH237968   0.062   4.482  17.228  0.0001  0.3093 -0.4261
 5518TIP3    H137969  -0.013   4.482  17.169  0.8512  0.7169 -1.5622
 5518TIP3    H237970   0.051   4.561  17.281  0.4372  1.2796 -1.7158
 5519TIP3   OH237971   1.076   1.558   2.648 -0.2773 -0.8177 -0.0679
 5519TIP3    H137972   1.013   1.571   2.718 -0.1946  2.0919 -0.3818
 5519TIP3    H237973   1.025   1.526   2.574 -0.8735 -1.1666  0.4942
 5520TIP3   OH237974   6.376   4.413  15.046  0.5379  0.2014 -0.6431
 5520TIP3    H137975   6.351   4.371  14.964  1.0810 -1.0320 -0.2087
 5520TIP3    H237976   6.344   4.503  15.039 -0.1220 -0.1180 -1.8660
 5521TIP3   OH237977   2.632   6.206   4.134  0.7026 -0.6951 -0.3880
 5521TIP3    H137978   2.711   6.155   4.119  1.1145 -0.4018  0.6951
 5521TIP3    H237979   2.663   6.289   4.169 -0.1296 -1.2145  1.7463
 5522TIP3   OH237980   1.193   2.179   2.150 -0.2870  0.4612 -0.3283
 5522TIP3    H137981   1.099   2.193   2.139 -0.1552  0.2491 -2.0831
 5522TIP3    H237982   1.217   2.121   2.078  1.1690  0.3697  0.1933
 5523TIP3   OH237983   2.778   3.713  11.074 -0.6290  0.0271 -0.3274
 5523TIP3    H137984   2.846   3.765  11.117  1.4221 -1.2360 -1.8163
 5523TIP3    H237985   2.778   3.744  10.983 -0.1257 -1.7408 -0.9716
 5524TIP3   OH237986   5.009   3.710   1.905 -0.1170 -0.3757  0.4028
 5524TIP3    H137987   4.962   3.658   1.970 -1.5359  0.8598  0.4229
 5524TIP3    H237988   5.073   3.760   1.955 -0.0156 -0.7127  0.6115
 5525TIP3   OH237989   4.042   1.727  16.887  0.1141  0.4434 -0.3005
 5525TIP3    H137990   4.063   1.634  16.897  0.6823  0.4874 -1.0247
 5525TIP3    H237991   3.965   1.728  16.831 -0.6872  0.3709  0.7537
 5526TIP3   OH237992   6.120   4.243   1.892 -0.1926  0.0818  0.3121
 5526TIP3    H137993   6.183   4.200   1.949 -2.0741 -1.7712  1.1392
 5526TIP3    H237994   6.050   4.179   1.881 -3.9347  3.2697  2.7213
 5527TIP3   OH237995   1.338   6.503   4.002 -0.2726  0.2963  0.0380
 5527TIP3    H137996   1.302   6.575   3.951 -0.8460 -0.3124 -0.4456
 5527TIP3    H237997   1.276   6.431   3.988 -1.0354  0.3913  2.4159
 5528TIP3   OH237998   2.380   4.225   2.907  0.1628  0.1670 -0.0440
 5528TIP3    H137999   2.316   4.204   2.975 -0.1526  0.9658 -0.0795
 5528TIP3    H238000   2.407   4.314   2.927  1.3615 -0.1994  0.0355
 5529TIP3   OH238001   5.656   5.118   7.183 -0.2274 -0.4231 -0.3823
 5529TIP3    H138002   5.659   5.035   7.229 -2.8473  0.2107  1.1320
 5529TIP3    H238003   5.744   5.155   7.193  0.4898 -2.2445  0.3329
 5530TIP3   OH238004   1.501   0.104   4.036 -0.7629  0.2175  0.1705
 5530TIP3    H138005   1.549   0.185   4.056 -2.4841  0.7673  2.4257
 5530TIP3    H238006   1.565   0.034   4.052 -0.3334  0.9818  2.0502
 5531TIP3   OH238007   2.072   2.434  16.182 -0.4965 -0.5415  0.0257
 5531TIP3    H138008   2.002   2.379  16.148 -0.3971 -1.4355  1.1885
 5531TIP3    H238009   2.086   2.500  16.114 -1.4684 -1.2058 -0.8556
 5532TIP3   OH238010   4.374   2.875   2.370  0.0178 -0.1228  0.1145
 5532TIP3    H138011   4.438   2.807   2.390  3.4812  2.7706 -0.0903
 5532TIP3    H238012   4.421   2.936   2.312 -3.1611  1.9727 -0.5156
 5533TIP3   OH238013   5.970   6.660   5.069 -0.1090  1.0122  0.1939
 5533TIP3    H138014   5.908   6.732   5.084  0.3005  1.4371 -0.1385
 5533TIP3    H238015   5.945   6.625   4.983  0.9201  2.0269 -0.5491
 5534TIP3   OH238016   3.127   4.611  12.592 -0.4197  0.3363  0.2919
 5534TIP3    H138017   3.094   4.685  12.542  0.3217  1.9566  2.0880
 5534TIP3    H238018   3.066   4.601  12.664 -0.4196 -0.7236  0.1706
 5535TIP3   OH238019   1.098   4.575   5.132  0.4821 -0.3334  0.2573
 5535TIP3    H138020   1.039   4.520   5.081 -0.2754  1.9218 -1.4753
 5535TIP3    H238021   1.152   4.619   5.066  1.2836  0.7453  1.5776
 5536TIP3   OH238022   1.024   2.789   4.591 -0.2818 -0.1986 -0.8784
 5536TIP3    H138023   1.095   2.731   4.620  0.0563 -0.1883 -1.6523
 5536TIP3    H238024   0.987   2.824   4.672  0.2871 -0.5748 -0.4456
 5537TIP3   OH238025   0.089   4.616   0.560  0.9898 -0.3697 -0.0218
 5537TIP3    H138026   0.084   4.603   0.655 -2.6729 -0.2130 -0.0600
 5537TIP3    H238027   0.056   4.704   0.546  0.2379 -0.8570 -1.5107
 5538TIP3   OH238028   3.789   1.443   1.836 -0.5523  0.1118 -0.1435
 5538TIP3    H138029   3.765   1.382   1.907 -1.5068 -2.4924 -2.4966
 5538TIP3    H238030   3.711   1.498   1.825 -1.1960 -0.8220 -0.4305
 5539TIP3   OH238031   2.830   0.543  14.224  0.5274 -0.3007 -0.1623
 5539TIP3    H138032   2.784   0.460  14.237  2.3291 -1.3805 -0.2403
 5539TIP3    H238033   2.838   0.551  14.129 -1.3567  1.0162 -0.2614
 5540TIP3   OH238034   6.056   6.229  14.125  0.1954 -0.5390 -0.2508
 5540TIP3    H138035   5.999   6.243  14.049  0.5073 -0.6524 -0.5108
 5540TIP3    H238036   6.127   6.291  14.113 -0.0509 -0.1593  0.2559
 5541TIP3   OH238037   5.588   0.439  15.371 -0.5541  0.3866  0.5376
 5541TIP3    H138038   5.673   0.435  15.327 -1.5362  1.9737 -1.7123
 5541TIP3    H238039   5.577   0.532  15.393 -1.1456 -0.0120  2.0581
 5542TIP3   OH238040   3.704   0.744   5.468  0.3468 -0.3253  0.2248
 5542TIP3    H138041   3.743   0.697   5.395  0.1266  2.7750 -2.1034
 5542TIP3    H238042   3.772   0.744   5.536  0.9988 -2.2815 -0.3536
 5543TIP3   OH238043   2.123   4.853  12.367 -0.7586  0.0691  0.2800
 5543TIP3    H138044   2.174   4.858  12.449  0.9076  2.2274 -0.7834
 5543TIP3    H238045   2.032   4.860  12.395 -0.4573 -1.9261  2.1004
 5544TIP3   OH238046   4.046   5.704   0.596 -0.3339 -0.6196 -0.1052
 5544TIP3    H138047   3.992   5.733   0.670  1.1372  1.5046  0.2256
 5544TIP3    H238048   4.037   5.774   0.531  0.8521 -0.9340 -0.6399
 5545TIP3   OH238049   3.337   5.329  14.353 -0.4165  0.6721 -0.1856
 5545TIP3    H138050   3.372   5.254  14.305  1.2319  1.4638 -0.2921
 5545TIP3    H238051   3.372   5.405  14.307 -2.2021  1.5459 -0.1884
 5546TIP3   OH238052   0.830   0.331   2.742 -0.5080  0.8392 -0.0241
 5546TIP3    H138053   0.906   0.374   2.779  0.0133  1.3340 -1.5668
 5546TIP3    H238054   0.853   0.318   2.650 -1.1052 -1.6984  0.1181
 5547TIP3   OH238055   6.725   2.755  15.442 -0.0918  0.0596 -0.2956
 5547TIP3    H138056   6.727   2.672  15.490  1.1786  1.9100  3.2345
 5547TIP3    H238057   6.812   2.763  15.403 -0.1108 -0.1211 -0.3755
 5548TIP3   OH238058   5.662   0.350  15.862 -0.6064 -1.0114 -0.4022
 5548TIP3    H138059   5.753   0.330  15.882 -0.8651 -0.1750  1.9003
 5548TIP3    H238060   5.613   0.277  15.901 -1.1037  0.3693  1.6796
 5549TIP3   OH238061   2.136   4.362  15.883 -0.1092  0.4774 -0.3316
 5549TIP3    H138062   2.051   4.356  15.840 -0.2043 -0.9096 -0.0082
 5549TIP3    H238063   2.145   4.454  15.907 -1.8969  0.5061  0.3883
 5550TIP3   OH238064   2.264   6.708   3.808  0.0487 -0.2920  0.0007
 5550TIP3    H138065   2.202   6.636   3.809  1.2865 -1.4858 -1.9136
 5550TIP3    H238066   2.252   6.749   3.722  1.5197 -0.2579 -0.2283
 5551TIP3   OH238067   0.915   6.497  11.047 -0.3399  0.1964 -0.0847
 5551TIP3    H138068   0.918   6.409  11.011 -2.1325 -0.5312  1.3551
 5551TIP3    H238069   0.959   6.490  11.132 -0.0972  0.8003 -0.1529
 5552TIP3   OH238070   5.938   6.136  12.376  0.0050 -0.0708  0.0214
 5552TIP3    H138071   5.928   6.122  12.282 -0.3544  1.2081 -0.1496
 5552TIP3    H238072   6.026   6.103  12.396  0.2880  0.1331 -0.8595
 5553TIP3   OH238073   2.071   0.804  11.523  0.4255  0.0300  0.0645
 5553TIP3    H138074   2.006   0.733  11.524  0.7263 -0.2455  0.0083
 5553TIP3    H238075   2.050   0.855  11.601 -0.1326  0.1907 -0.1849
 5554TIP3   OH238076   4.023   5.469   1.107  0.3297  0.2210 -0.2641
 5554TIP3    H138077   4.090   5.412   1.070 -0.3654 -0.4930 -0.4535
 5554TIP3    H238078   4.014   5.440   1.198  2.1960  2.1177  0.6260
 5555TIP3   OH238079   0.906   5.846  16.509 -0.1082 -0.1526  0.3572
 5555TIP3    H138080   0.921   5.753  16.527 -1.3685 -0.4485 -0.0101
 5555TIP3    H238081   0.842   5.846  16.438 -2.1877  0.9874  2.1159
 5556TIP3   OH238082   6.118   0.382   4.030  0.1906  0.2854  0.8234
 5556TIP3    H138083   6.089   0.338   4.109  1.2521  0.8386  1.5470
 5556TIP3    H238084   6.165   0.314   3.980  0.0156  0.0803  0.9388
 5557TIP3   OH238085   2.987   2.860  12.303 -0.4158  0.2806 -0.6413
 5557TIP3    H138086   3.055   2.847  12.237 -0.3302  1.2870 -0.7705
 5557TIP3    H238087   2.993   2.783  12.359  0.8900  0.3836 -0.6015
 5558TIP3   OH238088   3.250   0.461   2.630 -0.8093  0.3175 -0.6844
 5558TIP3    H138089   3.265   0.546   2.673 -2.6309  0.7919 -0.9266
 5558TIP3    H238090   3.224   0.483   2.541 -0.7273 -0.5343 -0.9264
 5559TIP3   OH238091   3.236   3.660   5.198  0.1877 -0.6366 -0.6869
 5559TIP3    H138092   3.189   3.681   5.118 -0.5185 -1.4791 -0.4943
 5559TIP3    H238093   3.199   3.720   5.263 -0.2648 -0.9531 -0.6517
 5560TIP3   OH238094   6.278   1.239   0.885  0.1480  0.3167 -0.1182
 5560TIP3    H138095   6.283   1.152   0.847 -3.2553  0.7914 -2.0194
 5560TIP3    H238096   6.313   1.297   0.817 -1.4003  0.7417 -0.5888
 5561TIP3   OH238097   0.222   6.072  12.579  0.4159 -0.1038  0.6366
 5561TIP3    H138098   0.256   6.147  12.530 -1.3416 -0.2462 -0.9106
 5561TIP3    H238099   0.294   6.048  12.638  1.5066  1.9570  0.2566
 5562TIP3   OH238100   2.752   0.587  12.404 -0.1028 -0.1780  0.0286
 5562TIP3    H138101   2.690   0.574  12.476 -0.1692 -2.7357 -0.4177
 5562TIP3    H238102   2.837   0.565  12.441  0.0524 -0.1330 -0.2953
 5563TIP3   OH238103   2.238   1.465   1.384 -0.1525 -0.0555  0.2380
 5563TIP3    H138104   2.164   1.484   1.441  0.2157  0.5519  0.5338
 5563TIP3    H238105   2.261   1.550   1.346 -0.5467 -0.4943 -1.0182
 5564TIP3   OH238106   1.226   0.415   5.516  0.3740 -1.1814 -0.0765
 5564TIP3    H138107   1.178   0.348   5.468 -1.3952  0.7005 -1.1053
 5564TIP3    H238108   1.191   0.498   5.483  2.1277  0.2606  1.4555
 5565TIP3   OH238109   3.642   4.851   0.754 -0.3873 -0.1874  0.1466
 5565TIP3    H138110   3.723   4.823   0.712 -1.1989 -1.2774 -0.8001
 5565TIP3    H238111   3.617   4.777   0.809 -0.0899  0.6617  1.4692
 5566TIP3   OH238112   3.782   4.196  11.839 -0.2999  0.2766  0.3177
 5566TIP3    H138113   3.798   4.226  11.929  0.7661  0.5913  0.0329
 5566TIP3    H238114   3.694   4.230  11.819 -0.8411 -0.3742  1.4666
 5567TIP3   OH238115   0.019   3.411  14.261  0.1026  0.5641 -0.4741
 5567TIP3    H138116   0.076   3.476  14.303 -1.1022  1.1280  0.3367
 5567TIP3    H238117   0.052   3.327  14.294  0.8174  0.8389 -0.4597
 5568TIP3   OH238118   4.222   3.706  14.744  0.0517  0.2298  0.4218
 5568TIP3    H138119   4.147   3.657  14.778 -2.6620  2.4216 -1.8117
 5568TIP3    H238120   4.220   3.788  14.794 -0.1536  0.9810 -0.7880
 5569TIP3   OH238121   3.439   1.283  15.819 -0.6326 -0.8300 -0.2788
 5569TIP3    H138122   3.365   1.297  15.878 -0.1917  0.0625  0.0843
 5569TIP3    H238123   3.398   1.269  15.733 -1.2254  0.2212 -0.1935
 5570TIP3   OH238124   2.811   4.863   2.070 -0.2272  0.2150  0.4418
 5570TIP3    H138125   2.895   4.907   2.084 -0.3340  1.5170 -2.2639
 5570TIP3    H238126   2.809   4.793   2.135  1.2461  2.4219  3.0620
 5571TIP3   OH238127   1.701   1.913   6.224  0.1277 -0.0603 -0.0834
 5571TIP3    H138128   1.794   1.923   6.203  0.7131 -0.5874  2.0352
 5571TIP3    H238129   1.676   1.996   6.264  0.0328 -0.3902  0.5464
 5572TIP3   OH238130   0.941   4.248   5.800  0.6078 -0.3517 -0.1897
 5572TIP3    H138131   1.036   4.244   5.814  0.7789  0.3063 -1.0795
 5572TIP3    H238132   0.917   4.337   5.825  0.5281  0.0604 -1.6594
 5573TIP3   OH238133   3.651   0.412   2.459 -0.0770  0.2486  0.2315
 5573TIP3    H138134   3.599   0.367   2.393  0.2441  0.5218 -0.2094
 5573TIP3    H238135   3.611   0.387   2.542  0.5160 -1.4180  0.0454
 5574TIP3   OH238136   0.634   2.062   0.907 -0.5202  0.1182 -0.5546
 5574TIP3    H138137   0.687   2.001   0.956 -1.7800 -1.3027 -0.8815
 5574TIP3    H238138   0.647   2.146   0.950  2.0433 -0.1414 -0.7210
 5575TIP3   OH238139   4.562   4.170  14.967  0.1722  0.4998 -0.2562
 5575TIP3    H138140   4.655   4.168  14.990  0.0605  2.4053  0.5385
 5575TIP3    H238141   4.543   4.082  14.935  2.8474  0.7335 -2.8685
 5576TIP3   OH238142   6.388   2.022  13.665 -0.3038 -0.0498  0.5968
 5576TIP3    H138143   6.431   1.956  13.611 -0.5632 -0.2568  0.6462
 5576TIP3    H238144   6.297   1.994  13.672 -0.6686  0.8690 -0.2654
 5577TIP3   OH238145   5.434   0.067   1.063 -0.0229 -0.4542 -0.2365
 5577TIP3    H138146   5.436   0.084   1.157  0.3481 -0.5293 -0.2308
 5577TIP3    H238147   5.512   0.015   1.046 -0.6314 -1.3457 -0.4113
 5578TIP3   OH238148   0.531   2.886  11.143  0.0886  0.2477  0.2367
 5578TIP3    H138149   0.598   2.882  11.074 -0.0779 -1.5796  0.1433
 5578TIP3    H238150   0.452   2.914  11.098  0.1980 -0.0507 -0.1457
 5579TIP3   OH238151   4.195   0.872   3.623  0.1218  0.2425 -0.3873
 5579TIP3    H138152   4.268   0.825   3.582  0.9512 -0.8160  2.1113
 5579TIP3    H238153   4.167   0.815   3.695 -0.8943  2.1816  0.8480
 5580TIP3   OH238154   2.763   5.605  15.008 -0.3199  0.0041  0.1722
 5580TIP3    H138155   2.820   5.542  14.965  1.2815  2.6083 -1.8294
 5580TIP3    H238156   2.711   5.643  14.937 -0.5257  1.5920  1.1278
 5581TIP3   OH238157   4.796   0.481   4.402 -0.0238 -0.3685 -0.5394
 5581TIP3    H138158   4.714   0.434   4.390 -0.1851 -0.5478  0.9976
 5581TIP3    H238159   4.813   0.476   4.497  0.3465  2.0081 -0.4197
 5582TIP3   OH238160   6.553   4.456  11.189  0.2222 -0.1077 -0.5855
 5582TIP3    H138161   6.576   4.519  11.120  1.8572 -0.0453 -0.0314
 5582TIP3    H238162   6.493   4.503  11.246  0.2960  0.4642 -0.9741
 5583TIP3   OH238163   5.845   2.305   5.203  0.0885  0.1029  0.7128
 5583TIP3    H138164   5.860   2.244   5.132  1.4834  1.0995  0.0909
 5583TIP3    H238165   5.757   2.285   5.235  0.9340 -3.0837  1.4298
 5584TIP3   OH238166   2.032   1.732  11.542  0.0996 -0.0302  0.0426
 5584TIP3    H138167   1.996   1.770  11.622  0.1906 -0.7963  0.4603
 5584TIP3    H238168   2.126   1.723  11.559  0.0540 -0.5894  0.0185
 5585TIP3   OH238169   5.072   4.043   3.506  0.2710  0.0769  0.0245
 5585TIP3    H138170   5.004   4.102   3.539  1.5193  1.1253  0.8323
 5585TIP3    H238171   5.078   4.062   3.412  1.0146  1.6673  0.3624
 5586TIP3   OH238172   1.738   3.046  14.666 -0.5946  1.0175  0.4943
 5586TIP3    H138173   1.654   3.051  14.712 -1.3971  0.8551 -0.8744
 5586TIP3    H238174   1.756   3.137  14.640 -1.1037  0.8617 -0.4574
 5587TIP3   OH238175   2.845   4.151   5.902  0.1758  0.3684 -0.5069
 5587TIP3    H138176   2.798   4.222   5.945 -1.4845 -1.4492  0.8896
 5587TIP3    H238177   2.886   4.192   5.826  0.2851  3.0229  0.8538
 5588TIP3   OH238178   6.410   1.589  16.527 -0.2846 -0.6619  0.2692
 5588TIP3    H138179   6.386   1.559  16.614  1.4483  1.1225  1.4412
 5588TIP3    H238180   6.326   1.610  16.485 -1.1215 -1.1258  1.6575
 5589TIP3   OH238181   5.664   0.682  13.182  0.2257 -0.1722  0.1055
 5589TIP3    H138182   5.742   0.641  13.221 -0.2592 -0.8272  0.3995
 5589TIP3    H238183   5.632   0.742  13.250  0.3029 -0.1163  0.0935
 5590TIP3   OH238184   5.158   2.306   3.817 -0.1778  0.2040 -0.2059
 5590TIP3    H138185   5.142   2.227   3.868 -0.2575  0.1387 -0.3339
 5590TIP3    H238186   5.103   2.297   3.739  2.1114 -1.0856 -1.7969
 5591TIP3   OH238187   0.378   1.397  11.790  0.0394 -0.0325 -0.5346
 5591TIP3    H138188   0.320   1.374  11.862 -0.0588  1.8795  0.0411
 5591TIP3    H238189   0.319   1.433  11.723  0.2939 -0.4771 -1.0070
 5592TIP3   OH238190   4.676   6.552   1.985  0.0039  0.2633 -0.7513
 5592TIP3    H138191   4.764   6.583   1.963  1.8203 -1.5144  3.1547
 5592TIP3    H238192   4.633   6.627   2.026 -0.0855  0.9202 -2.0030
 5593TIP3   OH238193   0.920   1.861   1.379  0.3884 -0.2317  0.2781
 5593TIP3    H138194   0.922   1.956   1.365 -0.6070 -0.0763  1.0964
 5593TIP3    H238195   0.827   1.841   1.392  0.6304 -1.2708  0.4597
 5594TIP3   OH238196   0.708   1.577   4.646 -0.6530  0.1628 -0.1792
 5594TIP3    H138197   0.794   1.548   4.678 -0.3350 -0.7885 -1.7856
 5594TIP3    H238198   0.708   1.553   4.554 -2.2098  1.2237 -0.4815
 5595TIP3   OH238199   5.035   6.350   0.753 -0.1356 -0.2450 -0.4627
 5595TIP3    H138200   5.053   6.435   0.794 -0.0661 -1.0805  1.3384
 5595TIP3    H238201   4.952   6.322   0.792 -0.0121 -1.1344 -0.8241
 5596TIP3   OH238202   6.475   2.628   4.871 -0.1217  0.4514 -0.0760
 5596TIP3    H138203   6.555   2.625   4.924  0.9222  0.8457 -1.5533
 5596TIP3    H238204   6.415   2.682   4.922  1.2491  1.7713  0.2175
 5597TIP3   OH238205   5.688   4.286   0.024 -0.3107 -0.3953  0.1062
 5597TIP3    H138206   5.707   4.193   0.039 -1.5192 -0.2670  2.9160
 5597TIP3    H238207   5.593   4.292   0.024 -0.2529  1.0343  1.4902
 5598TIP3   OH238208   4.194   6.110  16.179 -0.0750 -0.2397 -0.2779
 5598TIP3    H138209   4.125   6.102  16.244 -0.4664  0.2851 -0.6183
 5598TIP3    H238210   4.178   6.195  16.137  0.3661 -0.4208 -0.8312
 5599TIP3   OH238211   2.230   6.435  15.821 -0.0572  0.7969 -0.0086
 5599TIP3    H138212   2.266   6.353  15.855 -1.0605 -0.1624 -1.1851
 5599TIP3    H238213   2.286   6.503  15.859  0.7348 -0.4100  1.0703
 5600TIP3   OH238214   0.081   3.199   3.076  0.6684 -0.0774  0.1333
 5600TIP3    H138215   0.077   3.119   3.129  1.6826  0.8488  1.6928
 5600TIP3    H238216   0.074   3.270   3.140 -0.2007  1.1096 -1.2170
 5601TIP3   OH238217   4.350   0.755  12.625  0.3714  0.5152  0.0319
 5601TIP3    H138218   4.420   0.739  12.562 -0.8975  0.0988 -1.3231
 5601TIP3    H238219   4.388   0.815  12.689  2.5801 -1.2313  0.4653
 5602TIP3   OH238220   5.839   5.922   3.283 -0.1104  0.0857 -0.3006
 5602TIP3    H138221   5.908   5.873   3.239  0.9445 -0.5722  1.9724
 5602TIP3    H238222   5.885   5.991   3.331 -1.1654  0.4356  0.2358
 5603TIP3   OH238223   0.492   5.519  14.410 -0.9282 -0.1344  0.1684
 5603TIP3    H138224   0.449   5.436  14.431 -2.2188  0.3637 -0.4219
 5603TIP3    H238225   0.448   5.584  14.465  0.3688  0.1292  0.9565
 5604TIP3   OH238226   0.070   1.407   5.816 -0.7199  0.1311 -0.1435
 5604TIP3    H138227   0.100   1.459   5.890  0.2119  1.0895 -1.1663
 5604TIP3    H238228   0.097   1.317   5.837 -0.3697  0.4106  0.6104
 5605TIP3   OH238229   5.406   4.069   5.948  0.5986  0.3244 -0.0571
 5605TIP3    H138230   5.401   4.029   5.861 -0.6286 -0.5227  0.3559
 5605TIP3    H238231   5.362   4.005   6.005  0.3783  1.3706  0.9828
 5606TIP3   OH238232   0.664   2.049  12.985  0.1368  0.2642  0.0719
 5606TIP3    H138233   0.742   2.008  12.947 -0.6925  0.7821 -2.3344
 5606TIP3    H238234   0.683   2.142  12.984 -0.5723  0.4100 -0.7395
 5607TIP3   OH238235   2.708   4.463  13.349 -0.2272  0.2562  0.1067
 5607TIP3    H138236   2.640   4.505  13.296 -0.2216 -1.8876 -1.7428
 5607TIP3    H238237   2.660   4.402  13.405 -0.0149  0.6287  0.6992
 5608TIP3   OH238238   4.609   1.812  16.500 -0.2879 -0.5965 -0.2919
 5608TIP3    H138239   4.523   1.784  16.466 -1.1475  0.9583  0.4803
 5608TIP3    H238240   4.588   1.860  16.581  1.3941 -0.8926  0.3608
 5609TIP3   OH238241   3.614   5.725   1.924 -0.0513  0.7869  0.1716
 5609TIP3    H138242   3.703   5.742   1.895  0.1722 -0.8194 -0.1625
 5609TIP3    H238243   3.569   5.692   1.846 -0.8414  1.2078  0.4348
 5610TIP3   OH238244   1.969   0.539   3.563 -0.1888 -0.0579 -0.5467
 5610TIP3    H138245   2.018   0.532   3.645 -1.2111 -2.1257 -0.0263
 5610TIP3    H238246   2.028   0.502   3.497 -0.0107  0.0161 -0.4305
 5611TIP3   OH238247   1.011   0.042  15.904 -0.0256  0.3334 -0.5939
 5611TIP3    H138248   1.028   0.109  15.837 -1.3491  1.5160  0.1985
 5611TIP3    H238249   1.077  -0.025  15.887  0.7347  1.3706 -2.0373
 5612TIP3   OH238250   6.322   5.128  16.831 -0.4938  0.5782 -0.1867
 5612TIP3    H138251   6.263   5.202  16.842  0.0044  0.8402  0.9104
 5612TIP3    H238252   6.398   5.150  16.885  0.3890  0.0126 -1.1494
 5613TIP3   OH238253   0.719   3.018  15.316  0.4187  0.6568 -0.6260
 5613TIP3    H138254   0.667   2.944  15.284  0.1077  0.2971  0.6493
 5613TIP3    H238255   0.656   3.072  15.364  0.9895  0.8069 -0.0343
 5614TIP3   OH238256   3.459   6.108  13.061  0.2759 -0.0222 -0.3329
 5614TIP3    H138257   3.412   6.054  13.125  1.1691 -1.0759 -0.5343
 5614TIP3    H238258   3.547   6.117  13.098  0.2932  0.8275 -0.5778
 5615TIP3   OH238259   0.383   6.667  13.601  0.0959 -0.2966  0.4401
 5615TIP3    H138260   0.376   6.760  13.622 -1.3076 -0.2406 -0.1395
 5615TIP3    H238261   0.318   6.653  13.532  0.3025 -1.7016  0.4900
 5616TIP3   OH238262   5.826   5.442   1.066 -0.2089  0.1025  0.0797
 5616TIP3    H138263   5.915   5.414   1.087  0.6170  0.8368 -2.0676
 5616TIP3    H238264   5.795   5.379   1.001 -1.5610 -0.5315  1.2793
 5617TIP3   OH238265   0.159   3.603   5.226 -0.1595 -0.6926 -0.1460
 5617TIP3    H138266   0.131   3.604   5.317  0.2294  1.6174  0.0051
 5617TIP3    H238267   0.100   3.541   5.183 -0.8809 -1.1806  1.5023
 5618TIP3   OH238268   4.179   4.591  10.804  0.0453 -0.1936  0.1796
 5618TIP3    H138269   4.141   4.596  10.716  1.6918 -0.0218 -0.5713
 5618TIP3    H238270   4.245   4.660  10.805  0.3977 -0.5248  1.3849
 5619TIP3   OH238271   4.523   0.287  16.380 -0.5701 -0.3639  0.0876
 5619TIP3    H138272   4.487   0.269  16.293  0.4408 -0.1102 -0.4072
 5619TIP3    H238273   4.463   0.245  16.441 -1.6606  0.0223 -0.7001
 5620TIP3   OH238274   3.617   5.870  15.850 -0.1076 -0.0608 -0.8233
 5620TIP3    H138275   3.539   5.855  15.904  0.8007  0.3402  0.6663
 5620TIP3    H238276   3.686   5.892  15.913  0.8152  1.2562 -2.2180
 5621TIP3   OH238277   3.471   3.587   5.391 -0.8797 -0.3466  0.1336
 5621TIP3    H138278   3.413   3.572   5.316 -0.9236  0.3341  0.0238
 5621TIP3    H238279   3.532   3.513   5.389 -0.7593 -0.2409 -0.6871
 5622TIP3   OH238280   2.906   2.555  15.506 -0.2788 -0.2050  0.6797
 5622TIP3    H138281   2.857   2.637  15.493  1.2292  0.5381 -0.6682
 5622TIP3    H238282   2.997   2.578  15.485 -0.0024 -2.5502 -0.9957
 5623TIP3   OH238283   4.826   1.615  12.711  0.6327  0.1824 -0.1631
 5623TIP3    H138284   4.815   1.524  12.685 -0.2316  0.8769 -2.4570
 5623TIP3    H238285   4.921   1.629  12.709  0.8465 -0.9141  1.2601
 5624TIP3   OH238286   4.746   3.579   5.410  0.2594  0.1387  0.3212
 5624TIP3    H138287   4.725   3.547   5.322  1.4080 -0.0227  0.0966
 5624TIP3    H238288   4.687   3.653   5.422  0.9903  1.0068 -1.1317
 5625TIP3   OH238289   1.457   3.808   0.745 -0.2301  0.5240  0.1027
 5625TIP3    H138290   1.471   3.890   0.698 -0.5743  1.0839  0.9427
 5625TIP3    H238291   1.430   3.746   0.678 -0.0526  1.1227 -0.5330
 5626TIP3   OH238292   6.761   0.806   4.663 -0.3116  0.4005 -0.1032
 5626TIP3    H138293   6.714   0.854   4.732 -0.3084 -1.1737  1.0523
 5626TIP3    H238294   6.700   0.736   4.637  0.5719 -0.4041 -0.0615
 5627TIP3   OH238295   3.896   5.962   3.948 -0.1941 -0.3672 -0.1575
 5627TIP3    H138296   3.859   5.883   3.988 -0.2609 -0.1335  0.2557
 5627TIP3    H238297   3.985   5.966   3.983  0.5624 -1.4171 -1.8445
 5628TIP3   OH238298   0.307   2.417  12.711  0.3300  0.8286  0.5768
 5628TIP3    H138299   0.371   2.378  12.770 -0.3244  0.2086  0.8968
 5628TIP3    H238300   0.224   2.414  12.760 -0.3073 -0.0769 -0.5162
 5629TIP3   OH238301   1.362   5.168  13.261 -0.1416 -0.2309 -0.0201
 5629TIP3    H138302   1.387   5.151  13.352 -1.5953 -1.5685  0.1823
 5629TIP3    H238303   1.296   5.238  13.267 -1.0471 -1.0635  0.1066
 5630TIP3   OH238304   4.831   3.820   3.611 -0.8104 -0.2783 -0.5917
 5630TIP3    H138305   4.870   3.894   3.658 -0.8245 -0.4137 -0.3654
 5630TIP3    H238306   4.805   3.856   3.526 -0.2665 -0.1670 -0.7154
 5631TIP3   OH238307   5.378   3.303   2.012  0.3393  0.1378 -0.0169
 5631TIP3    H138308   5.285   3.324   2.007  0.5796  1.8752  1.6594
 5631TIP3    H238309   5.383   3.209   1.993 -1.9778 -0.4251  1.7903
 5632TIP3   OH238310   4.348   5.101  13.959 -0.8404  0.3141 -0.0836
 5632TIP3    H138311   4.346   5.178  13.902 -0.2551  1.1304  0.9619
 5632TIP3    H238312   4.280   5.044  13.925 -2.3653  1.9735  0.0244
 5633TIP3   OH238313   2.766   1.679  12.632  0.0973 -0.4620  0.1822
 5633TIP3    H138314   2.858   1.689  12.606  0.0688 -2.2776 -0.7217
 5633TIP3    H238315   2.763   1.711  12.723  1.7767 -1.0709  0.4823
 5634TIP3   OH238316   5.374   2.962  16.019  0.0981  0.1218 -0.4131
 5634TIP3    H138317   5.336   3.009  15.945 -1.2096  0.3369  0.3602
 5634TIP3    H238318   5.432   3.026  16.060 -0.4897  0.5711 -0.2679
 5635TIP3   OH238319   1.913   6.419   5.385  0.3896 -0.5029 -0.3702
 5635TIP3    H138320   1.895   6.449   5.474 -0.2198 -1.5243 -0.1342
 5635TIP3    H238321   1.980   6.351   5.396 -0.0619 -0.9935 -0.6322
 5636TIP3   OH238322   3.768   3.800  11.009 -0.0364 -0.2496 -0.1081
 5636TIP3    H138323   3.840   3.780  10.949  0.7177  0.6396  0.4568
 5636TIP3    H238324   3.772   3.732  11.076 -0.6640 -1.0473 -0.8739
 5637TIP3   OH238325   0.050   5.700  14.532 -0.0690 -0.2626 -0.1571
 5637TIP3    H138326   0.047   5.774  14.471  0.7981 -1.4172 -1.6713
 5637TIP3    H238327  -0.006   5.633  14.492  1.6106 -1.5607 -0.4618
 5638TIP3   OH238328   0.548   5.776  15.967 -0.2729  0.5363 -0.2151
 5638TIP3    H138329   0.566   5.701  15.910 -0.5844  0.3928 -0.1254
 5638TIP3    H238330   0.512   5.738  16.047  1.2554  0.6497  0.5506
 5639TIP3   OH238331   4.412   6.635   1.332  0.0826  0.0079  0.5260
 5639TIP3    H138332   4.487   6.581   1.308  0.6951  0.1455  2.0163
 5639TIP3    H238333   4.387   6.603   1.420 -0.4511  1.1783  0.8199
 5640TIP3   OH238334   4.592   0.309  13.804 -0.5252  0.0363 -0.1815
 5640TIP3    H138335   4.498   0.315  13.820 -0.2800  0.7246  1.1258
 5640TIP3    H238336   4.626   0.261  13.880  0.0793 -1.0183 -1.0857
 5641TIP3   OH238337   0.847   3.659   6.028  0.2604 -0.3086  0.1146
 5641TIP3    H138338   0.912   3.727   6.048 -1.0036  0.3549  2.1639
 5641TIP3    H238339   0.816   3.682   5.940 -0.6062  2.2025  0.9966
 5642TIP3   OH238340   6.732   5.567  15.900  0.2180 -0.1507  0.9811
 5642TIP3    H138341   6.768   5.588  15.986 -1.6454  1.0513  1.5156
 5642TIP3    H238342   6.743   5.647  15.849  1.7196 -0.9895 -0.0986
 5643TIP3   OH238343   4.873   2.530   6.215 -0.2485  0.0355  0.1306
 5643TIP3    H138344   4.931   2.456   6.235 -1.0185 -0.7052 -0.3010
 5643TIP3    H238345   4.785   2.497   6.235 -0.8796 -0.1063 -2.5545
 5644TIP3   OH238346   6.331   1.145   1.129  0.4421  0.2017 -0.1621
 5644TIP3    H138347   6.318   1.176   1.039  0.7954 -0.2764 -0.3763
 5644TIP3    H238348   6.286   1.211   1.182 -1.0313 -0.2622 -0.7685
 5645TIP3   OH238349   0.199   4.155   6.886 -0.0235  0.0336  0.1130
 5645TIP3    H138350   0.193   4.095   6.960 -0.5341  0.5525  0.5071
 5645TIP3    H238351   0.129   4.219   6.901 -2.2562 -1.5994 -2.4097
 5646TIP3   OH238352   5.219   5.144  12.521  0.2780 -0.5181 -0.4689
 5646TIP3    H138353   5.292   5.144  12.584  0.9541  1.0040 -1.2079
 5646TIP3    H238354   5.241   5.214  12.459 -1.9208  0.1121 -0.5947
 5647TIP3   OH238355   5.282   3.619   2.954 -0.8874  0.1777 -0.1691
 5647TIP3    H138356   5.344   3.574   2.896  0.3902  2.9408 -1.1409
 5647TIP3    H238357   5.284   3.569   3.035  1.0739 -1.0193 -0.8808
 5648TIP3   OH238358   3.570   0.122   4.230 -0.4218  0.5219 -0.4881
 5648TIP3    H138359   3.647   0.077   4.198 -1.1068 -1.0734 -0.0149
 5648TIP3    H238360   3.516   0.137   4.153 -0.3976  0.0950 -0.5869
 5649TIP3   OH238361   6.068   1.604  12.887  0.5007 -0.0433  0.2487
 5649TIP3    H138362   6.146   1.642  12.927  2.1245 -1.5459 -1.3221
 5649TIP3    H238363   6.077   1.510  12.900 -1.1369 -0.2487  0.1423
 5650TIP3   OH238364   4.926   2.812   0.565 -0.3089 -0.1474 -0.1210
 5650TIP3    H138365   5.003   2.756   0.561  0.0943  0.2619  1.4477
 5650TIP3    H238366   4.856   2.755   0.597 -0.9306 -0.7407 -2.3364
 5651TIP3   OH238367   2.065   3.299   5.883  0.1348 -0.3363 -0.1452
 5651TIP3    H138368   2.079   3.390   5.856 -0.4952 -0.3054 -0.3921
 5651TIP3    H238369   2.054   3.303   5.978  1.6208 -0.3502  0.0449
 5652TIP3   OH238370   4.833   0.609   0.282  0.1130 -0.5016 -0.2713
 5652TIP3    H138371   4.921   0.570   0.285  0.1008 -0.4554  1.8263
 5652TIP3    H238372   4.775   0.538   0.307 -0.2844 -0.0879 -0.0107
 5653TIP3   OH238373   2.850   5.035   0.607  0.5438  0.0878  0.6321
 5653TIP3    H138374   2.802   4.963   0.648 -0.1979  0.4108  0.3443
 5653TIP3    H238375   2.843   5.107   0.669  1.0263  0.0072  0.7822
 5654TIP3   OH238376   1.589   1.413  16.163  0.1079 -0.4784 -0.4624
 5654TIP3    H138377   1.646   1.337  16.151  1.5876  0.4072  0.6004
 5654TIP3    H238378   1.601   1.466  16.084  1.8970  0.3775  0.3348
 5655TIP3   OH238379   0.300   6.705   0.783  0.3953 -0.3140 -0.5726
 5655TIP3    H138380   0.336   6.645   0.718  0.8268 -0.6328 -0.0527
 5655TIP3    H238381   0.347   6.683   0.864 -0.4167 -0.2064 -0.0630
 5656TIP3   OH238382   4.565   0.476  15.364 -0.1813  0.1413  0.2409
 5656TIP3    H138383   4.602   0.503  15.280 -1.9350 -1.0956 -0.9781
 5656TIP3    H238384   4.564   0.556  15.416  0.9581  0.9240 -0.8741
 5657TIP3   OH238385   3.053   2.383  11.562  0.0575 -0.4863  0.0058
 5657TIP3    H138386   3.067   2.412  11.472 -0.8550 -1.1710 -0.3771
 5657TIP3    H238387   3.141   2.382  11.601  0.3407  0.7609 -0.5661
 5658TIP3   OH238388   0.116   5.418   6.041  0.3505 -0.3654 -0.1990
 5658TIP3    H138389   0.121   5.507   6.006  2.6182 -0.1677  0.4794
 5658TIP3    H238390   0.149   5.363   5.970  0.9002 -0.4337  0.1090
 5659TIP3   OH238391   5.970   0.057  16.569  0.4016  0.4922 -0.3154
 5659TIP3    H138392   5.885   0.038  16.608  2.0165 -2.3192  2.2365
 5659TIP3    H238393   6.020   0.098  16.640  2.7509 -2.8038  0.1459
 5660TIP3   OH238394   3.194   1.034   0.293  0.0586  1.0072  0.1096
 5660TIP3    H138395   3.156   1.057   0.208 -1.0523  0.2381  0.3866
 5660TIP3    H238396   3.213   0.941   0.286  0.6506  1.0993  0.4611
 5661TIP3   OH238397   3.973   0.917  12.920  0.3803 -0.0548 -0.2390
 5661TIP3    H138398   4.045   0.980  12.919 -0.1756  0.5975 -0.0263
 5661TIP3    H238399   3.904   0.960  12.971 -0.5241 -0.2627 -1.2489
 5662TIP3   OH238400   6.614   0.986   2.686  0.2784  0.3907  0.3197
 5662TIP3    H138401   6.533   1.037   2.683 -0.1935 -0.3681 -0.3324
 5662TIP3    H238402   6.599   0.921   2.755 -0.3280 -0.7810 -0.8708
 5663TIP3   OH238403   3.622   2.030   4.200 -0.0421 -0.4230 -0.1012
 5663TIP3    H138404   3.615   1.940   4.166 -0.5536 -0.7977  0.9396
 5663TIP3    H238405   3.655   2.019   4.289 -1.4798  0.3033  0.5573
 5664TIP3   OH238406   4.233   6.039   1.214 -0.5768  0.0510  0.3401
 5664TIP3    H138407   4.266   6.127   1.193 -1.1371  0.5315  1.3778
 5664TIP3    H238408   4.140   6.052   1.233 -1.2755 -1.1944 -1.9512
 5665TIP3   OH238409   0.839   6.291  15.830  0.6788 -0.4445 -0.0907
 5665TIP3    H138410   0.773   6.228  15.800  0.2917 -0.0836 -0.0011
 5665TIP3    H238411   0.922   6.245  15.818  0.2608 -2.2727  2.9893
 5666TIP3   OH238412   3.513   5.354  16.228 -0.3215  0.7155 -0.0396
 5666TIP3    H138413   3.439   5.322  16.175 -1.1819 -0.4534  1.7782
 5666TIP3    H238414   3.515   5.296  16.304  2.3491  0.8675  0.0963
 5667TIP3   OH238415   4.213   4.433  16.343  0.1134 -0.3636  0.8275
 5667TIP3    H138416   4.120   4.448  16.325 -0.0341 -0.4988  1.4494
 5667TIP3    H238417   4.227   4.475  16.428  0.6926 -0.0905  0.6020
 5668TIP3   OH238418   0.514   0.921  12.419  0.1490 -0.1257 -0.0555
 5668TIP3    H138419   0.560   0.836  12.425 -0.0368 -0.3417 -1.4369
 5668TIP3    H238420   0.521   0.958  12.507 -1.5896 -2.5147  1.2106
 5669TIP3   OH238421   1.422   6.266  16.228 -0.3137 -0.1082  0.4787
 5669TIP3    H138422   1.435   6.171  16.222  0.4444  0.0965 -2.0564
 5669TIP3    H238423   1.332   6.275  16.259 -1.2493 -1.7328 -1.4883
 5670TIP3   OH238424   5.904   5.128  16.963 -0.0369 -0.0540  0.7241
 5670TIP3    H138425   5.841   5.080  17.016  0.1453 -0.0598  0.9354
 5670TIP3    H238426   5.852   5.197  16.920 -0.2733 -0.3543  0.5231
 5671TIP3   OH238427   0.723   3.672  15.534 -0.1349  0.4402  0.4737
 5671TIP3    H138428   0.631   3.692  15.550 -0.6721 -2.5839  1.8289
 5671TIP3    H238429   0.725   3.577  15.520  2.6427  0.5926 -0.8444
 5672TIP3   OH238430   0.144   2.691  16.370 -0.0804  0.4613  0.6802
 5672TIP3    H138431   0.064   2.648  16.400  0.4519 -0.7545  0.4387
 5672TIP3    H238432   0.136   2.781  16.400 -2.0317  0.6549 -0.2738
 5673TIP3   OH238433   2.763   2.550   2.698  0.4397 -0.5102 -0.0502
 5673TIP3    H138434   2.858   2.552   2.695  0.4183  0.6700 -0.2618
 5673TIP3    H238435   2.736   2.556   2.607  0.1544  2.1396  0.1421
 5674TIP3   OH238436   6.500   2.756   6.170 -0.4046 -0.4628  0.1292
 5674TIP3    H138437   6.560   2.818   6.129 -1.9062  0.6488 -0.4680
 5674TIP3    H238438   6.543   2.731   6.252  1.7268 -1.1910 -1.1475
 5675TIP3   OH238439   0.614   6.198   1.358  0.1359  0.4769  0.2936
 5675TIP3    H138440   0.701   6.192   1.398  0.1598 -0.3878  0.1143
 5675TIP3    H238441   0.623   6.266   1.291  0.5387  0.7460  0.6142
 5676TIP3   OH238442   3.643   4.754   5.791  0.4222 -0.1353 -0.6737
 5676TIP3    H138443   3.615   4.804   5.867  1.0847 -1.2835  0.3768
 5676TIP3    H238444   3.644   4.817   5.718 -0.5150  0.9104  0.1989
 5677TIP3   OH238445   1.922   1.199   2.531  0.2418  0.1134  0.0701
 5677TIP3    H138446   2.016   1.213   2.544  0.2290  0.7617 -0.4711
 5677TIP3    H238447   1.888   1.185   2.619  0.9320 -0.7551  0.2229
 5678TIP3   OH238448   2.776   4.512  14.001 -0.7045  0.5807 -0.2376
 5678TIP3    H138449   2.755   4.586  14.058 -1.6070 -0.0241  0.2365
 5678TIP3    H238450   2.806   4.444  14.061  1.6681  1.0464 -0.8005
 5679TIP3   OH238451   5.292   4.617  16.664 -0.0674  0.0433 -0.3106
 5679TIP3    H138452   5.240   4.697  16.657 -1.1602 -0.7572 -1.9136
 5679TIP3    H238453   5.243   4.563  16.726 -0.1891 -0.0097 -0.4522
 5680TIP3   OH238454   0.862   4.017  15.352 -0.5114 -0.3698  0.6400
 5680TIP3    H138455   0.864   4.101  15.306  1.4569 -0.0848  1.1441
 5680TIP3    H238456   0.915   4.032  15.431 -1.8672 -1.5102  1.8194
 5681TIP3   OH238457   2.069   2.579   1.101 -0.1659 -0.0363 -0.2319
 5681TIP3    H138458   1.997   2.537   1.148  0.4669 -1.0041 -0.0870
 5681TIP3    H238459   2.115   2.630   1.167 -0.2822 -0.0209 -0.1639
 5682TIP3   OH238460   0.242   5.164  16.460 -0.2775  0.2654  0.0829
 5682TIP3    H138461   0.154   5.175  16.424 -0.9348  0.6011  1.7049
 5682TIP3    H238462   0.227   5.131  16.549  1.2043  0.8553  0.5781
 5683TIP3   OH238463   3.358   6.409   5.428  0.5745 -0.2698 -0.3991
 5683TIP3    H138464   3.443   6.367   5.439  0.5459 -0.4968 -1.0206
 5683TIP3    H238465   3.340   6.450   5.513  1.3736 -0.0823 -0.3133
 5684TIP3   OH238466   0.089   4.133   3.834  0.3506  0.2936 -0.0229
 5684TIP3    H138467   0.108   4.196   3.904  2.2376  1.2127 -1.2668
 5684TIP3    H238468   0.019   4.173   3.784  0.6219  0.7753 -0.0228
 5685TIP3   OH238469   5.647   2.050   0.272  0.2350  0.7510  0.5713
 5685TIP3    H138470   5.571   1.999   0.299  0.1551  0.5344 -0.0531
 5685TIP3    H238471   5.618   2.098   0.195  0.5278  1.1938  0.7314
 5686TIP3   OH238472   3.356   5.467   1.154  0.1629  0.1371 -0.0858
 5686TIP3    H138473   3.430   5.434   1.103 -0.1689 -0.6879 -0.0485
 5686TIP3    H238474   3.381   5.451   1.245  0.7317  1.5600  0.0325
 5687TIP3   OH238475   0.378   0.019  14.779  0.0893  0.1795  0.6953
 5687TIP3    H138476   0.390   0.059  14.693  3.4278  1.4953  1.6427
 5687TIP3    H238477   0.361   0.093  14.838  0.4822 -0.3999  1.5647
 5688TIP3   OH238478   4.542   3.329  16.352  0.0925  0.4228 -0.4457
 5688TIP3    H138479   4.554   3.418  16.321  0.1644  0.7373  0.4679
 5688TIP3    H238480   4.595   3.323  16.432  1.3673 -0.9180 -1.3336
 5689TIP3   OH238481   4.948   2.307  16.929  0.3160  0.0968  0.3840
 5689TIP3    H138482   5.043   2.316  16.921  0.2303  0.7196  0.0503
 5689TIP3    H238483   4.933   2.213  16.918  0.7915  0.1374 -0.7597
 5690TIP3   OH238484   1.404   1.799   4.755 -0.3556 -0.1609  0.2535
 5690TIP3    H138485   1.372   1.847   4.832 -0.5276  1.2996 -0.6986
 5690TIP3    H238486   1.469   1.857   4.716  0.3945 -1.2845 -0.2118
 5691TIP3   OH238487   6.322   6.138  17.271 -0.4688  0.2716  0.4951
 5691TIP3    H138488   6.292   6.203  17.208 -1.1576  0.5465  1.0957
 5691TIP3    H238489   6.417   6.152  17.277 -0.3828  0.2055 -0.5040
 5692TIP3   OH238490   2.549   1.332   0.865 -0.0264  0.3028  0.5183
 5692TIP3    H138491   2.564   1.245   0.828  0.5380 -0.2718  2.0347
 5692TIP3    H238492   2.557   1.391   0.790 -1.1522 -0.9835 -0.6808
 5693TIP3   OH238493   5.097   1.220  14.500  0.4424  0.3514  0.2937
 5693TIP3    H138494   5.078   1.146  14.557 -0.4941  0.6591  0.3943
 5693TIP3    H238495   5.126   1.289  14.559 -0.6031  0.6958  0.4351
 5694TIP3   OH238496   5.232   1.594  13.364 -0.0546 -0.3997 -0.2149
 5694TIP3    H138497   5.301   1.640  13.316  0.9671 -1.3464  0.3119
 5694TIP3    H238498   5.178   1.553  13.296 -1.0365  1.5542 -0.7122
 5695TIP3   OH238499   4.029   4.774  11.557 -0.1406 -0.0613 -0.2688
 5695TIP3    H138500   3.964   4.745  11.494 -0.7014 -1.1377  0.7699
 5695TIP3    H238501   3.979   4.815  11.627  0.3640 -0.0614  0.1041
 5696TIP3   OH238502   6.451   3.850   2.511 -0.3906  0.0346  0.0583
 5696TIP3    H138503   6.445   3.790   2.585  1.0495 -0.4859 -0.2174
 5696TIP3    H238504   6.538   3.888   2.517 -1.0470  1.6611 -0.1384
 5697TIP3   OH238505   5.651   4.853   3.067 -0.1203  0.2617  0.3573
 5697TIP3    H138506   5.584   4.860   3.134 -0.2177  0.9049  0.1954
 5697TIP3    H238507   5.619   4.785   3.007  0.7121 -1.4857  1.8097
 5698TIP3   OH238508   6.235   2.243   1.898  0.0981  0.0548 -0.2380
 5698TIP3    H138509   6.295   2.169   1.899  0.4397  0.3294 -0.3588
 5698TIP3    H238510   6.258   2.291   1.818 -0.9481 -0.3866 -0.8311
 5699TIP3   OH238511   0.573   4.168  14.745 -0.3031  0.0965 -0.4077
 5699TIP3    H138512   0.565   4.095  14.806  2.4362  1.5248  1.8538
 5699TIP3    H238513   0.649   4.146  14.691  0.0999  0.9363 -0.1868
 5700TIP3   OH238514   6.533   5.123   2.968  0.2130  0.2952  0.4219
 5700TIP3    H138515   6.472   5.170   2.912 -1.2818  0.0221  1.7346
 5700TIP3    H238516   6.591   5.077   2.907 -1.4046 -0.0875 -0.9179
 5701TIP3   OH238517   0.416   0.171  15.616  0.5703  0.0189  0.1618
 5701TIP3    H138518   0.460   0.163  15.531  0.5286 -0.1669  0.1578
 5701TIP3    H238519   0.456   0.102  15.669 -0.3282 -0.7163 -0.1027
 5702TIP3   OH238520   1.664   6.640   0.451  0.1818  0.2005  0.5451
 5702TIP3    H138521   1.744   6.601   0.486 -0.5510 -1.6290  0.2921
 5702TIP3    H238522   1.621   6.569   0.403 -1.1630  1.3743 -0.0901
 5703TIP3   OH238523   5.239   1.887  11.561  0.6595  0.3157  0.1669
 5703TIP3    H138524   5.311   1.937  11.523 -0.8379  1.4654 -1.2977
 5703TIP3    H238525   5.282   1.824  11.620  2.9265  0.0605 -1.6132
 5704TIP3   OH238526   4.822   1.596   3.047 -0.0627  0.4758  0.5564
 5704TIP3    H138527   4.873   1.514   3.050  0.9754  1.0625 -0.2699
 5704TIP3    H238528   4.751   1.582   3.110 -0.6654 -1.5487 -0.4863
 5705TIP3   OH238529   6.621   0.729   4.188  0.3093 -0.7841  0.2488
 5705TIP3    H138530   6.696   0.676   4.163 -0.1419 -1.1685 -0.3344
 5705TIP3    H238531   6.571   0.675   4.249  0.0633 -0.8719 -0.0275
 5706TIP3   OH238532   1.805   0.288  16.964 -0.0050  0.9158 -0.5056
 5706TIP3    H138533   1.889   0.330  16.945  0.5771 -0.5695 -1.4184
 5706TIP3    H238534   1.769   0.338  17.037  2.5708  0.4487  1.2225
 5707TIP3   OH238535   5.313   4.008   3.771 -0.2306 -0.1168 -0.2961
 5707TIP3    H138536   5.352   4.043   3.691 -0.9072  1.1437 -0.0902
 5707TIP3    H238537   5.260   4.079   3.806 -1.5300 -1.3033  0.2387
 5708TIP3   OH238538   4.883   3.085  12.386 -0.2148  0.0499 -0.1278
 5708TIP3    H138539   4.906   3.004  12.341 -1.8898 -0.1629 -0.6859
 5708TIP3    H238540   4.928   3.080  12.470  2.0474 -0.0870 -1.2568
 5709TIP3   OH238541   4.470   2.309  13.874  0.6802 -0.6561 -0.0367
 5709TIP3    H138542   4.494   2.286  13.784 -0.1444  1.3055 -0.8075
 5709TIP3    H238543   4.376   2.291  13.879  0.7373 -0.8156  0.4540
 5710TIP3   OH238544   2.351   6.108  16.145  0.0830  0.0609 -0.2795
 5710TIP3    H138545   2.307   6.105  16.229 -0.4111  1.4222 -0.4718
 5710TIP3    H238546   2.440   6.137  16.165 -0.0288  0.3653 -0.2296
 5711TIP3   OH238547   2.538   4.614  13.185 -0.1679  0.1303 -0.3146
 5711TIP3    H138548   2.541   4.577  13.097 -0.6063 -1.2497  0.2341
 5711TIP3    H238549   2.452   4.590  13.219 -0.4447  1.5931  0.1166
 5712TIP3   OH238550   5.550   2.612  10.617  0.1355  0.2689 -0.0450
 5712TIP3    H138551   5.622   2.596  10.678 -0.5605 -1.3416  0.3911
 5712TIP3    H238552   5.508   2.692  10.651  0.6769  0.2514  0.6915
 5713TIP3   OH238553   6.257   5.941  11.135  0.3058  0.3401  0.0066
 5713TIP3    H138554   6.269   5.903  11.049  1.3454  0.0547  0.2586
 5713TIP3    H238555   6.346   5.949  11.170 -0.1889 -1.6705  1.9594
 5714TIP3   OH238556   4.363   3.513   2.642  0.0827  0.4137 -0.3355
 5714TIP3    H138557   4.406   3.449   2.699  0.2864  0.2559 -0.6610
 5714TIP3    H238558   4.355   3.592   2.695 -3.2981 -0.8542  1.3203
 5715TIP3   OH238559   5.762   0.042  12.249  0.7044 -0.2342 -0.1356
 5715TIP3    H138560   5.693  -0.012  12.287  0.5438 -1.0687 -1.5383
 5715TIP3    H238561   5.743   0.130  12.281 -1.0382 -0.4291 -0.5195
 5716TIP3   OH238562   5.643   0.559  16.605 -0.3251 -0.4913  0.4761
 5716TIP3    H138563   5.615   0.509  16.681 -0.1702 -0.4378  0.5679
 5716TIP3    H238564   5.688   0.495  16.549  1.9083 -0.0144  1.6280
 5717TIP3   OH238565   1.833   5.395   3.948  0.0408 -0.8734 -0.0838
 5717TIP3    H138566   1.797   5.425   4.032  1.8614 -0.6895  0.6774
 5717TIP3    H238567   1.919   5.359   3.970  0.6182 -0.7032 -1.8947
 5718TIP3   OH238568   5.875   4.327  15.236  0.4512  0.5128  0.3879
 5718TIP3    H138569   5.861   4.304  15.144  2.0656 -0.0588  0.2390
 5718TIP3    H238570   5.825   4.262  15.285  0.5031  0.1013 -0.0917
 5719TIP3   OH238571   0.630   6.499  16.394  0.0236 -0.4160 -0.4604
 5719TIP3    H138572   0.593   6.434  16.454  0.6299 -0.7581 -0.4493
 5719TIP3    H238573   0.574   6.494  16.317 -1.3118  0.6653  0.3942
 5720TIP3   OH238574   4.529   5.477   5.307 -0.8323 -0.8833  0.5003
 5720TIP3    H138575   4.541   5.565   5.271  1.3510 -1.7678 -1.1507
 5720TIP3    H238576   4.596   5.469   5.374 -2.1446 -0.7353  1.8682
 5721TIP3   OH238577   2.489   6.614   5.116 -0.3509  0.3452  0.1233
 5721TIP3    H138578   2.528   6.537   5.157  0.0411  1.3043  1.6062
 5721TIP3    H238579   2.480   6.590   5.023  2.1612 -0.5223  0.0502
 5722TIP3   OH238580   0.590   6.441   0.322  0.2516  0.0190 -0.1700
 5722TIP3    H138581   0.665   6.492   0.291  0.6375  1.0242  2.1574
 5722TIP3    H238582   0.627   6.385   0.391 -0.7550 -1.1480 -0.5576
 5723TIP3   OH238583   4.018   6.297  11.496 -0.3144  0.6086  0.5113
 5723TIP3    H138584   3.982   6.301  11.408  0.8809 -2.5269 -0.2567
 5723TIP3    H238585   3.952   6.251  11.547 -0.1391  0.5660  0.7029
 5724TIP3   OH238586   0.581   3.514  11.119  0.2879  0.2777 -0.0592
 5724TIP3    H138587   0.601   3.529  11.212 -1.5776  1.8133  0.1493
 5724TIP3    H238588   0.555   3.422  11.115 -0.9092  0.5302  1.2319
 5725TIP3   OH238589   3.544   0.731  11.577 -0.2439 -0.4433  0.2281
 5725TIP3    H138590   3.502   0.693  11.499  1.9249 -0.5584 -0.9707
 5725TIP3    H238591   3.619   0.780  11.542 -1.6860  3.3033  1.8967
 5726TIP3   OH238592   2.037   2.866   3.241  0.1824  0.3946  0.0852
 5726TIP3    H138593   2.110   2.917   3.205  0.3098  1.6260  1.9709
 5726TIP3    H238594   2.076   2.782   3.264  0.7583  0.6469  0.0495
 5727TIP3   OH238595   3.411   1.125   2.211 -0.2676 -0.6774 -0.1702
 5727TIP3    H138596   3.332   1.079   2.184 -1.3787  0.3305  1.2033
 5727TIP3    H238597   3.379   1.205   2.254  1.3660 -1.3279  2.5344
 5728TIP3   OH238598   2.664   3.229   4.657 -0.4941 -0.5801  0.5654
 5728TIP3    H138599   2.634   3.199   4.744 -1.4131  0.2577  0.5507
 5728TIP3    H238600   2.698   3.317   4.672 -2.0344  0.1771 -0.1495
 5729TIP3   OH238601   3.893   2.794   2.781 -0.5169 -0.0733 -0.0004
 5729TIP3    H138602   3.854   2.786   2.694  1.3226 -1.0948 -0.7838
 5729TIP3    H238603   3.983   2.821   2.765 -0.3395  0.4132  1.6349
 5730TIP3   OH238604   6.416   0.661   1.252 -0.1140 -0.4194  0.2195
 5730TIP3    H138605   6.409   0.728   1.184  1.2343 -1.2356 -0.7848
 5730TIP3    H238606   6.384   0.704   1.332  1.3076  1.6517 -0.2294
 5731TIP3   OH238607   5.132   2.720  12.767 -0.2226 -0.5036 -0.1463
 5731TIP3    H138608   5.096   2.738  12.854 -2.3520  0.5161 -1.1411
 5731TIP3    H238609   5.203   2.783  12.757  1.7134 -2.2433  1.7101
 5732TIP3   OH238610   2.377   1.155  16.048  0.1471  0.1319 -0.5371
 5732TIP3    H138611   2.451   1.189  15.999  0.0248  0.8421 -0.2483
 5732TIP3    H238612   2.328   1.102  15.985  0.9605 -0.4522 -0.6935
 5733TIP3   OH238613   3.849   3.042  14.412  0.1778 -0.1569  0.3565
 5733TIP3    H138614   3.772   2.986  14.402  1.4350 -1.8033 -0.4263
 5733TIP3    H238615   3.818   3.129  14.387 -1.8628 -0.4148  1.7579
 5734TIP3   OH238616   0.341   0.572  12.210  0.5662 -0.0611  0.1396
 5734TIP3    H138617   0.273   0.504  12.206  0.7536 -0.1936 -1.6050
 5734TIP3    H238618   0.351   0.601  12.119  1.7149  1.0991  0.6053
 5735TIP3   OH238619   6.718   0.526   3.579 -0.1989  0.2045 -0.1073
 5735TIP3    H138620   6.809   0.540   3.605 -0.0066 -0.2568 -0.5086
 5735TIP3    H238621   6.698   0.599   3.521 -0.9422  1.8038  2.0212
 5736TIP3   OH238622   1.312   0.934  12.092 -0.4604  0.4373 -0.1475
 5736TIP3    H138623   1.238   0.876  12.075  0.7526 -1.2676  0.1924
 5736TIP3    H238624   1.359   0.938  12.009 -0.0912  0.2776  0.0524
 5737TIP3   OH238625   0.857   1.838   5.398 -0.3120 -0.2229 -0.0931
 5737TIP3    H138626   0.935   1.820   5.451 -0.1683 -0.7828 -0.4889
 5737TIP3    H238627   0.784   1.830   5.460 -0.2225 -1.8046 -0.1522
 5738TIP3   OH238628   5.319   5.988   4.002 -0.1588  0.3294  0.0668
 5738TIP3    H138629   5.279   5.916   3.952  0.3570  1.1615 -1.5885
 5738TIP3    H238630   5.405   6.001   3.961 -0.1256  1.6916  0.5360
 5739TIP3   OH238631   0.247   3.197  16.339  0.5072 -0.1703  0.1227
 5739TIP3    H138632   0.251   3.126  16.404  2.0864  0.0189  0.2806
 5739TIP3    H238633   0.272   3.275  16.389  0.8310  0.1354 -0.5155
 5740TIP3   OH238634   1.526   0.884  15.014 -0.1481 -0.5770  0.3122
 5740TIP3    H138635   1.464   0.910  15.082 -0.1523  0.2933 -0.0155
 5740TIP3    H238636   1.492   0.923  14.934 -1.4327 -3.4897 -0.7004
 5741TIP3   OH238637   0.677   0.871   5.660 -0.1948  0.1876 -0.0993
 5741TIP3    H138638   0.582   0.865   5.652 -0.2000 -0.8517  0.5515
 5741TIP3    H238639   0.690   0.924   5.739 -0.2561 -0.9136  0.6627
 5742TIP3   OH238640   4.072   4.399   4.931 -0.3072  0.4167 -0.5633
 5742TIP3    H138641   4.036   4.476   4.886 -1.3972  0.6048  0.5855
 5742TIP3    H238642   3.999   4.365   4.982  0.1434 -1.4208 -1.0577
 5743TIP3   OH238643   4.857   3.411  12.086 -0.5161  0.1621 -0.3688
 5743TIP3    H138644   4.881   3.338  12.029 -1.0681 -0.0323 -0.3590
 5743TIP3    H238645   4.770   3.388  12.118 -1.5172  1.7296 -1.8341
 5744TIP3   OH238646   2.474   6.426   4.330 -0.4388 -0.3236 -0.4187
 5744TIP3    H138647   2.562   6.430   4.292 -0.4510 -1.0117 -0.5337
 5744TIP3    H238648   2.489   6.432   4.424  0.0181 -3.4049 -0.1985
 5745TIP3   OH238649   0.779   3.044  15.030 -0.0683  0.2791 -0.2174
 5745TIP3    H138650   0.796   2.960  14.987  0.6939 -0.2991  1.1550
 5745TIP3    H238651   0.779   3.023  15.123 -2.9190  1.2576  0.1019
 5746TIP3   OH238652   0.262   2.203   3.854 -0.5180  0.0687  0.1130
 5746TIP3    H138653   0.247   2.164   3.768 -0.6055 -0.3602  0.3228
 5746TIP3    H238654   0.312   2.137   3.902 -0.7970  0.1500  0.5193
 5747TIP3   OH238655   1.617   4.801  11.588 -0.1513  0.6264 -0.1407
 5747TIP3    H138656   1.600   4.733  11.523  1.6121  0.9012 -0.9370
 5747TIP3    H238657   1.530   4.828  11.618 -0.9235 -1.3375 -0.4475
 5748TIP3   OH238658   4.607   4.412   4.288  0.5335 -0.4520  0.0418
 5748TIP3    H138659   4.668   4.339   4.298 -0.5421 -1.3341  0.3596
 5748TIP3    H238660   4.591   4.444   4.377  1.9313  1.0085 -0.1753
 5749TIP3   OH238661   5.094   2.492  12.453 -0.2576 -0.4381  0.3237
 5749TIP3    H138662   5.153   2.419  12.469  1.5206  1.1224  1.3445
 5749TIP3    H238663   5.127   2.532  12.373  0.7962  1.0419  1.4382
 5750TIP3   OH238664   2.452   4.389  13.069 -0.1821  0.4981 -0.2915
 5750TIP3    H138665   2.502   4.307  13.073 -0.4682  0.3593  0.5646
 5750TIP3    H238666   2.423   4.395  12.978  0.5336  0.0642 -0.5521
 5751TIP3   OH238667   1.799   2.265  16.482  0.0016  0.3232 -0.8275
 5751TIP3    H138668   1.830   2.355  16.472 -0.0920  0.5155  0.4703
 5751TIP3    H238669   1.801   2.249  16.576 -1.5967 -0.4598 -0.8886
 5752TIP3   OH238670   2.183   6.708   2.109  0.0295 -0.6423 -0.0003
 5752TIP3    H138671   2.210   6.789   2.152  1.3142 -0.2596 -1.4469
 5752TIP3    H238672   2.152   6.652   2.180  0.7791  0.4608  1.2299
 5753TIP3   OH238673   2.565   6.475  14.466 -0.4523  0.2548  0.1561
 5753TIP3    H138674   2.474   6.472  14.435 -0.5197 -0.1274  0.3759
 5753TIP3    H238675   2.611   6.529  14.402 -1.2393  2.0749  1.0657
 5754TIP3   OH238676   6.709   4.279  16.109  0.0084  0.8469 -0.1258
 5754TIP3    H138677   6.773   4.255  16.042  1.1288  1.1059  0.8215
 5754TIP3    H238678   6.642   4.210  16.105  0.7390  0.1545 -0.6130
 5755TIP3   OH238679   0.043   2.357  16.083 -0.1489  0.0401  0.0515
 5755TIP3    H138680   0.121   2.377  16.032 -0.6182 -0.8366 -1.0584
 5755TIP3    H238681   0.071   2.286  16.141 -0.4559 -1.2839 -1.3544
 5756TIP3   OH238682   3.169   3.488  15.396 -0.2942  0.3241  0.3667
 5756TIP3    H138683   3.091   3.439  15.373 -0.1604 -1.3416  3.0037
 5756TIP3    H238684   3.163   3.569  15.345 -2.5574 -0.7130 -1.1600
 5757TIP3   OH238685   1.843   4.611   1.461  0.1141  0.0344 -0.6731
 5757TIP3    H138686   1.779   4.542   1.478  0.3570 -0.0638 -0.1177
 5757TIP3    H238687   1.801   4.669   1.398 -1.3035  1.0371  1.0888
 5758TIP3   OH238688   3.138   0.090  13.369 -0.0590  0.1105 -0.4666
 5758TIP3    H138689   3.061   0.042  13.340 -0.4305 -0.4103  1.2789
 5758TIP3    H238690   3.212   0.035  13.341 -0.3481  0.0905 -1.2157
 5759TIP3   OH238691   1.575   4.444   3.475  0.1694  0.3490  0.1608
 5759TIP3    H138692   1.615   4.528   3.453 -0.6319  0.7584  0.2361
 5759TIP3    H238693   1.485   4.466   3.499 -0.4009 -0.6613 -0.9602
 5760TIP3   OH238694   5.128   5.837  12.862  0.4510 -0.5284 -0.0687
 5760TIP3    H138695   5.072   5.864  12.935  1.1861  1.3431 -0.1480
 5760TIP3    H238696   5.216   5.864  12.887  0.9429 -1.1594 -1.0364
 5761TIP3   OH238697   3.232   2.304  16.981  0.1567 -0.3973 -0.0975
 5761TIP3    H138698   3.164   2.256  16.933  0.7221 -2.4617  1.0646
 5761TIP3    H238699   3.313   2.285  16.933  0.2764  0.0630 -0.0804
 5762TIP3   OH238700   6.306   5.962   5.350  0.5734 -0.1291  0.2839
 5762TIP3    H138701   6.281   5.905   5.276 -1.6871  0.3346  0.6006
 5762TIP3    H238702   6.253   5.930   5.423 -0.0570  1.7359  0.7109
 5763TIP3   OH238703   3.784   6.320   3.645 -0.0537 -0.1765  0.1712
 5763TIP3    H138704   3.743   6.272   3.573  0.2843 -4.2806  2.3947
 5763TIP3    H238705   3.865   6.355   3.609  0.0622 -2.0191 -1.5053
 5764TIP3   OH238706   4.484   5.692  11.356  0.3987  0.3079 -0.4288
 5764TIP3    H138707   4.547   5.620  11.357  1.4393  1.1904  0.9517
 5764TIP3    H238708   4.506   5.741  11.277  0.0692 -0.5448 -1.0639
 5765TIP3   OH238709   1.680   3.800   0.536 -0.2127 -0.2377 -0.1625
 5765TIP3    H138710   1.604   3.749   0.506 -0.1127 -0.2977 -0.3101
 5765TIP3    H238711   1.643   3.886   0.558 -0.8505 -1.0903  2.4751
 5766TIP3   OH238712   0.807   2.231   5.678  0.4254 -0.0461 -0.2981
 5766TIP3    H138713   0.831   2.196   5.592 -1.0333  0.0952 -0.7906
 5766TIP3    H238714   0.876   2.294   5.699  1.3366 -0.8271 -0.8875
 5767TIP3   OH238715   6.076   2.539  16.021  0.8045 -0.0561 -0.0683
 5767TIP3    H138716   6.054   2.549  15.929 -1.4093  2.1189  0.5888
 5767TIP3    H238717   6.004   2.580  16.068  2.9532  1.0338  2.5734
 5768TIP3   OH238718   0.630   0.870   3.054  0.2017 -0.1492  0.8293
 5768TIP3    H138719   0.675   0.949   3.026 -0.4761  0.1521  0.5669
 5768TIP3    H238720   0.576   0.897   3.128 -1.2782  0.0250 -0.2670
 5769TIP3   OH238721   2.321   1.841   2.146 -0.5420  0.3777  0.3212
 5769TIP3    H138722   2.395   1.781   2.132 -2.7495 -1.9867 -2.4645
 5769TIP3    H238723   2.331   1.908   2.078 -0.0864  1.0673  1.0505
 5770TIP3   OH238724   0.426   4.334   2.818 -0.0151  0.2608  0.2916
 5770TIP3    H138725   0.365   4.322   2.745 -0.1553 -0.0157  0.4502
 5770TIP3    H238726   0.496   4.271   2.801  0.1406  0.4582  0.2004
 5771TIP3   OH238727   0.534   3.848   5.564 -0.2895 -0.1251 -0.0100
 5771TIP3    H138728   0.483   3.797   5.501  0.2222  1.2567 -1.6092
 5771TIP3    H238729   0.625   3.826   5.544 -0.1301  0.0242  0.5277
 5772TIP3   OH238730   0.109   3.294  14.016 -0.1323 -0.1026  0.2375
 5772TIP3    H138731   0.092   3.350  14.092  0.4052  2.3786 -1.3344
 5772TIP3    H238732   0.069   3.341  13.942 -2.6274 -3.4715 -0.8449
 5773TIP3   OH238733   2.879   1.925   3.128  0.6186  0.0758  0.4812
 5773TIP3    H138734   2.875   1.909   3.222 -0.0644 -0.3627  0.3821
 5773TIP3    H238735   2.970   1.949   3.112  1.9779 -4.2080  0.5804
 5774TIP3   OH238736   2.131   6.650   2.402 -0.0983 -0.5524 -0.3482
 5774TIP3    H138737   2.098   6.565   2.432 -1.9636 -0.2068 -1.2599
 5774TIP3    H238738   2.178   6.686   2.477 -2.2369 -0.9166  1.2670
 5775TIP3   OH238739   2.409   4.207  14.880  0.2901  0.4419 -0.3356
 5775TIP3    H138740   2.330   4.186  14.830 -1.1737  1.0427  1.6230
 5775TIP3    H238741   2.452   4.123  14.895 -2.2095 -0.5370  2.0962
 5776TIP3   OH238742   5.404   6.233  16.029 -0.7500  0.0525  0.1069
 5776TIP3    H138743   5.367   6.177  16.097  1.6677 -0.5960  1.0019
 5776TIP3    H238744   5.386   6.322  16.059  1.9259 -0.1385  2.8155
 5777TIP3   OH238745   3.516   1.086  16.646  0.3403  0.1367  0.2384
 5777TIP3    H138746   3.483   1.173  16.623 -1.1444 -0.9090 -1.9294
 5777TIP3    H238747   3.483   1.029  16.576  1.9265 -2.0416  1.1703
 5778TIP3   OH238748   2.485   3.963   3.200 -0.3412 -0.2816 -0.3949
 5778TIP3    H138749   2.559   3.957   3.140  0.5524  0.3033  0.6058
 5778TIP3    H238750   2.409   3.940   3.147  0.6869 -2.3098 -1.1356
 5779TIP3   OH238751   5.144   3.438   1.642  0.0283  0.1619  0.0299
 5779TIP3    H138752   5.190   3.517   1.614 -1.8883  1.8052  1.2078
 5779TIP3    H238753   5.084   3.419   1.570  1.0359 -0.7547 -0.6031
 5780TIP3   OH238754   2.576   0.555   2.081 -0.2951 -0.0170  0.6576
 5780TIP3    H138755   2.595   0.647   2.096  0.1574  0.3992 -1.9608
 5780TIP3    H238756   2.481   0.549   2.080 -0.3581  0.7807 -0.7005
 5781TIP3   OH238757   5.410   4.553   0.325  0.2773  0.2965  0.0513
 5781TIP3    H138758   5.483   4.541   0.386 -0.8415  0.2171  1.4355
 5781TIP3    H238759   5.365   4.468   0.323 -0.1524  0.5239 -0.2682
 5782TIP3   OH238760   0.793   1.237  16.724 -0.2091 -0.4562  0.3794
 5782TIP3    H138761   0.746   1.196  16.652 -0.3928  1.3799 -0.6062
 5782TIP3    H238762   0.730   1.297  16.763  1.0575  1.6397 -0.6163
 5783TIP3   OH238763   0.140   3.113  12.361  0.3280  0.5665  0.3685
 5783TIP3    H138764   0.065   3.059  12.384 -0.9485  2.7912  1.8061
 5783TIP3    H238765   0.208   3.087  12.424  0.0035  0.1355  0.5465
 5784TIP3   OH238766   5.854   1.016   5.207 -0.2954  0.1401 -0.0549
 5784TIP3    H138767   5.948   1.029   5.196  0.1768 -2.7288 -0.0594
 5784TIP3    H238768   5.832   1.065   5.287  1.4900 -0.2879  0.7351
 5785TIP3   OH238769   2.337   3.452   4.574 -0.2595 -0.0156  0.6531
 5785TIP3    H138770   2.294   3.484   4.494  1.2426  2.2867  0.6761
 5785TIP3    H238771   2.355   3.359   4.555  1.1339  0.7079 -2.2467
 5786TIP3   OH238772   2.287   2.516  11.315  0.2158  0.2534  0.1456
 5786TIP3    H138773   2.209   2.508  11.259  1.7598  0.8842 -2.2588
 5786TIP3    H238774   2.359   2.487  11.260  1.8825  1.0507  1.8017
 5787TIP3   OH238775   2.059   4.410  17.266  0.0170 -0.1706 -0.2976
 5787TIP3    H138776   2.066   4.464  17.188 -0.6601 -0.6779 -0.7230
 5787TIP3    H238777   1.972   4.371  17.261  0.0956 -0.4884  0.5311
 5788TIP3   OH238778   3.712   3.642  13.215 -0.5136 -0.7372 -0.1320
 5788TIP3    H138779   3.677   3.710  13.158  0.7282  0.0209 -0.0325
 5788TIP3    H238780   3.640   3.620  13.273 -1.0923  0.1365 -0.4956
 5789TIP3   OH238781   2.394   1.999  13.364 -0.3495  0.2370 -0.1771
 5789TIP3    H138782   2.424   1.957  13.444 -0.3816  0.8040  0.1322
 5789TIP3    H238783   2.339   1.933  13.322 -2.4914  0.8117  1.5429
 5790TIP3   OH238784   0.051   6.379   2.483  0.0673  0.1315 -0.0549
 5790TIP3    H138785   0.122   6.441   2.498  0.0400  0.2424 -0.3735
 5790TIP3    H238786   0.091   6.293   2.496 -0.0895  0.2315  1.1932
 5791TIP3   OH238787   0.602   0.401  11.216 -0.2096  0.3865  0.0397
 5791TIP3    H138788   0.631   0.388  11.126 -0.0374  0.4912  0.0797
 5791TIP3    H238789   0.628   0.491  11.237  1.2696 -0.1894  0.7656
 5792TIP3   OH238790   6.721   6.166  14.386 -0.2064 -0.6319 -1.0476
 5792TIP3    H138791   6.630   6.177  14.356 -0.3285 -1.5122 -1.0297
 5792TIP3    H238792   6.760   6.253  14.375 -1.3472  0.0425 -0.0330
 5793TIP3   OH238793   5.597   0.269   5.232 -0.0819 -0.0699  0.1180
 5793TIP3    H138794   5.567   0.192   5.281  2.8036 -1.1261  0.3846
 5793TIP3    H238795   5.611   0.335   5.299  4.5073 -1.7164  1.1160
 5794TIP3   OH238796   1.329   2.932   5.310  0.0938 -0.1164 -0.0763
 5794TIP3    H138797   1.418   2.964   5.325  0.4057 -1.1755  0.4195
 5794TIP3    H238798   1.276   2.983   5.372  0.5103 -0.2036  0.3628
 5795TIP3   OH238799   1.478   1.931   3.959 -0.4360  0.1840 -0.4865
 5795TIP3    H138800   1.492   1.884   4.041 -1.2391  0.9241  0.0873
 5795TIP3    H238801   1.560   1.975   3.941 -0.0634 -0.4609 -0.4062
 5796TIP3   OH238802   1.143   4.310  15.312 -0.2136 -0.2018 -0.2031
 5796TIP3    H138803   1.200   4.303  15.236  0.9338  1.5325  0.4365
 5796TIP3    H238804   1.093   4.391  15.297 -2.0328 -1.3217 -0.4159
 5797TIP3   OH238805   4.003   6.384  16.975 -0.0172 -0.4553  0.0519
 5797TIP3    H138806   3.953   6.304  16.990 -0.7952 -0.2704 -1.3816
 5797TIP3    H238807   4.077   6.357  16.921 -0.0825 -0.2732 -0.1303
 5798TIP3   OH238808   6.740   2.091  15.845 -0.1208 -0.4874 -0.2369
 5798TIP3    H138809   6.674   2.058  15.784  0.3053 -1.1163 -0.3677
 5798TIP3    H238810   6.705   2.174  15.875 -0.3562 -0.1785 -1.3181
 5799TIP3   OH238811   3.712   1.491  14.102  0.4651 -0.2008  0.5065
 5799TIP3    H138812   3.697   1.544  14.180  0.4785  1.7768 -0.7609
 5799TIP3    H238813   3.639   1.512  14.043 -0.9462 -3.5262  0.8331
 5800TIP3   OH238814   1.876   2.590   1.412  0.5301 -0.0334 -0.0166
 5800TIP3    H138815   1.809   2.639   1.460  0.2127 -0.7708  0.3118
 5800TIP3    H238816   1.957   2.605   1.461  0.1887 -0.8723  0.8499
 5801TIP3   OH238817   1.555   0.595   0.819 -0.1384  0.3470  0.2653
 5801TIP3    H138818   1.504   0.598   0.900 -0.1939  0.1502  0.2402
 5801TIP3    H238819   1.492   0.617   0.750  0.3468  2.4849  0.4498
 5802TIP3   OH238820   1.843   2.137   0.024 -0.5459 -0.0347  0.1212
 5802TIP3    H138821   1.899   2.203   0.065  1.4706 -1.4028 -0.2632
 5802TIP3    H238822   1.785   2.108   0.093 -1.9111  2.4920  0.1648
 5803TIP3   OH238823   4.530   0.612   2.841  0.6803 -0.0336  0.6876
 5803TIP3    H138824   4.577   0.687   2.806 -0.5349  0.1518 -0.6355
 5803TIP3    H238825   4.465   0.590   2.774  0.6068 -1.9001  1.2980
 5804TIP3   OH238826   5.942   5.259  16.535  0.1901 -0.8094  0.2051
 5804TIP3    H138827   5.868   5.313  16.506 -0.4260 -0.3039  2.5397
 5804TIP3    H238828   5.971   5.214  16.455 -0.3725  1.6218 -1.5072
 5805TIP3   OH238829   5.346   0.727  16.821 -0.5274 -0.3761  0.0630
 5805TIP3    H138830   5.336   0.751  16.729 -0.0302 -0.9352 -0.1430
 5805TIP3    H238831   5.287   0.654  16.834  0.8829 -1.6315 -0.3495
 5806TIP3   OH238832   5.888   3.672   1.583 -0.0015  0.3999 -0.5073
 5806TIP3    H138833   5.895   3.664   1.488 -0.7651 -0.7928 -0.4805
 5806TIP3    H238834   5.844   3.756   1.597 -0.8482  0.0970 -1.2653
 5807TIP3   OH238835   3.812   4.079   0.082  0.3853 -0.4035  0.0842
 5807TIP3    H138836   3.740   4.135   0.052  1.8242  0.7865 -1.3126
 5807TIP3    H238837   3.777   4.035   0.160 -2.0011 -0.2520 -0.8068
 5808TIP3   OH238838   6.672   3.089  11.964 -0.2027  0.7800 -0.0318
 5808TIP3    H138839   6.672   3.011  12.019 -2.3878 -0.2495 -1.3682
 5808TIP3    H238840   6.580   3.111  11.952  0.2911  2.3896 -1.3047
 5809TIP3   OH238841   2.509   1.673  11.966 -0.4031  0.3921  0.0334
 5809TIP3    H138842   2.572   1.716  11.908 -0.7661  2.0072  0.7891
 5809TIP3    H238843   2.523   1.714  12.051 -0.3179 -1.4906  0.9746
 5810TIP3   OH238844   1.552   3.065   0.001  0.5173  0.0663 -0.3739
 5810TIP3    H138845   1.481   3.122   0.031  1.6140  0.6761  1.1839
 5810TIP3    H238846   1.594   3.114  -0.070 -0.0638  0.0861 -0.7101
 5811TIP3   OH238847   4.691   5.880   0.484  0.4921  0.0119 -0.2891
 5811TIP3    H138848   4.616   5.850   0.534 -1.7643  0.3124 -3.2223
 5811TIP3    H238849   4.710   5.968   0.518 -1.9291  0.8205 -0.8395
 5812TIP3   OH238850   2.842   0.278  13.078  0.0036 -0.1658 -0.3103
 5812TIP3    H138851   2.817   0.212  13.143 -0.3802  0.6154  0.3554
 5812TIP3    H238852   2.779   0.349  13.091  2.5483  1.9405  1.4801
 5813TIP3   OH238853   4.476   1.773  13.208  0.2837 -0.0373 -0.3355
 5813TIP3    H138854   4.550   1.720  13.180 -1.3068 -2.4125 -0.3778
 5813TIP3    H238855   4.468   1.757  13.302  1.2014  2.1097  0.1651
 5814TIP3   OH238856   2.875   5.490  11.507  0.9623  0.1941 -0.5734
 5814TIP3    H138857   2.823   5.424  11.553  1.3904  0.1459 -0.1519
 5814TIP3    H238858   2.843   5.486  11.417 -1.7874  2.1311  0.1916
 5815TIP3   OH238859   3.919   3.995  13.488 -0.4246 -0.3803  0.2347
 5815TIP3    H138860   3.838   4.029  13.452 -0.7241 -1.2172  0.0885
 5815TIP3    H238861   3.989   4.039  13.440 -0.7887  0.3973  0.4165
 5816TIP3   OH238862   5.842   2.628  13.676  0.3666 -0.1949  1.2486
 5816TIP3    H138863   5.873   2.630  13.585 -2.8353 -1.0446  0.0120
 5816TIP3    H238864   5.864   2.540  13.706 -0.0747 -0.4970  0.7014
 5817TIP3   OH238865   1.652   3.358  11.600 -0.1967  0.0834 -0.3437
 5817TIP3    H138866   1.660   3.337  11.507 -0.4937 -0.4956 -0.2450
 5817TIP3    H238867   1.590   3.431  11.603  0.0054  0.2684 -0.6140
 5818TIP3   OH238868   2.248   1.244  11.729 -0.2794 -0.9074 -0.0804
 5818TIP3    H138869   2.152   1.241  11.726 -0.3860  1.3891 -0.6819
 5818TIP3    H238870   2.268   1.247  11.823 -0.7862 -1.4118  0.0512
 5819TIP3   OH238871   5.045   3.506   1.172 -0.0522  0.2014  1.1734
 5819TIP3    H138872   5.005   3.455   1.243  0.2420  0.8597  1.8264
 5819TIP3    H238873   5.020   3.597   1.190 -1.0893  0.2503 -0.3170
 5820TIP3   OH238874   4.087   5.316  15.667  0.2325 -0.2426  0.4894
 5820TIP3    H138875   4.176   5.283  15.682  0.6302  1.1485  1.2988
 5820TIP3    H238876   4.040   5.294  15.748  0.1270 -0.0682  0.4753
 5821TIP3   OH238877   4.942   3.854  13.790 -0.5499 -0.0730  0.1110
 5821TIP3    H138878   4.953   3.876  13.698  0.0514 -2.3083 -0.3953
 5821TIP3    H238879   5.028   3.823  13.818 -0.7610  0.4442  1.4080
 5822TIP3   OH238880   5.924   6.126  13.618 -0.7444  0.0462 -0.3279
 5822TIP3    H138881   5.919   6.182  13.696  0.4468  0.3473 -0.4368
 5822TIP3    H238882   5.952   6.186  13.549 -0.8390 -0.4083 -0.7605
 5823TIP3   OH238883   1.630   1.440  16.466 -0.0471 -0.0520 -0.2312
 5823TIP3    H138884   1.600   1.350  16.483  1.2218 -0.1755  1.7175
 5823TIP3    H238885   1.634   1.447  16.371  1.6646 -2.7138 -0.4590
 5824TIP3   OH238886   4.755   4.967   3.888  0.3442 -0.0769 -0.2861
 5824TIP3    H138887   4.738   4.943   3.797 -0.4256 -0.5339 -0.0282
 5824TIP3    H238888   4.797   5.053   3.883 -1.9235  1.0634 -0.9833
 5825TIP3   OH238889   0.737   0.271   5.449 -0.7972 -0.1310 -0.4011
 5825TIP3    H138890   0.795   0.230   5.513 -1.3274  0.4984  0.5116
 5825TIP3    H238891   0.790   0.340   5.409 -1.0617  0.8863  0.9040
 5826TIP3   OH238892   4.978   2.591   5.373 -0.4501  0.7685  0.7697
 5826TIP3    H138893   4.948   2.668   5.325 -2.0367  0.4291  1.1680
 5826TIP3    H238894   5.074   2.598   5.372 -0.4835  1.4521 -1.2631
 5827TIP3   OH238895   6.466   0.042   3.898  0.4494 -0.3624  0.2437
 5827TIP3    H138896   6.444  -0.015   3.824 -0.7438 -0.5927  0.7661
 5827TIP3    H238897   6.477   0.129   3.858  0.3400 -0.5810 -0.2764
 5828TIP3   OH238898   2.195   6.544  12.712 -0.0521 -0.5029  0.6979
 5828TIP3    H138899   2.249   6.615  12.746  0.3399 -1.2294  1.6541
 5828TIP3    H238900   2.243   6.464  12.735 -1.5071 -1.1684  1.5893
 5829TIP3   OH238901   6.229   2.797   6.112 -0.2008 -0.3047  0.4039
 5829TIP3    H138902   6.224   2.850   6.192  0.7299  0.5563 -0.0885
 5829TIP3    H238903   6.322   2.776   6.103 -0.4016 -1.0173 -0.0537
 5830TIP3   OH238904   6.133   4.978   6.699 -0.3857 -0.1797 -0.1886
 5830TIP3    H138905   6.117   5.065   6.662 -3.1641  0.0973  1.3678
 5830TIP3    H238906   6.078   4.920   6.646 -2.2542 -0.1913  1.6580
 5831TIP3   OH238907   0.599   0.407   3.905  0.4106  1.2182 -0.5338
 5831TIP3    H138908   0.518   0.457   3.895 -0.5171 -0.2801 -0.8930
 5831TIP3    H238909   0.598   0.378   3.996 -0.3028 -0.1167 -0.9342
 5832TIP3   OH238910   0.604   5.947  12.435 -0.6676  0.0547  0.6730
 5832TIP3    H138911   0.600   5.875  12.372 -1.2134  0.0040  0.7603
 5832TIP3    H238912   0.530   6.003  12.411  0.4555  1.2425 -0.1776
 5833TIP3   OH238913   1.433   5.430   6.003 -0.3326  0.0772 -0.3533
 5833TIP3    H138914   1.478   5.429   5.918  1.1713 -0.5463  0.4041
 5833TIP3    H238915   1.503   5.421   6.067 -1.3781  1.1448  1.0070
 5834TIP3   OH238916   3.583   4.296   0.781  0.8717  0.4564  0.3267
 5834TIP3    H138917   3.515   4.273   0.845 -1.7794  2.3825 -1.5431
 5834TIP3    H238918   3.630   4.369   0.822  0.0391  0.8451  0.6245
 5835TIP3   OH238919   0.376   5.197   4.312  0.2123 -0.2174 -0.1824
 5835TIP3    H138920   0.449   5.173   4.368  1.0778  2.8943  0.2227
 5835TIP3    H238921   0.318   5.248   4.368 -1.6175 -1.4055 -0.8806
 5836TIP3   OH238922   5.145   0.003  13.596  0.7591  0.4062  0.5201
 5836TIP3    H138923   5.123  -0.078  13.550  2.3114  0.4079 -0.2717
 5836TIP3    H238924   5.080   0.008  13.667 -0.6055 -0.4781 -0.5995
 5837TIP3   OH238925   6.580   1.301   2.369 -0.9195 -0.0577  0.1586
 5837TIP3    H138926   6.504   1.356   2.390 -2.7880 -1.5497 -2.1251
 5837TIP3    H238927   6.638   1.358   2.319 -1.1509  0.7530  0.7943
 5838TIP3   OH238928   6.713   5.519  11.904  0.3071  0.3705 -0.0042
 5838TIP3    H138929   6.707   5.544  11.812  1.9986 -2.0750 -0.8906
 5838TIP3    H238930   6.796   5.556  11.934 -0.5560  1.7359  0.7919
 5839TIP3   OH238931   2.733   2.396   0.745 -0.0999  0.8117 -0.1196
 5839TIP3    H138932   2.744   2.348   0.663 -1.7713  1.3496 -0.7056
 5839TIP3    H238933   2.817   2.387   0.790  0.5221 -0.3239 -1.4418
 5840TIP3   OH238934   6.481   3.716   0.031  0.0530  0.0922  0.0039
 5840TIP3    H138935   6.573   3.734   0.051  0.9345 -0.1890 -3.1324
 5840TIP3    H238936   6.466   3.628   0.065  2.6750 -2.0575 -3.6097
 5841TIP3   OH238937   4.808   5.607  16.190 -0.0012  0.8862 -0.5703
 5841TIP3    H138938   4.884   5.619  16.133  0.3069  1.1473 -0.1074
 5841TIP3    H238939   4.844   5.605  16.278 -0.1336 -2.2359 -0.4643
 5842TIP3   OH238940   3.584   6.011   4.357  0.1249 -0.4320  0.4047
 5842TIP3    H138941   3.639   6.065   4.300 -0.4220  2.1306  2.1299
 5842TIP3    H238942   3.508   6.067   4.377 -0.6810 -1.9943  2.0239
 5843TIP3   OH238943   1.406   1.298   5.298  0.2223  0.5842  0.1765
 5843TIP3    H138944   1.392   1.219   5.350 -0.5696  1.1407  0.8296
 5843TIP3    H238945   1.466   1.351   5.350  1.1502  0.2183 -0.4898
 5844TIP3   OH238946   2.048   3.503  14.873 -0.8107  0.1344  0.0224
 5844TIP3    H138947   2.089   3.575  14.826 -0.4081  1.2144  1.9550
 5844TIP3    H238948   2.120   3.450  14.905 -1.0786 -0.4941 -0.3860
 5845TIP3   OH238949   1.590   0.506   2.128 -0.1692 -0.0975  0.0396
 5845TIP3    H138950   1.576   0.412   2.113 -2.5087  0.2076 -0.1912
 5845TIP3    H238951   1.607   0.513   2.222  0.0384 -0.7600  0.0539
 5846TIP3   OH238952   6.091   2.463   1.116 -0.4782  0.3110  0.3819
 5846TIP3    H138953   6.146   2.385   1.103 -2.6342 -1.1613 -0.5661
 5846TIP3    H238954   6.151   2.537   1.108  1.2885 -1.1857 -0.9003
 5847TIP3   OH238955   2.597   2.050   2.248  0.4170 -0.2366  0.1946
 5847TIP3    H138956   2.556   1.996   2.180  0.0366 -0.6964  0.7860
 5847TIP3    H238957   2.688   2.057   2.221  0.1906 -0.1105 -0.5610
 5848TIP3   OH238958   2.718   4.770   1.182  0.1286 -0.1930  0.6532
 5848TIP3    H138959   2.764   4.686   1.185 -0.2612 -0.4346 -0.0432
 5848TIP3    H238960   2.779   4.830   1.139 -0.8019 -0.9307 -1.8832
 5849TIP3   OH238961   4.034   4.086  13.151  0.1429  0.3218  0.0780
 5849TIP3    H138962   4.057   4.133  13.231  0.0209 -0.1853  0.4157
 5849TIP3    H238963   4.103   4.109  13.088 -0.3705  1.6039 -0.0305
 5850TIP3   OH238964   5.678   3.115   2.985  0.6055  0.0016  0.2652
 5850TIP3    H138965   5.761   3.105   2.939 -0.3715 -1.7257 -1.2258
 5850TIP3    H238966   5.611   3.102   2.918 -0.8803 -1.4924  1.9168
 5851TIP3   OH238967   4.437   1.623  14.666  0.2372  0.6749  0.1418
 5851TIP3    H138968   4.489   1.689  14.621 -0.2522  0.6448 -0.4884
 5851TIP3    H238969   4.490   1.597  14.741 -0.0582  2.6298  1.0891
 5852TIP3   OH238970   1.809   0.761   3.611 -0.4095 -0.0026 -0.6764
 5852TIP3    H138971   1.753   0.742   3.686  0.2079  1.2552  0.1438
 5852TIP3    H238972   1.860   0.682   3.598 -1.1668 -0.5590 -0.3554
 5853TIP3   OH238973   4.326   1.532  12.567  0.2335 -0.2516 -0.5430
 5853TIP3    H138974   4.326   1.468  12.495  1.0260  1.8919 -2.5997
 5853TIP3    H238975   4.411   1.575  12.560 -0.5480  1.5239  0.2880
 5854TIP3   OH238976   5.047   2.074  15.529 -0.0069 -0.4607  0.2432
 5854TIP3    H138977   5.016   2.140  15.590  0.2855 -0.9130  0.8963
 5854TIP3    H238978   4.978   2.008  15.528 -0.1063 -0.3522 -0.0779
 5855TIP3   OH238979   4.927   6.652  11.579  0.2111  0.0322 -0.4632
 5855TIP3    H138980   4.856   6.590  11.562  0.7124 -0.6158 -0.2347
 5855TIP3    H238981   5.005   6.598  11.589  0.6016  0.6726  0.0913
 5856TIP3   OH238982   0.833   3.218   1.703 -0.5007 -0.0235 -0.0772
 5856TIP3    H138983   0.819   3.268   1.783 -0.5685  0.6529 -0.5012
 5856TIP3    H238984   0.745   3.200   1.670 -0.4655  1.6102 -1.1478
 5857TIP3   OH238985   1.307   3.509  13.199  0.6484 -0.2453  0.3557
 5857TIP3    H138986   1.290   3.477  13.110 -1.8801  1.8181 -0.0447
 5857TIP3    H238987   1.377   3.573  13.188  0.0583  0.3132 -0.2608
 5858TIP3   OH238988   5.515   2.758   5.691  0.3027  0.0827 -0.3344
 5858TIP3    H138989   5.441   2.709   5.726 -0.8190 -0.0142 -2.6443
 5858TIP3    H238990   5.590   2.726   5.740 -0.9773 -0.7943  1.1702
 5859TIP3   OH238991   4.461   4.908  12.163  0.7544 -0.5531  0.1397
 5859TIP3    H138992   4.520   4.871  12.228  1.4892  1.3118  0.6062
 5859TIP3    H238993   4.416   4.979  12.209  1.3923  0.9030 -1.3794
 5860TIP3   OH238994   1.473   5.278   4.101  0.1414 -0.8758 -0.2143
 5860TIP3    H138995   1.438   5.257   4.188 -1.8185 -0.5337 -0.8667
 5860TIP3    H238996   1.471   5.194   4.054  0.5313 -0.9196 -0.1576
 5861TIP3   OH238997   3.937   5.896  13.881  0.0376  0.3381  0.4374
 5861TIP3    H138998   3.945   5.981  13.838 -1.6905  0.1251 -0.3887
 5861TIP3    H238999   3.966   5.912  13.971  2.4581  1.1035 -0.3986
 5862TIP3   OH239000   0.703   1.416  14.513  0.3120 -0.0710 -0.2823
 5862TIP3    H139001   0.773   1.448  14.570 -0.4444  0.5392  0.3390
 5862TIP3    H239002   0.636   1.384  14.574  0.4021 -1.4483 -0.8793
 5863TIP3   OH239003   6.458   4.351   6.654  0.0725 -0.6358 -0.2071
 5863TIP3    H139004   6.478   4.433   6.608  0.8232 -0.3463  0.6083
 5863TIP3    H239005   6.434   4.378   6.742  1.7762 -1.3590  0.5199
 5864TIP3   OH239006   2.957   3.619  12.421 -0.0557 -0.1363 -0.0325
 5864TIP3    H139007   2.888   3.674  12.458 -0.0494  1.0391 -1.6723
 5864TIP3    H239008   3.038   3.654  12.456 -0.1027  0.4627 -0.5104
 5865TIP3   OH239009   3.705   1.721   1.008 -0.2234 -0.0342  0.7081
 5865TIP3    H139010   3.698   1.810   1.044 -0.7030 -0.3833  1.5041
 5865TIP3    H239011   3.676   1.730   0.917 -0.3546  0.6059  0.8060
 5866TIP3   OH239012   0.377   5.689  11.080  0.3313  0.7342 -0.1010
 5866TIP3    H139013   0.409   5.621  11.139  0.3789  0.8412 -0.0037
 5866TIP3    H239014   0.346   5.642  11.003 -0.1394  0.5633  0.1919
 5867TIP3   OH239015   2.539   1.814  15.746  0.1645 -0.3332 -0.4984
 5867TIP3    H139016   2.631   1.812  15.722  0.5220  0.7824  0.6719
 5867TIP3    H239017   2.529   1.745  15.812  1.0281  1.7740  2.0284
 5868TIP3   OH239018   3.090   5.393  16.051  0.0561  0.2862 -0.1215
 5868TIP3    H139019   3.028   5.322  16.067 -2.6386  2.4314 -0.3416
 5868TIP3    H239020   3.172   5.348  16.028 -1.9396 -2.7639 -2.0530
 5869TIP3   OH239021   6.192   4.736  12.434 -0.1306 -0.5227  0.2124
 5869TIP3    H139022   6.183   4.823  12.474 -0.0233  0.0025 -0.8818
 5869TIP3    H239023   6.102   4.708  12.417 -0.1372  0.5991 -1.9606
 5870TIP3   OH239024   6.660   4.435  13.400  0.0852  0.5804  0.4213
 5870TIP3    H139025   6.678   4.485  13.321  0.2537 -0.0655  0.0480
 5870TIP3    H239026   6.584   4.478  13.439  0.8085  1.7235  0.6269
 5871TIP3   OH239027   3.260   1.799   0.695  0.0836  0.2580  0.3453
 5871TIP3    H139028   3.211   1.734   0.745  1.6034 -0.5418  0.8753
 5871TIP3    H239029   3.235   1.784   0.604 -0.5531 -0.1982  0.5898
 5872TIP3   OH239030   2.787   4.345   1.030  0.0443 -0.4188  0.2400
 5872TIP3    H139031   2.724   4.273   1.040 -0.2931 -0.3200 -1.0615
 5872TIP3    H239032   2.836   4.344   1.112 -0.8597 -1.2609  0.8010
 5873TIP3   OH239033   5.993   5.675  12.499  0.3212 -0.6609 -0.3315
 5873TIP3    H139034   5.929   5.637  12.439  0.8729 -0.4371 -1.0694
 5873TIP3    H239035   5.987   5.769  12.485  0.7704 -0.6343 -0.3774
 5874TIP3   OH239036   5.583   4.688   5.256  0.1903  0.4471 -0.1777
 5874TIP3    H139037   5.668   4.712   5.218 -0.2888  1.9170 -0.3846
 5874TIP3    H239038   5.589   4.715   5.347  0.7138 -1.4861  0.3929
 5875TIP3   OH239039   2.733   3.958  16.439  0.5311  0.0254 -0.2123
 5875TIP3    H139040   2.666   4.025  16.456  1.6304  0.4736  3.3304
 5875TIP3    H239041   2.807   4.007  16.403  0.0301  0.0400 -1.2440
 5876TIP3   OH239042   2.512   2.983  11.633 -1.0747 -0.5278 -0.1006
 5876TIP3    H139043   2.418   2.993  11.618 -1.1482  0.9866  1.1152
 5876TIP3    H239044   2.550   3.066  11.604 -0.0387 -1.2659 -0.9256
 5877TIP3   OH239045   4.930   0.977  14.384  0.4255 -0.4785  0.9002
 5877TIP3    H139046   4.979   0.993  14.464 -1.2672  1.6879  1.5939
 5877TIP3    H239047   4.857   0.921  14.410  1.1857 -1.7949  0.3262
 5878TIP3   OH239048   1.127   0.010  12.284  0.0954 -0.1242 -0.1851
 5878TIP3    H139049   1.096  -0.029  12.202  0.8136 -0.4793 -0.3007
 5878TIP3    H239050   1.048   0.025  12.336 -0.3054 -0.5044 -0.6843
 5879TIP3   OH239051   0.880   1.365  11.429 -0.3817  0.1607 -0.4313
 5879TIP3    H139052   0.904   1.350  11.337  2.1805 -2.1640  0.4947
 5879TIP3    H239053   0.933   1.440  11.456 -0.4656  0.2824 -0.6023
 5880TIP3   OH239054   5.752   6.029   4.398  0.2701 -0.5820 -0.3406
 5880TIP3    H139055   5.746   6.034   4.493  0.1847  0.0127 -0.3736
 5880TIP3    H239056   5.667   6.058   4.366 -0.6402 -3.2673 -0.5657
 5881TIP3   OH239057   6.545   0.900  16.648  0.6953 -0.0870  0.0149
 5881TIP3    H139058   6.567   0.992  16.635 -0.4795  0.2344  0.1316
 5881TIP3    H239059   6.493   0.899  16.729 -1.6316 -0.4090 -1.3720
 5882TIP3   OH239060   2.413   3.663  14.496  0.9028  0.0618 -0.6111
 5882TIP3    H139061   2.415   3.754  14.468 -0.2201 -0.3604 -2.2329
 5882TIP3    H239062   2.324   3.633  14.476  1.1533 -1.3219  0.1497
 5883TIP3   OH239063   3.975   3.221   1.816 -0.2975 -0.1944  0.3251
 5883TIP3    H139064   3.963   3.251   1.906 -0.3290  1.4816 -0.2049
 5883TIP3    H239065   4.049   3.160   1.821  1.4307  1.8476  1.1268
 5884TIP3   OH239066   4.259   5.984   2.135 -0.6637  0.6317 -0.6402
 5884TIP3    H139067   4.195   6.017   2.072 -1.0235 -1.0105 -1.1872
 5884TIP3    H239068   4.339   6.031   2.115 -1.5476  2.4424 -0.2090
 5885TIP3   OH239069   6.501   2.527   1.445 -0.1492 -0.0494 -0.5221
 5885TIP3    H139070   6.475   2.595   1.382  0.2312 -0.8559 -1.5781
 5885TIP3    H239071   6.593   2.512   1.426 -0.7263 -2.3829 -1.8074
 5886TIP3   OH239072   1.441   3.728  15.423  0.2409 -0.1773  0.6206
 5886TIP3    H139073   1.422   3.708  15.515  0.6059  0.0941  0.7625
 5886TIP3    H239074   1.364   3.698  15.375 -0.0770 -0.0626  1.0487
 5887TIP3   OH239075   5.568   5.076  14.211 -0.0222  0.2534  0.1954
 5887TIP3    H139076   5.626   5.073  14.287  0.2966  0.4987 -0.0347
 5887TIP3    H239077   5.545   4.984  14.195  1.4555 -0.0193 -0.5690
 5888TIP3   OH239078   6.062   3.206  11.844 -0.1994 -0.2797  0.9624
 5888TIP3    H139079   6.027   3.261  11.774 -0.0267  0.7808  1.6722
 5888TIP3    H239080   6.000   3.219  11.917 -0.4240 -1.4281  0.9859
 5889TIP3   OH239081   2.184   1.377   2.274  0.7491 -0.3268  0.5229
 5889TIP3    H139082   2.166   1.297   2.226  1.1728  0.1811 -0.5107
 5889TIP3    H239083   2.098   1.405   2.307  0.7393 -1.7539  1.8396
 5890TIP3   OH239084   0.632   4.681   1.753 -0.2068  0.1176 -0.4940
 5890TIP3    H139085   0.704   4.670   1.691  0.4563  0.9254  0.1151
 5890TIP3    H239086   0.568   4.734   1.706  0.1515  0.4556 -0.6078
 5891TIP3   OH239087   5.633   2.548   3.187 -0.5283 -0.1971 -0.3473
 5891TIP3    H139088   5.716   2.550   3.140 -0.2615 -0.3901  0.1144
 5891TIP3    H239089   5.603   2.457   3.180  0.8158 -0.9084  2.0928
 5892TIP3   OH239090   1.519   1.128   0.236  0.0441  0.2532  0.2319
 5892TIP3    H139091   1.494   1.196   0.299  1.8687  1.2095 -0.0132
 5892TIP3    H239092   1.560   1.061   0.289 -0.9537 -0.2707  0.3656
 5893TIP3   OH239093   3.924   4.451   5.358  0.0846 -0.0940  0.1363
 5893TIP3    H139094   3.879   4.378   5.400  2.3507 -2.6765 -1.5540
 5893TIP3    H239095   4.014   4.421   5.348  1.5325  3.5528  0.5601
 5894TIP3   OH239096   0.236   2.327  16.701 -0.5630 -0.1002 -0.5672
 5894TIP3    H139097   0.193   2.332  16.786 -0.1884 -0.5179 -0.3495
 5894TIP3    H239098   0.259   2.234  16.691 -0.5183 -0.0390 -1.0813
 5895TIP3   OH239099   1.251   2.358  15.104  0.0463 -0.0368  0.0522
 5895TIP3    H139100   1.172   2.379  15.154  1.7054  0.9351  2.4593
 5895TIP3    H239101   1.283   2.442  15.072  0.0149 -0.4441 -1.0872
 5896TIP3   OH239102   5.670   3.383   2.978 -0.9494 -0.2810 -0.3083
 5896TIP3    H139103   5.699   3.296   3.007 -1.0683  0.2741  1.5877
 5896TIP3    H239104   5.599   3.364   2.916 -2.1975 -1.5554  1.4131
 5897TIP3   OH239105   3.685   0.973   3.906  0.1441 -0.1837  0.1036
 5897TIP3    H139106   3.684   0.914   3.831 -0.4817 -0.9854  0.7287
 5897TIP3    H239107   3.601   0.959   3.950  0.1501  0.8827  0.4940
 5898TIP3   OH239108   3.985   1.431   5.517  0.1284 -0.4176 -0.1315
 5898TIP3    H139109   4.032   1.509   5.488  0.7204 -0.2285  1.2256
 5898TIP3    H239110   4.047   1.359   5.505  0.2722 -0.3817  0.3870
 5899TIP3   OH239111   6.615   3.378   1.142 -0.5327  0.2415 -0.8126
 5899TIP3    H139112   6.690   3.432   1.117 -0.7615  0.8154 -0.3078
 5899TIP3    H239113   6.554   3.440   1.182 -1.2720 -0.2192 -1.2072
 5900TIP3   OH239114   4.002   4.024  16.424  0.1548 -0.0286  0.0250
 5900TIP3    H139115   4.010   4.082  16.348  0.2525 -0.5068 -0.3347
 5900TIP3    H239116   4.090   4.020  16.460 -0.1570  1.3034  1.0022
 5901TIP3   OH239117   4.185   1.513   5.704  0.0042 -0.5300 -0.1032
 5901TIP3    H139118   4.160   1.455   5.776 -2.5922 -2.5059 -2.3893
 5901TIP3    H239119   4.119   1.497   5.636  1.6802  2.0066 -2.5463
 5902TIP3   OH239120   4.471   1.736  17.075  1.0609 -0.6359  0.0279
 5902TIP3    H139121   4.382   1.702  17.083  0.9440 -0.1801  0.7979
 5902TIP3    H239122   4.526   1.658  17.070  0.6454 -0.9219 -0.1565
 5903TIP3   OH239123   0.036   0.252   1.292 -0.1235 -0.5720  0.1485
 5903TIP3    H139124   0.012   0.342   1.268  0.7582 -0.3371  0.0922
 5903TIP3    H239125  -0.010   0.236   1.374 -1.0708 -0.4292 -0.3398
 5904TIP3   OH239126   0.144   0.361   5.378 -0.1453 -0.0084  0.6140
 5904TIP3    H139127   0.173   0.285   5.427 -0.0006 -1.2985 -1.3379
 5904TIP3    H239128   0.048   0.355   5.379 -0.2214  0.9487  2.1231
 5905TIP3   OH239129   2.882   1.063  13.351  0.3130 -0.0930 -0.5548
 5905TIP3    H139130   2.832   1.141  13.324 -1.9515 -1.7615 -1.5122
 5905TIP3    H239131   2.885   1.008  13.273 -0.6969 -2.2060  0.7943
 5906TIP3   OH239132   3.720   5.331   3.833  0.0732  0.0007  0.8495
 5906TIP3    H139133   3.750   5.242   3.813  0.2344  0.2611 -0.1159
 5906TIP3    H239134   3.798   5.385   3.825 -0.4515  0.5677 -0.9100
 5907TIP3   OH239135   4.917   1.716   6.575 -0.3218 -0.3932 -0.2049
 5907TIP3    H139136   5.006   1.748   6.593  0.6003 -2.0404 -1.4440
 5907TIP3    H239137   4.913   1.632   6.622 -1.6291  0.1625  0.7035
 5908TIP3   OH239138   6.135   4.188  14.738 -0.4383  0.5168 -0.8779
 5908TIP3    H139139   6.083   4.181  14.658  1.2143 -1.1423 -1.9108
 5908TIP3    H239140   6.081   4.147  14.805 -1.6247  1.4325 -1.2416
 5909TIP3   OH239141   6.764   4.803  11.657  0.1429 -0.4116 -0.0729
 5909TIP3    H139142   6.722   4.795  11.743  0.2833 -1.3704 -0.0820
 5909TIP3    H239143   6.820   4.726  11.650  1.8952  0.8038 -0.0893
 5910TIP3   OH239144   3.127   3.715  15.878  0.3755  0.3213  0.1489
 5910TIP3    H139145   3.140   3.663  15.799 -0.1638  0.7842 -0.2628
 5910TIP3    H239146   3.211   3.715  15.922  0.1825 -1.5572  0.5802
 5911TIP3   OH239147   4.350   4.700   1.568 -0.0200 -0.6151 -0.6054
 5911TIP3    H139148   4.332   4.709   1.661  0.1443  1.1288 -0.7097
 5911TIP3    H239149   4.433   4.651   1.564  0.6996  0.4820  0.2288
 5912TIP3   OH239150   2.823   3.206  16.261 -0.2100 -0.0558  0.3678
 5912TIP3    H139151   2.808   3.114  16.239  1.8470 -0.3079 -0.0983
 5912TIP3    H239152   2.795   3.214  16.352 -1.0301 -0.9595  0.2077
 5913TIP3   OH239153   6.426   1.957   1.538 -0.1777 -0.3253 -0.3220
 5913TIP3    H139154   6.429   2.051   1.516 -0.6946 -0.4325 -0.8748
 5913TIP3    H239155   6.517   1.928   1.528  0.0901  0.2265  0.3846
 5914TIP3   OH239156   1.222   4.343   0.598  0.3263 -0.7273 -0.1553
 5914TIP3    H139157   1.277   4.301   0.531 -0.9168 -3.2619  0.2843
 5914TIP3    H239158   1.142   4.366   0.551  0.3133 -0.4765 -0.0091
 5915TIP3   OH239159   4.721   3.375   0.819  0.2243  0.0625  0.0348
 5915TIP3    H139160   4.687   3.458   0.783 -0.3203 -1.1435 -2.4674
 5915TIP3    H239161   4.804   3.362   0.774 -0.5995 -1.6351 -1.0986
 5916TIP3   OH239162   5.490   6.708  16.126  0.3608  0.6670 -0.0943
 5916TIP3    H139163   5.505   6.776  16.060  1.5824 -0.2700 -0.8314
 5916TIP3    H239164   5.480   6.755  16.208  1.0367  1.7414 -0.6162
 5917TIP3   OH239165   6.684   4.364  15.142  0.1170  0.3743  0.0300
 5917TIP3    H139166   6.753   4.395  15.082 -0.8813  0.3842 -1.1400
 5917TIP3    H239167   6.602   4.387  15.098 -0.6606  1.1541  1.8112
 5918TIP3   OH239168   2.877   4.752  14.970  0.1516 -0.0087  0.2433
 5918TIP3    H139169   2.948   4.750  15.034 -0.0069  0.5881  0.4480
 5918TIP3    H239170   2.921   4.741  14.885  0.4040 -0.3958  0.4253
 5919TIP3   OH239171   1.105   2.868   5.974  0.0420 -0.0780  0.7543
 5919TIP3    H139172   1.030   2.926   5.989  0.3531  0.2093  1.2294
 5919TIP3    H239173   1.074   2.806   5.909  0.0824  1.3440 -0.6993
 5920TIP3   OH239174   2.400   0.513  13.281  0.0077 -0.7954  0.0434
 5920TIP3    H139175   2.442   0.598  13.292 -0.2551 -0.5692 -0.6478
 5920TIP3    H239176   2.307   0.533  13.272 -0.1008 -1.1893  0.2502
 5921TIP3   OH239177   4.373   5.340  15.506  0.0792 -0.2509  0.1054
 5921TIP3    H139178   4.374   5.259  15.455  1.9325  0.9424 -1.9704
 5921TIP3    H239179   4.350   5.408  15.442  0.5705  1.0825  1.2930
 5922TIP3   OH239180   5.268   1.581  13.641 -0.7979  0.0783 -0.5922
 5922TIP3    H139181   5.236   1.519  13.576 -0.2834 -2.0278  1.0384
 5922TIP3    H239182   5.188   1.620  13.678 -1.2821 -1.2090 -0.2121
 5923TIP3   OH239183   5.954   3.717   2.766  0.2601  0.1249 -0.1304
 5923TIP3    H139184   5.981   3.802   2.728  0.1081  0.3631  0.2915
 5923TIP3    H239185   5.862   3.708   2.740  0.1591  0.2831  0.1629
 5924TIP3   OH239186   4.259   4.384   4.441  0.0515 -0.1657  0.4558
 5924TIP3    H139187   4.215   4.425   4.516  0.5662  0.9128  0.1932
 5924TIP3    H239188   4.339   4.435   4.430  0.0719 -0.4282 -0.7079
 5925TIP3   OH239189   5.933   3.158   4.948  0.5271  0.2762  0.2193
 5925TIP3    H139190   6.021   3.187   4.971  0.5497  0.8999 -0.6215
 5925TIP3    H239191   5.926   3.070   4.987  1.4442  0.3011  0.4625
 5926TIP3   OH239192   6.287   0.900  17.068  0.0440  0.1069  0.0147
 5926TIP3    H139193   6.278   0.834  17.000 -0.9427 -0.3879  0.6135
 5926TIP3    H239194   6.351   0.962  17.033  3.3909 -2.6624  0.6110
 5927TIP3   OH239195   4.810   0.541   3.902 -0.1035  0.3896 -0.9042
 5927TIP3    H139196   4.836   0.512   3.814  2.1539  0.5191 -0.3413
 5927TIP3    H239197   4.891   0.535   3.954 -1.0387  1.7041  0.8026
 5928TIP3   OH239198   2.543   1.344  12.311  0.6861  0.6283 -0.3079
 5928TIP3    H139199   2.577   1.278  12.371 -0.6709  0.7031  0.5712
 5928TIP3    H239200   2.591   1.424  12.332  0.9700  0.3939 -0.0651
 5929TIP3   OH239201   2.085   2.146  13.096 -0.7011 -0.1583  0.8171
 5929TIP3    H139202   2.168   2.191  13.082 -0.9798  0.0928 -0.0804
 5929TIP3    H239203   2.091   2.112  13.186 -0.3016  1.2428  1.3467
 5930TIP3   OH239204   0.881   1.516   2.439 -0.6220 -0.4532 -0.3284
 5930TIP3    H139205   0.838   1.478   2.515 -0.3324 -0.3245 -0.0973
 5930TIP3    H239206   0.814   1.569   2.397 -0.3032  0.9891  0.8928
 5931TIP3   OH239207   3.074   5.300   5.073 -0.0671 -0.1005  0.5052
 5931TIP3    H139208   3.105   5.336   5.156 -0.6422 -1.7496  1.4798
 5931TIP3    H239209   3.029   5.373   5.031 -0.6557  0.5165  2.1163
 5932TIP3   OH239210   3.808   5.644   1.234 -0.1888  0.1841 -0.1104
 5932TIP3    H139211   3.873   5.593   1.186 -0.1279  1.1969 -1.1469
 5932TIP3    H239212   3.792   5.593   1.313  2.1540  0.0764  0.3858
 5933TIP3   OH239213   6.009   5.547   3.998  0.1096  0.1377 -0.2820
 5933TIP3    H139214   6.056   5.630   4.000 -0.7229  0.6943 -2.0452
 5933TIP3    H239215   6.026   5.508   4.084  0.1301  2.3286  0.7698
 5934TIP3   OH239216   2.013   3.715  16.684 -0.1317  0.4317  0.3545
 5934TIP3    H139217   2.069   3.654  16.635  2.1605  1.5775  1.3582
 5934TIP3    H239218   2.041   3.801  16.653 -0.3387  1.0815  1.9137
 5935TIP3   OH239219   0.074   5.942  11.565  0.1501 -0.7235 -0.5944
 5935TIP3    H139220   0.151   5.899  11.529  0.4828 -0.7006  0.0689
 5935TIP3    H239221   0.109   6.009  11.624 -0.3724 -0.5250 -0.5050
 5936TIP3   OH239222   2.673   0.208  12.091  0.1752  0.0215 -0.0339
 5936TIP3    H139223   2.678   0.204  12.187  0.1858 -0.4918 -0.0511
 5936TIP3    H239224   2.749   0.158  12.061 -0.0009 -0.0809 -0.3098
 5937TIP3   OH239225   1.151   0.481   1.054  0.0222  0.4553 -0.0509
 5937TIP3    H139226   1.200   0.449   1.130 -0.5828  0.5744  0.4051
 5937TIP3    H239227   1.204   0.553   1.020  0.5063  0.1286  0.0018
 5938TIP3   OH239228   3.126   4.911   2.726  0.0240 -0.0217  0.5132
 5938TIP3    H139229   3.036   4.938   2.742 -0.5971 -1.6111 -0.0926
 5938TIP3    H239230   3.172   4.992   2.703 -1.3646  0.7330  0.3295
 5939TIP3   OH239231   5.286   4.022  16.519  0.1618  0.3453  0.0238
 5939TIP3    H139232   5.334   4.088  16.569  0.8078 -0.0660 -0.0456
 5939TIP3    H239233   5.341   4.005  16.443  0.9072 -1.5806  0.9324
 5940TIP3   OH239234   1.631   0.641   5.052  0.2614 -0.2844  0.2243
 5940TIP3    H139235   1.636   0.720   5.106  0.0255 -0.6101  0.7291
 5940TIP3    H239236   1.590   0.670   4.970 -0.6882 -0.0639  0.7641
 5941TIP3   OH239237   3.703   0.519   4.730  0.3829  0.0657 -0.5993
 5941TIP3    H139238   3.674   0.608   4.748  1.4960  0.1177  1.1990
 5941TIP3    H239239   3.790   0.514   4.771 -1.2743 -3.0381  3.0886
 5942TIP3   OH239240   5.989   1.097   4.773 -0.2534  0.3137 -0.1824
 5942TIP3    H139241   6.073   1.140   4.790  1.3169 -1.9860 -1.6402
 5942TIP3    H239242   5.963   1.130   4.686  0.2745 -0.6115 -0.7023
 5943TIP3   OH239243   2.612   1.668  11.567  0.4670 -0.8151 -0.5358
 5943TIP3    H139244   2.565   1.695  11.488 -0.9485  0.2848  0.6353
 5943TIP3    H239245   2.640   1.578  11.548 -0.0300 -0.6685 -2.1861
 5944TIP3   OH239246   1.770   6.604  12.232 -0.6257  0.4512 -0.2906
 5944TIP3    H139247   1.784   6.511  12.249  0.3668  0.4502 -1.0162
 5944TIP3    H239248   1.851   6.633  12.189 -0.7119  1.7783  0.4116
 5945TIP3   OH239249   6.102   0.191   4.466 -0.6565 -0.6781  0.0791
 5945TIP3    H139250   6.050   0.168   4.389  0.5523 -0.5605 -0.8048
 5945TIP3    H239251   6.037   0.211   4.533 -1.7464 -1.0762 -0.8136
 5946TIP3   OH239252   3.043   0.207   1.894 -0.3764  0.1970 -0.2453
 5946TIP3    H139253   3.137   0.220   1.900 -0.5125  0.7091  1.5114
 5946TIP3    H239254   3.015   0.263   1.822  0.6935 -0.2137 -0.9925
 5947TIP3   OH239255   3.665   1.203  16.185 -0.1814 -0.2498 -0.1881
 5947TIP3    H139256   3.754   1.170  16.199  0.1102 -0.4517 -2.2128
 5947TIP3    H239257   3.636   1.161  16.104 -1.1034  1.7755 -0.9920
 5948TIP3   OH239258   1.757   0.821   0.163 -0.3387 -0.0891  0.2463
 5948TIP3    H139259   1.724   0.911   0.159 -1.8284 -0.6428 -0.4498
 5948TIP3    H239260   1.714   0.783   0.240  1.9081  0.3719  1.8249
 5949TIP3   OH239261   1.969   6.143   0.773  0.1495 -0.0061 -0.2206
 5949TIP3    H139262   1.929   6.094   0.845  0.8193 -0.3749 -0.0886
 5949TIP3    H239263   1.917   6.119   0.696 -0.2817  0.0244  0.0579
 5950TIP3   OH239264   1.249   3.037  11.169 -0.0077 -0.1532 -0.3278
 5950TIP3    H139265   1.170   3.075  11.130  0.2971 -0.7733 -1.5974
 5950TIP3    H239266   1.226   2.947  11.188  0.5379 -0.5013 -1.2264
 5951TIP3   OH239267   5.842   0.135  12.889 -0.6828  0.5209  0.5873
 5951TIP3    H139268   5.871   0.221  12.922  0.7813  0.7644 -1.1461
 5951TIP3    H239269   5.924   0.088  12.873 -1.4721 -1.5132  2.1545
 5952TIP3   OH239270   4.746   4.663  16.354 -0.2049  0.1322 -0.2114
 5952TIP3    H139271   4.821   4.662  16.295 -0.0215 -1.4024 -0.0065
 5952TIP3    H239272   4.783   4.645  16.440 -0.9321 -2.4300 -0.3531
 5953TIP3   OH239273   5.917   5.701  14.470  0.4065  0.1638  0.1571
 5953TIP3    H139274   5.847   5.678  14.531 -0.6780  0.2856 -1.0019
 5953TIP3    H239275   5.986   5.738  14.525  0.1361 -1.1993  1.4818
 5954TIP3   OH239276   3.520   4.509   3.262  0.0607 -0.3618 -0.2648
 5954TIP3    H139277   3.515   4.565   3.340 -1.3982  0.5881 -0.9980
 5954TIP3    H239278   3.495   4.422   3.293  0.0028 -0.1054  0.4272
 5955TIP3   OH239279   5.406   2.809   4.478 -0.5579  0.4636  0.1860
 5955TIP3    H139280   5.322   2.804   4.524  0.4779 -1.0923  2.0480
 5955TIP3    H239281   5.470   2.829   4.546  1.0300 -1.8101 -0.5277
 5956TIP3   OH239282   6.387   2.305   5.508  0.1740  0.5314  0.3239
 5956TIP3    H139283   6.350   2.272   5.426  0.0790 -0.5528  0.7850
 5956TIP3    H239284   6.347   2.391   5.519 -1.2301 -0.0698  0.1430
 5957TIP3   OH239285   5.608   3.006  15.765 -0.5502  0.8402  0.2254
 5957TIP3    H139286   5.651   3.012  15.680 -0.3784  0.1932  0.2549
 5957TIP3    H239287   5.637   2.921  15.799 -3.3860 -0.5845 -0.6249
 5958TIP3   OH239288   0.759   5.818   2.009 -0.7561 -0.2455 -0.1849
 5958TIP3    H139289   0.851   5.830   2.034 -1.2312  0.5957  1.2500
 5958TIP3    H239290   0.756   5.731   1.969  0.8486  0.1322 -1.2364
 5959TIP3   OH239291   6.223   5.046   5.325 -0.4355 -0.6199 -0.3690
 5959TIP3    H139292   6.235   5.002   5.409 -0.1614  0.8795  0.4115
 5959TIP3    H239293   6.153   5.109   5.340 -0.8165 -0.7609 -1.4454
 5960TIP3   OH239294   6.578   3.402  12.520 -0.1479  0.4227 -0.0596
 5960TIP3    H139295   6.596   3.330  12.580 -1.0171  0.7828  0.6585
 5960TIP3    H239296   6.645   3.394  12.452  0.4259 -0.4116  0.5811
 5961TIP3   OH239297   6.274   6.703  16.578  0.2289  0.0961  0.3201
 5961TIP3    H139298   6.345   6.682  16.517  0.6547  1.0646  0.4670
 5961TIP3    H239299   6.293   6.792  16.607  0.3253 -0.5105  2.2597
 5962TIP3   OH239300   0.625   6.719  13.194  0.3190  0.1415  0.3925
 5962TIP3    H139301   0.600   6.782  13.127  0.4016  0.0093  0.2346
 5962TIP3    H239302   0.595   6.635  13.160  2.1813 -0.2331 -0.4734
 5963TIP3   OH239303   4.048   1.820   4.509 -0.2780 -0.0338  0.1670
 5963TIP3    H139304   4.011   1.756   4.570  0.2643 -0.5625 -0.0505
 5963TIP3    H239305   4.132   1.844   4.549 -0.4306  0.4671  0.1920
 5964TIP3   OH239306   5.093   1.814  12.861 -0.4431  0.2277 -0.4296
 5964TIP3    H139307   5.070   1.770  12.942 -1.1290 -0.8887 -1.2118
 5964TIP3    H239308   5.098   1.744  12.795  2.0464  0.8122 -0.9843
 5965TIP3   OH239309   3.444   2.470  16.504  0.1487 -0.1786 -0.3393
 5965TIP3    H139310   3.509   2.400  16.496 -0.0008 -0.3495 -0.0496
 5965TIP3    H239311   3.360   2.425  16.513  0.1429  0.0089  0.7573
 5966TIP3   OH239312   3.029   6.221  13.646 -0.3644 -0.1867  1.0222
 5966TIP3    H139313   3.021   6.315  13.626  0.2741 -0.3250  0.0670
 5966TIP3    H239314   3.091   6.217  13.718  1.5949 -0.0063 -0.5710
 5967TIP3   OH239315   4.166   0.359   0.158 -0.5216  0.1876  0.1017
 5967TIP3    H139316   4.154   0.449   0.129 -1.0264  0.1754  0.2502
 5967TIP3    H239317   4.228   0.321   0.096  1.3671  1.2293  1.2421
 5968TIP3   OH239318   3.029   5.619  15.952 -0.2042  0.3216 -0.0896
 5968TIP3    H139319   3.040   5.536  15.998 -0.1562 -0.2125 -1.0469
 5968TIP3    H239320   3.044   5.686  16.020  0.2036 -0.4365  0.5868
 5969TIP3   OH239321   0.372   3.108   5.631 -0.3738  0.3941  0.0806
 5969TIP3    H139322   0.299   3.067   5.679 -2.5776 -0.0416 -3.2372
 5969TIP3    H239323   0.346   3.200   5.622  0.5413  0.7100  0.6428
 5970TIP3   OH239324   3.380   6.579   5.061  0.0481  0.0171 -0.0821
 5970TIP3    H139325   3.312   6.584   5.129 -0.2078 -1.1061 -0.2246
 5970TIP3    H239326   3.460   6.609   5.105 -0.0584 -0.9564  0.8200
 5971TIP3   OH239327   5.927   3.860  15.194  0.1859  0.0237  1.1547
 5971TIP3    H139328   5.984   3.785  15.178 -0.0184 -0.4675  2.6102
 5971TIP3    H239329   5.988   3.933  15.210  0.3863  0.2609 -0.4917
 5972TIP3   OH239330   0.718   6.673   1.211  0.5118 -0.0835  0.6957
 5972TIP3    H139331   0.631   6.707   1.189  0.6426  0.6508  1.3047
 5972TIP3    H239332   0.766   6.748   1.244  2.1681  0.0591 -1.7500
 5973TIP3   OH239333   2.626   1.180   1.244  0.2347 -0.0791 -0.1808
 5973TIP3    H139334   2.668   1.113   1.190 -0.9816 -1.8351  0.9386
 5973TIP3    H239335   2.680   1.184   1.323  0.3312  0.2988 -0.2649
 5974TIP3   OH239336   4.515   3.528  13.909  0.3475 -0.1151 -0.1996
 5974TIP3    H139337   4.432   3.481  13.899  1.5070 -2.6049  0.8539
 5974TIP3    H239338   4.507   3.576  13.991  0.0360 -0.5499  0.0275
 5975TIP3   OH239339   0.180   1.572  15.838  0.0172 -0.1923  0.0283
 5975TIP3    H139340   0.105   1.559  15.895  2.1763  0.1576  3.2603
 5975TIP3    H239341   0.215   1.484  15.823 -0.9734 -0.3645 -1.5473
 5976TIP3   OH239342   4.742   3.919  16.462 -0.4557  0.0609 -1.2049
 5976TIP3    H139343   4.702   3.836  16.435 -0.7211  0.0612 -0.8209
 5976TIP3    H239344   4.832   3.914  16.428 -0.5369 -0.2864 -1.3787
 5977TIP3   OH239345   4.687   2.787  11.386 -0.1894 -0.0408 -0.5424
 5977TIP3    H139346   4.674   2.758  11.477 -0.0788  3.5043  0.7631
 5977TIP3    H239347   4.780   2.809  11.382  0.2199 -1.7770 -2.1575
 5978TIP3   OH239348   2.932   4.194   6.271 -0.3308 -0.1426 -0.2349
 5978TIP3    H139349   2.881   4.154   6.201 -0.4691 -0.0111 -0.2104
 5978TIP3    H239350   2.930   4.130   6.342 -1.2417  0.2528  0.1059
 5979TIP3   OH239351   6.577   2.287  12.898 -0.0860  0.3169 -0.0827
 5979TIP3    H139352   6.508   2.280  12.832 -1.4032  1.2540  1.1348
 5979TIP3    H239353   6.558   2.217  12.960 -0.6367  1.2561  0.8434
 5980TIP3   OH239354   0.451   3.663  15.595  0.1535 -0.1808  0.0874
 5980TIP3    H139355   0.381   3.640  15.533  0.2887 -1.2806  0.3155
 5980TIP3    H239356   0.446   3.596  15.663  0.9415  0.1720  0.5097
 5981TIP3   OH239357   3.114   2.423  12.828  0.4436  0.3525 -0.3944
 5981TIP3    H139358   3.157   2.426  12.914 -0.0952  0.2547 -0.1142
 5981TIP3    H239359   3.129   2.334  12.797  0.2522  0.2465 -0.1915
 5982TIP3   OH239360   4.361   5.295  12.616 -0.2282  0.1531 -0.3891
 5982TIP3    H139361   4.409   5.213  12.599  0.7373  0.5897  0.1498
 5982TIP3    H239362   4.397   5.357  12.553 -1.5235 -0.0130 -1.3408
 5983TIP3   OH239363   3.584   2.846   3.289 -0.4054  0.1265  0.0644
 5983TIP3    H139364   3.648   2.777   3.270 -1.0535 -0.3303 -0.5012
 5983TIP3    H239365   3.600   2.912   3.222 -0.0296  0.3535  0.3793
 5984TIP3   OH239366   6.533   2.286   3.541  0.2436  0.0895  0.4904
 5984TIP3    H139367   6.440   2.265   3.543  0.4767 -1.1990 -0.6459
 5984TIP3    H239368   6.576   2.209   3.580  0.8474  0.6048  0.8670
 5985TIP3   OH239369   5.611   0.593   0.536  0.3097 -0.5166  0.8425
 5985TIP3    H139370   5.647   0.512   0.500  0.8091 -1.1927  2.7590
 5985TIP3    H239371   5.516   0.583   0.530  0.3609 -0.3461 -0.7575
 5986TIP3   OH239372   4.266   5.330  17.095  0.3136  0.1279 -0.0378
 5986TIP3    H139373   4.182   5.292  17.117 -0.5345  2.1980  0.5247
 5986TIP3    H239374   4.251   5.377  17.013  0.3987  1.9948  0.9641
 5987TIP3   OH239375   0.727   5.047   1.540  0.6466 -0.8123 -0.4353
 5987TIP3    H139376   0.792   5.010   1.481  0.8515  0.8203 -1.2802
 5987TIP3    H239377   0.696   5.126   1.496 -0.2799 -0.3454  0.9700
 5988TIP3   OH239378   5.337   6.037   0.699 -0.3719 -0.1544 -0.4035
 5988TIP3    H139379   5.423   6.070   0.675 -1.3013  1.9872 -1.0145
 5988TIP3    H239380   5.341   6.027   0.794  0.9883 -1.5687 -0.5613
 5989TIP3   OH239381   3.466   0.115   3.229  0.1065  0.7979 -0.2173
 5989TIP3    H139382   3.546   0.129   3.281  0.4799  0.1347 -0.5978
 5989TIP3    H239383   3.480   0.166   3.149  0.0894  0.7933 -0.2231
 5990TIP3   OH239384   0.845   4.416   4.065  0.3426 -0.2232 -0.6573
 5990TIP3    H139385   0.842   4.430   3.970 -0.3639 -1.0760 -0.7764
 5990TIP3    H239386   0.840   4.321   4.075 -3.4802 -0.0817  0.3254
 5991TIP3   OH239387   6.083   5.562   3.353  0.1880  0.3568 -0.3986
 5991TIP3    H139388   6.097   5.642   3.303  2.5373  1.0853  1.2313
 5991TIP3    H239389   6.112   5.492   3.295 -1.7073  0.6345 -1.7702
 5992TIP3   OH239390   5.462   1.909   2.867 -0.3090 -0.0007  0.0687
 5992TIP3    H139391   5.472   1.845   2.797  0.9233  0.9664 -0.6690
 5992TIP3    H239392   5.408   1.864   2.932 -2.8141 -0.4444 -2.0943
 5993TIP3   OH239393   5.491   5.604   3.536  0.3375 -0.2379 -0.0141
 5993TIP3    H139394   5.527   5.692   3.547 -0.9559  0.3321 -0.1559
 5993TIP3    H239395   5.489   5.568   3.625  1.3311 -0.3280 -0.0179
 5994TIP3   OH239396   2.930   0.890   6.539 -0.7411  0.3941  0.0344
 5994TIP3    H139397   2.835   0.894   6.556 -0.8764 -0.1975 -0.5333
 5994TIP3    H239398   2.937   0.859   6.449 -0.0106 -2.5545  0.9628
 5995TIP3   OH239399   4.309   0.339   4.176 -0.3660 -0.2986 -0.7096
 5995TIP3    H139400   4.270   0.269   4.124 -1.9224  0.4026 -0.5356
 5995TIP3    H239401   4.240   0.365   4.238  1.5812 -1.4708  2.1656
 5996TIP3   OH239402   2.331   1.484   3.238 -0.0020 -0.4134 -0.1619
 5996TIP3    H139403   2.328   1.564   3.291  1.0985 -1.5936  1.8181
 5996TIP3    H239404   2.248   1.440   3.257 -0.3892  0.0101 -0.8553
 5997TIP3   OH239405   0.523   5.850   4.015  0.1234 -0.1576  0.2454
 5997TIP3    H139406   0.581   5.920   4.043  0.9006 -0.4917 -0.4875
 5997TIP3    H239407   0.439   5.869   4.057  0.3917  1.0662  0.2439
 5998TIP3   OH239408   2.983   3.173  15.385  0.0160 -0.6858 -0.3798
 5998TIP3    H139409   2.924   3.109  15.346 -0.3929 -0.6229  0.1204
 5998TIP3    H239410   3.041   3.199  15.313 -0.7867 -0.4885 -0.9695
 5999TIP3   OH239411   0.192   2.778  13.858  0.4477 -0.2465 -0.6094
 5999TIP3    H139412   0.160   2.806  13.773 -1.0684 -1.5351 -0.5060
 5999TIP3    H239413   0.192   2.858  13.911  0.5850  0.3981 -1.5536
 6000TIP3   OH239414   4.717   2.265   3.030  0.2730 -0.0665  0.2786
 6000TIP3    H139415   4.805   2.236   3.006  1.1270  1.9850  0.7792
 6000TIP3    H239416   4.719   2.274   3.125 -0.7939 -0.8609  0.4042
 6001TIP3   OH239417   4.082   1.051   1.795  0.6554 -0.3301 -0.7994
 6001TIP3    H139418   4.177   1.045   1.802  0.6849 -1.3579 -1.6910
 6001TIP3    H239419   4.060   0.994   1.720 -0.6554 -0.1318 -0.5932
 6002TIP3   OH239420   2.463   4.065  11.178  0.7509  0.1737 -0.5274
 6002TIP3    H139421   2.485   4.120  11.253 -1.6867 -1.6152  1.7079
 6002TIP3    H239422   2.519   3.988  11.188  1.5847  0.6142 -1.5683
 6003TIP3   OH239423   6.174   4.213  12.144  0.1898 -0.3051  0.2701
 6003TIP3    H139424   6.184   4.122  12.119 -0.2492 -0.6901  1.4562
 6003TIP3    H239425   6.241   4.259  12.092  0.1231 -1.2159 -0.6668
 6004TIP3   OH239426   1.943   1.179   1.020 -0.0040  0.4316 -0.0286
 6004TIP3    H139427   1.980   1.144   0.939 -0.5064 -1.8726  0.6816
 6004TIP3    H239428   2.004   1.247   1.047  2.2702 -1.3994 -0.3177
 6005TIP3   OH239429   6.620   1.337  14.442 -1.0976 -0.3008 -0.8449
 6005TIP3    H139430   6.641   1.246  14.466 -2.6698 -0.4295  0.2128
 6005TIP3    H239431   6.538   1.355  14.489 -0.5261  1.8532 -0.5983
 6006TIP3   OH239432   3.722   3.053   5.878  0.3840  0.2743  0.0706
 6006TIP3    H139433   3.668   3.122   5.915  2.7026  2.5810 -0.5342
 6006TIP3    H239434   3.791   3.040   5.943  0.0655 -1.4257  0.1091
 6007TIP3   OH239435   3.567   0.728  16.489  0.0854  0.3014  0.2529
 6007TIP3    H139436   3.648   0.732  16.439  0.3350 -0.4267  0.6002
 6007TIP3    H239437   3.571   0.646  16.537 -0.2039  0.9214  1.3839
 6008TIP3   OH239438   4.526   3.543   6.364  0.4762  0.2200 -0.1480
 6008TIP3    H139439   4.464   3.584   6.303 -0.2373 -1.1647 -0.3862
 6008TIP3    H239440   4.542   3.456   6.328  0.8118 -0.2687  1.1263
 6009TIP3   OH239441   4.599   1.988  12.507  0.8630  0.2882  0.3669
 6009TIP3    H139442   4.693   1.970  12.511  0.6349 -1.4480 -0.8480
 6009TIP3    H239443   4.569   1.942  12.429 -0.8965  1.4009  0.3251
 6010TIP3   OH239444   5.236   2.382  16.736  0.3413 -0.7273 -0.0750
 6010TIP3    H139445   5.235   2.288  16.756  0.8720 -0.5102  1.0915
 6010TIP3    H239446   5.327   2.400  16.713  0.6276 -0.2192  1.3219
 6011TIP3   OH239447   3.785   6.610   4.403 -0.2516 -0.3424  0.0269
 6011TIP3    H139448   3.761   6.693   4.361 -0.4256  0.9089  2.4171
 6011TIP3    H239449   3.860   6.579   4.352  0.3728  1.7295 -0.4313
 6012TIP3   OH239450   6.123   1.055   5.205 -0.0502 -0.7022  0.3886
 6012TIP3    H139451   6.179   1.127   5.236  0.7508 -0.6552 -1.1160
 6012TIP3    H239452   6.166   1.022   5.127 -1.6258 -1.3087 -0.2738
 6013TIP3   OH239453   5.062   4.653  16.834  0.2159  0.1359 -0.5869
 6013TIP3    H139454   4.967   4.642  16.837  0.1697  0.1400 -1.6963
 6013TIP3    H239455   5.094   4.613  16.915 -0.9570  2.6318  1.2456
 6014TIP3   OH239456   1.620   0.990   0.456 -0.2955 -0.1761 -0.1446
 6014TIP3    H139457   1.659   0.903   0.457  0.3545 -0.0539  3.9765
 6014TIP3    H239458   1.692   1.049   0.437 -0.1430 -0.3647 -0.1540
 6015TIP3   OH239459   3.166   6.015   5.824 -0.5670 -0.1104 -0.0371
 6015TIP3    H139460   3.233   6.079   5.797 -1.1961  0.8977  0.7222
 6015TIP3    H239461   3.102   6.016   5.753 -0.3183 -0.3014 -0.2706
 6016TIP3   OH239462   5.559   0.683  13.626 -0.5046 -0.6694  0.3117
 6016TIP3    H139463   5.629   0.720  13.680  1.0560 -1.2804 -1.2378
 6016TIP3    H239464   5.557   0.590  13.649  0.2566 -0.9583 -0.7523
 6017TIP3   OH239465   6.663   4.621   1.691  0.4384  0.0137 -0.2760
 6017TIP3    H139466   6.654   4.670   1.772  0.5136  0.1111 -0.3266
 6017TIP3    H239467   6.608   4.544   1.703  0.5538 -0.0390 -0.0800
 6018TIP3   OH239468   2.744   1.417  11.406 -0.0879 -0.2798 -0.0214
 6018TIP3    H139469   2.829   1.436  11.368 -0.3380 -0.0449 -0.4652
 6018TIP3    H239470   2.728   1.325  11.386 -0.4432 -0.0290 -0.9356
 6019TIP3   OH239471   5.716   3.802   3.457  0.4516  0.4342 -0.2115
 6019TIP3    H139472   5.805   3.780   3.430  0.7295  1.6591 -0.3842
 6019TIP3    H239473   5.684   3.724   3.502  1.7965  0.1514  0.3091
 6020TIP3   OH239474   6.741   6.167  15.315 -0.4233 -0.5466 -0.5060
 6020TIP3    H139475   6.798   6.220  15.371 -0.1653 -0.4809 -0.8298
 6020TIP3    H239476   6.653   6.190  15.343 -0.3178  0.2147 -0.7889
 6021TIP3   OH239477   1.070   6.552  12.085 -0.8038 -0.5168 -0.1954
 6021TIP3    H139478   1.047   6.470  12.041 -1.5796  0.4334 -1.6355
 6021TIP3    H239479   1.142   6.588  12.034  1.0692 -1.3074  1.7182
 6022TIP3   OH239480   1.531   6.096   5.130  0.2268 -0.5152  0.0404
 6022TIP3    H139481   1.489   6.136   5.054  0.5021 -1.1108 -0.4313
 6022TIP3    H239482   1.473   6.024   5.155  0.2251 -0.4286  0.2858
 6023TIP3   OH239483   1.203   5.484   6.580  0.4539  0.1256  0.1301
 6023TIP3    H139484   1.201   5.570   6.623 -1.1131 -0.5522  1.5251
 6023TIP3    H239485   1.135   5.489   6.514  1.2079  0.3427 -0.6506
 6024TIP3   OH239486   6.445   5.048  13.297  0.0822 -0.0062  0.4676
 6024TIP3    H139487   6.370   5.086  13.341  1.1396  3.4841 -0.4011
 6024TIP3    H239488   6.425   5.056  13.203  1.4376  0.9280  0.2181
 6025TIP3   OH239489   5.930   0.050  16.944 -0.3606 -0.0569 -0.8358
 6025TIP3    H139490   5.939  -0.033  16.897 -1.5662 -1.6729  1.5888
 6025TIP3    H239491   5.856   0.037  17.003  0.1908  2.3125  0.5498
 6026TIP3   OH239492   6.027   0.995   1.424 -0.5713  0.1911  0.0416
 6026TIP3    H139493   6.004   0.905   1.446 -0.0129 -0.3153 -1.3067
 6026TIP3    H239494   6.099   1.016   1.483 -1.0780 -0.0373  0.7513
 6027TIP3   OH239495   3.710   3.862   1.566 -0.5738 -0.3163  0.0833
 6027TIP3    H139496   3.751   3.796   1.510 -2.1527 -1.2716 -0.0232
 6027TIP3    H239497   3.710   3.942   1.513  0.6792 -0.4164 -0.0842
 6028TIP3   OH239498   1.228   0.476  14.860 -0.2523  0.2328  0.3506
 6028TIP3    H139499   1.303   0.436  14.904  3.3963  2.0970 -3.4190
 6028TIP3    H239500   1.179   0.402  14.824  0.8315 -1.0422  1.4038
 6029TIP3   OH239501   2.196   6.422   3.540  0.5759 -0.0734 -0.1294
 6029TIP3    H139502   2.281   6.377   3.534  1.3861  1.6252 -2.7586
 6029TIP3    H239503   2.213   6.510   3.508 -2.0214  0.6074  0.1639
 6030TIP3   OH239504   5.788   4.660   5.670 -0.2649  0.8334  0.0581
 6030TIP3    H139505   5.813   4.713   5.746 -0.5010  0.5280  0.3508
 6030TIP3    H239506   5.871   4.626   5.637 -0.3076 -0.7169  1.4265
 6031TIP3   OH239507   1.621   0.524   5.753  0.4850 -0.4681  0.5640
 6031TIP3    H139508   1.700   0.544   5.803  0.1169  0.2296  0.8879
 6031TIP3    H239509   1.643   0.445   5.704  1.1632 -0.6477  1.1361
 6032TIP3   OH239510   6.433   2.092  11.167  0.3433  0.1409  0.3871
 6032TIP3    H139511   6.339   2.090  11.145  0.6074 -0.9216 -0.7583
 6032TIP3    H239512   6.470   2.157  11.108  0.4450  0.0173  0.3152
 6033TIP3   OH239513   3.659   6.295  15.241 -1.0101  0.0793 -0.4047
 6033TIP3    H139514   3.701   6.371  15.200  1.2917 -0.3160  1.0069
 6033TIP3    H239515   3.674   6.223  15.180 -0.0721  0.0630 -0.1683
 6034TIP3   OH239516   4.917   0.301  13.194  0.1829  0.4587  0.0156
 6034TIP3    H139517   4.900   0.255  13.276  1.6869 -2.5494 -1.1840
 6034TIP3    H239518   4.841   0.281  13.139  0.3071  0.3642 -0.1241
 6035TIP3   OH239519   2.331   2.437  11.879 -0.2719 -0.0582 -0.2440
 6035TIP3    H139520   2.416   2.428  11.837  0.8930 -1.1117  2.1334
 6035TIP3    H239521   2.339   2.514  11.934  0.1377 -1.5368  1.9207
 6036TIP3   OH239522   0.259   4.693   3.465  0.9288 -0.1020  0.0369
 6036TIP3    H139523   0.257   4.782   3.431  0.7926  0.3174  1.0924
 6036TIP3    H239524   0.167   4.671   3.482  1.1222  0.6910  2.5238
 6037TIP3   OH239525   1.827   4.037   3.945  0.1828 -0.4099 -0.6009
 6037TIP3    H139526   1.758   3.970   3.947 -0.3928  0.1785 -0.3665
 6037TIP3    H239527   1.890   4.004   3.881 -1.0615 -0.2577 -1.9550
 6038TIP3   OH239528   1.716   2.088  15.904  0.5662  0.3089  0.0157
 6038TIP3    H139529   1.637   2.122  15.863  0.9681 -1.1962 -2.1826
 6038TIP3    H239530   1.781   2.157  15.895 -0.2001  1.1987  1.0231
 6039TIP3   OH239531   6.231   4.077  13.142  0.8338  0.4894 -0.0372
 6039TIP3    H139532   6.194   4.115  13.222  0.5357 -0.5491  0.3445
 6039TIP3    H239533   6.301   4.020  13.173 -1.0232 -2.0704 -0.2021
 6040TIP3   OH239534   1.426   2.435   2.442  0.4029 -0.4168 -0.1676
 6040TIP3    H139535   1.371   2.509   2.468 -1.0199 -1.7394  0.7663
 6040TIP3    H239536   1.447   2.452   2.350 -0.1611  0.9780 -0.0582
 6041TIP3   OH239537   1.664   4.347   6.509 -0.2975  0.2162  0.0005
 6041TIP3    H139538   1.751   4.322   6.481 -0.4664  0.8466 -1.1630
 6041TIP3    H239539   1.608   4.274   6.482 -0.5411  1.0363 -1.9118
 6042TIP3   OH239540   0.489   3.998   6.278  0.0672 -0.2481 -0.0960
 6042TIP3    H139541   0.528   4.081   6.251 -0.6603 -0.3460 -1.6183
 6042TIP3    H239542   0.530   3.977   6.361  0.7320  1.3189  0.0032
 6043TIP3   OH239543   3.585   5.321   0.301 -0.5090 -0.6427 -0.1870
 6043TIP3    H139544   3.539   5.264   0.240 -1.7070 -1.3284  1.2790
 6043TIP3    H239545   3.668   5.342   0.257  0.8499 -4.9341 -0.1848
 6044TIP3   OH239546   6.124   2.635   0.888  0.0816 -0.6368 -0.0969
 6044TIP3    H139547   6.106   2.617   0.796  0.3092  1.9777 -0.7381
 6044TIP3    H239548   6.220   2.637   0.893  0.1058  1.7727 -0.4555
 6045TIP3   OH239549   6.420   0.828   3.480  0.1652  0.5113  0.6523
 6045TIP3    H139550   6.346   0.888   3.485  0.3938  0.8310  0.2145
 6045TIP3    H239551   6.483   0.861   3.543 -0.6726 -0.6287  2.1566
 6046TIP3   OH239552   0.059   1.941  11.327  0.7518  0.3266 -0.1556
 6046TIP3    H139553  -0.025   1.911  11.291  0.9897 -0.0820 -0.3920
 6046TIP3    H239554   0.082   2.017  11.274  0.8408  0.0460 -0.5297
 6047TIP3   OH239555   2.838   4.271  11.267 -0.1739  0.2282 -0.0292
 6047TIP3    H139556   2.871   4.289  11.355  1.3499  1.8728 -0.8846
 6047TIP3    H239557   2.826   4.176  11.265  1.0184  0.0097  1.5383
 6048TIP3   OH239558   4.670   3.317   2.144 -0.0145  0.1278 -1.3368
 6048TIP3    H139559   4.596   3.302   2.203  0.5746  1.5936 -0.1510
 6048TIP3    H239560   4.632   3.316   2.056 -0.8312 -2.7196 -1.0471
 6049TIP3   OH239561   3.916   3.763  17.047  0.7674 -0.4238 -0.4001
 6049TIP3    H139562   3.975   3.807  16.986  0.2068  0.2783 -0.4505
 6049TIP3    H239563   3.838   3.744  16.995  0.4840 -0.2787 -0.0276
 6050TIP3   OH239564   2.462   1.626  12.778 -0.0024 -0.0222  0.2816
 6050TIP3    H139565   2.456   1.556  12.714 -1.7909 -0.7419  1.1696
 6050TIP3    H239566   2.537   1.603  12.833 -1.8758 -2.5607  1.9781
 6051TIP3   OH239567   5.977   4.394  12.190  0.0496  0.0106 -0.0490
 6051TIP3    H139568   5.925   4.351  12.258 -0.1246 -0.4115 -0.4500
 6051TIP3    H239569   6.044   4.330  12.167 -0.5797 -0.2876 -1.0798
 6052TIP3   OH239570   5.196   5.665   3.579 -0.1198  0.0704 -0.2808
 6052TIP3    H139571   5.161   5.751   3.603  2.2735  1.4477 -1.3438
 6052TIP3    H239572   5.148   5.641   3.500  0.1498  1.1295 -0.7826
 6053TIP3   OH239573   5.473   3.457   1.272 -0.0683  0.1791 -0.2097
 6053TIP3    H139574   5.540   3.472   1.205 -0.2151  1.1022 -0.1608
 6053TIP3    H239575   5.488   3.367   1.301  0.7034  0.1407 -0.6962
 6054TIP3   OH239576   5.151   5.307   3.392  0.4086  0.4493  0.0906
 6054TIP3    H139577   5.176   5.252   3.318  0.6630  2.1133 -1.1051
 6054TIP3    H239578   5.235   5.334   3.431  0.3013  0.5894  0.2242
 6055TIP3   OH239579   0.914   1.063   5.675 -0.1317 -0.7825 -0.0871
 6055TIP3    H139580   0.866   1.096   5.598  1.1389 -1.0870 -1.0532
 6055TIP3    H239581   0.852   1.072   5.747 -0.4677  2.1629 -0.5982
 6056TIP3   OH239582   4.985   5.952  16.404 -0.4721 -0.6768  0.0926
 6056TIP3    H139583   4.983   5.925  16.312 -0.1087  1.8441 -0.7575
 6056TIP3    H239584   4.925   6.026  16.408 -0.8376 -1.0372  2.0198
 6057TIP3   OH239585   5.966   3.872  15.556 -0.2420 -0.0792 -0.0173
 6057TIP3    H139586   5.927   3.804  15.612 -1.5898  0.1812 -0.6004
 6057TIP3    H239587   5.907   3.877  15.481  0.0531  1.4529 -0.1734
 6058TIP3   OH239588   6.371   3.405  14.045 -0.3231 -0.5352 -0.0423
 6058TIP3    H139589   6.439   3.438  14.104  0.1798  0.8345 -1.3415
 6058TIP3    H239590   6.341   3.482  13.997 -1.0940 -1.5278 -1.2091
 6059TIP3   OH239591   1.752   3.597   0.227 -0.3245  0.3576  0.1931
 6059TIP3    H139592   1.692   3.575   0.299 -1.9817  3.4283 -0.0756
 6059TIP3    H239593   1.743   3.525   0.165 -0.0436 -1.5872  2.3093
 6060TIP3   OH239594   4.037   0.492  12.481  0.4759 -0.3884 -0.6924
 6060TIP3    H139595   4.030   0.489  12.386 -1.2902  0.0228 -0.6182
 6060TIP3    H239596   4.054   0.401  12.506  0.2145 -0.6334 -1.3693
 6061TIP3   OH239597   6.336   1.118  12.472 -0.0057 -0.3492  0.1761
 6061TIP3    H139598   6.265   1.060  12.501 -1.4831  0.7176 -1.0715
 6061TIP3    H239599   6.311   1.204  12.503  0.4593  0.1318 -0.7266
 6062TIP3   OH239600   1.492   2.546  12.370  0.6582 -0.0926 -0.2044
 6062TIP3    H139601   1.468   2.633  12.401 -0.2805 -0.1713 -0.6587
 6062TIP3    H239602   1.586   2.540  12.384  0.6982  0.9221  0.0139
 6063TIP3   OH239603   5.018   4.355  12.254  0.3951  0.4304 -0.5736
 6063TIP3    H139604   5.032   4.346  12.348 -0.6586 -1.7407 -0.5500
 6063TIP3    H239605   4.973   4.274  12.229 -0.3612  1.4516 -2.7583
 6064TIP3   OH239606   1.151   3.247   1.131 -0.1269  0.0426  0.0976
 6064TIP3    H139607   1.076   3.302   1.154 -1.0341 -0.8525 -0.6480
 6064TIP3    H239608   1.170   3.268   1.040  2.5454  2.5158  1.0818
 6065TIP3   OH239609   6.595   4.515  12.726 -0.3037  0.0436 -0.4576
 6065TIP3    H139610   6.578   4.540  12.816  0.1820  0.0744 -0.3692
 6065TIP3    H239611   6.560   4.587  12.673 -0.5668  0.0357 -0.2912
 6066TIP3   OH239612   3.834   0.990   4.426 -0.9126 -0.3469  0.0431
 6066TIP3    H139613   3.744   1.008   4.453 -1.0980  1.4818 -1.5846
 6066TIP3    H239614   3.834   1.003   4.331  1.1681  0.2293  0.0681
 6067TIP3   OH239615   3.252   0.112   3.468 -0.2429 -0.0474  0.1822
 6067TIP3    H139616   3.276   0.029   3.426 -0.1969 -1.4719  2.8078
 6067TIP3    H239617   3.334   0.145   3.505 -0.4758  0.5602  0.1673
 6068TIP3   OH239618   4.225   5.444   0.460  0.0898 -0.2316  0.2927
 6068TIP3    H139619   4.307   5.492   0.474 -0.6984  0.7507  1.8943
 6068TIP3    H239620   4.196   5.420   0.549 -1.6377 -0.0528 -0.1810
 6069TIP3   OH239621   3.020   1.937   3.719 -0.4570 -0.1348 -0.6122
 6069TIP3    H139622   3.051   1.908   3.633  0.2324  0.1192 -0.4527
 6069TIP3    H239623   3.096   1.930   3.776 -0.4612  1.2535 -0.3920
 6070TIP3   OH239624   1.366   3.740   6.263 -0.2600  0.2397  0.6327
 6070TIP3    H139625   1.404   3.652   6.265 -2.0211 -0.5824  0.0024
 6070TIP3    H239626   1.422   3.791   6.321  1.2818 -1.0905  0.4025
 6071TIP3   OH239627   5.200   3.494  14.064 -0.2042  0.3685 -0.1981
 6071TIP3    H139628   5.265   3.564  14.054  0.5150 -0.2382  0.1500
 6071TIP3    H239629   5.248   3.423  14.106 -0.5822 -0.7920 -1.6268
 6072TIP3   OH239630   2.346   0.081  14.680  0.7876  0.7352  0.4585
 6072TIP3    H139631   2.436   0.094  14.711  0.9224  0.7819  0.0671
 6072TIP3    H239632   2.303   0.031  14.749  1.6507 -0.9522 -0.1705
 6073TIP3   OH239633   0.987   3.958  17.306  0.0954 -0.0925  0.1512
 6073TIP3    H139634   1.057   4.005  17.261 -1.5251  2.2604 -0.1175
 6073TIP3    H239635   1.029   3.919  17.382  1.6024  1.7360  0.3246
 6074TIP3   OH239636   0.598   4.850   2.859 -0.4299 -0.4407 -0.0983
 6074TIP3    H139637   0.630   4.764   2.834 -0.9204 -0.2894 -1.3025
 6074TIP3    H239638   0.624   4.860   2.950  3.0925 -0.2735 -0.9829
 6075TIP3   OH239639   4.175   3.151   3.960 -0.0417 -0.2653  0.0483
 6075TIP3    H139640   4.243   3.204   3.917  0.1114 -0.6790 -0.2334
 6075TIP3    H239641   4.222   3.104   4.029 -0.5965  1.6850  1.8389
 6076TIP3   OH239642   3.490   3.732   5.753  0.6180  0.3772  0.1842
 6076TIP3    H139643   3.556   3.778   5.804  0.9821 -1.2450  1.2672
 6076TIP3    H239644   3.457   3.665   5.812 -1.7256  0.8581 -0.4622
 6077TIP3   OH239645   3.664   3.354   4.694 -0.1339 -0.2211 -0.2981
 6077TIP3    H139646   3.656   3.368   4.600  0.7769  0.9280 -0.2334
 6077TIP3    H239647   3.711   3.271   4.702 -0.5863 -0.5345 -0.8372
 6078TIP3   OH239648   2.335   4.343  15.461 -0.3977  0.1226  0.5221
 6078TIP3    H139649   2.286   4.289  15.523 -0.3292  0.2284  0.6663
 6078TIP3    H239650   2.306   4.432  15.479 -1.4754  0.0270 -0.5626
 6079TIP3   OH239651   3.024   2.817  13.832  0.0873  0.7339  0.2857
 6079TIP3    H139652   2.952   2.879  13.817 -0.4212 -0.1629 -1.2965
 6079TIP3    H239653   3.051   2.791  13.744 -0.5378 -2.1939  0.8582
 6080TIP3   OH239654   1.313   4.690  11.150 -0.6468  0.2866  0.6614
 6080TIP3    H139655   1.255   4.616  11.129  1.0586 -0.6889 -0.8806
 6080TIP3    H239656   1.330   4.681  11.244 -0.7465 -1.1031  0.5726
 6081TIP3   OH239657   4.508   0.810  13.064  0.8979 -0.1624 -0.0643
 6081TIP3    H139658   4.436   0.868  13.088 -0.4147 -1.5128 -0.5709
 6081TIP3    H239659   4.571   0.818  13.136 -0.0474  0.5406  0.7085
 6082TIP3   OH239660   5.632   0.497   3.253  0.0893 -0.6687 -0.1602
 6082TIP3    H139661   5.632   0.476   3.346 -0.0669  1.9154  0.5146
 6082TIP3    H239662   5.722   0.480   3.224  0.8470  0.8838  1.1280
 6083TIP3   OH239663   0.200   1.344  11.998  0.0562 -0.2357  0.4707
 6083TIP3    H139664   0.163   1.409  12.057 -1.5979 -0.5728 -0.1570
 6083TIP3    H239665   0.219   1.269  12.054 -0.3530 -0.1091  0.7813
 6084TIP3   OH239666   3.646   2.899   2.370 -0.1076 -0.3344  0.9107
 6084TIP3    H139667   3.580   2.880   2.303  0.3566  1.4007 -0.1034
 6084TIP3    H239668   3.628   2.989   2.396  2.3938  0.5340 -0.0926
 6085TIP3   OH239669   0.945   5.122  15.499  0.0199  0.0186 -0.3146
 6085TIP3    H139670   0.850   5.132  15.493 -0.0186  0.2684  0.5450
 6085TIP3    H239671   0.967   5.059  15.430 -0.5530  1.1258 -1.5581
 6086TIP3   OH239672   3.123   2.230   4.070  0.0498 -0.0815 -0.2087
 6086TIP3    H139673   3.075   2.267   3.996 -1.8826 -0.1713  0.9318
 6086TIP3    H239674   3.120   2.297   4.137  0.3602 -0.6338  0.3674
 6087TIP3   OH239675   4.352   1.408  16.528  0.0138 -0.1628  0.2575
 6087TIP3    H139676   4.311   1.338  16.477  0.6070 -0.9905  0.8834
 6087TIP3    H239677   4.280   1.468  16.548 -0.3927 -0.2905 -0.7868
 6088TIP3   OH239678   4.230   4.043   3.148 -0.2760  0.1633  0.0243
 6088TIP3    H139679   4.235   4.097   3.227  0.2595  0.6040 -0.3089
 6088TIP3    H239680   4.206   4.104   3.079  0.8794  0.0866 -0.4590
 6089TIP3   OH239681   4.029   1.285  12.029 -0.5870 -0.8093  0.2821
 6089TIP3    H139682   4.010   1.349  12.098  0.2259 -1.5412  1.2153
 6089TIP3    H239683   3.962   1.301  11.963 -0.8594  0.5021  0.8332
 6090TIP3   OH239684   1.181   4.716   4.479  0.0955  0.0737 -0.3136
 6090TIP3    H139685   1.225   4.676   4.404  0.1526  0.7893 -0.6616
 6090TIP3    H239686   1.099   4.749   4.444 -0.4595 -0.7171  0.2098
 6091TIP3   OH239687   6.254   6.251  15.187  0.0339 -0.3356  0.8568
 6091TIP3    H139688   6.264   6.346  15.178  2.4809 -0.5023  1.1778
 6091TIP3    H239689   6.250   6.236  15.281 -2.4378 -0.4544  0.8033
 6092TIP3   OH239690   3.514   1.900   3.313 -0.4844  0.5139  0.4796
 6092TIP3    H139691   3.436   1.873   3.265 -0.5732  0.2404  0.7716
 6092TIP3    H239692   3.481   1.952   3.386 -0.6221 -1.5185  1.9854
 6093TIP3   OH239693   2.975   5.518  13.617 -0.6874 -0.3007 -0.3788
 6093TIP3    H139694   2.920   5.596  13.618  0.3829  0.4793 -0.2325
 6093TIP3    H239695   3.063   5.551  13.596  0.0484 -1.2880  0.9708
 6094TIP3   OH239696   0.353   2.058  11.804 -0.1102  0.2019  0.3469
 6094TIP3    H139697   0.308   2.024  11.881  0.1573 -0.8892  0.0317
 6094TIP3    H239698   0.426   1.998  11.790 -0.3476  0.1936 -0.9527
 6095TIP3   OH239699   5.313   4.533  11.655  0.1833 -0.3983  0.8337
 6095TIP3    H139700   5.286   4.494  11.738 -0.7096 -0.3432  0.5802
 6095TIP3    H239701   5.235   4.528  11.600  0.3429  0.8499  0.4662
 6096TIP3   OH239702   2.317   1.137   3.166 -0.4524  0.3161 -0.5915
 6096TIP3    H139703   2.236   1.103   3.129  0.0226  0.8434 -2.2172
 6096TIP3    H239704   2.297   1.153   3.258 -1.7683 -0.8359 -0.6488
 6097TIP3   OH239705   2.997   6.164   2.596 -0.4520 -0.2159  0.4351
 6097TIP3    H139706   3.054   6.199   2.527 -2.1549 -0.8371 -1.3644
 6097TIP3    H239707   3.058   6.138   2.665  1.3550  0.2792 -0.8742
 6098TIP3   OH239708   3.529   3.219  12.538  0.2302 -0.0834  0.5134
 6098TIP3    H139709   3.488   3.143  12.578  0.0630  0.0695  0.6345
 6098TIP3    H239710   3.526   3.202  12.444 -1.0866  0.4117  0.4487
 6099TIP3   OH239711   0.477   4.363  13.600 -0.6222 -0.4549  0.2322
 6099TIP3    H139712   0.489   4.352  13.695 -0.7118 -0.8560  0.1979
 6099TIP3    H239713   0.492   4.457  13.585  1.3436 -0.7125  0.3574
 6100TIP3   OH239714   5.949   4.666  13.011 -0.1543  0.7021  0.2718
 6100TIP3    H139715   5.934   4.703  12.924  1.1029 -2.1619 -1.2946
 6100TIP3    H239716   5.870   4.616  13.030 -0.2832  1.0391  0.6373
 6101TIP3   OH239717   5.726   2.688   2.307 -0.0804 -0.5404  0.1700
 6101TIP3    H139718   5.821   2.699   2.295  0.1987 -0.9941  1.7588
 6101TIP3    H239719   5.691   2.777   2.298  0.7478 -0.0458  1.4668
 6102TIP3   OH239720   6.779   0.955  15.846 -0.3761 -0.1781  0.2934
 6102TIP3    H139721   6.740   0.934  15.931  0.3883 -1.7231  0.2982
 6102TIP3    H239722   6.768   0.875  15.795  0.6729  0.1661 -0.4976
 6103TIP3   OH239723   3.409   3.559   5.967  0.6025  0.0493 -0.1293
 6103TIP3    H139724   3.471   3.503   6.014  0.3810 -0.9318 -0.9775
 6103TIP3    H239725   3.325   3.514   5.975  0.3527  0.4460 -0.5135
 6104TIP3   OH239726   0.129   6.552  11.638  0.1858  0.1290 -0.4262
 6104TIP3    H139727   0.053   6.609  11.651  0.0292 -0.4613  1.5320
 6104TIP3    H239728   0.121   6.486  11.707  1.9247 -0.5654 -0.8490
 6105TIP3   OH239729   5.992   4.096   1.102 -0.1234  0.2151  0.5078
 6105TIP3    H139730   5.933   4.022   1.108 -0.3327  0.4093  0.8860
 6105TIP3    H239731   6.055   4.072   1.034  0.9317 -1.0942  1.8947
 6106TIP3   OH239732   1.873   1.436   0.112  0.0858 -0.0208 -0.4343
 6106TIP3    H139733   1.834   1.395   0.036 -1.9271 -1.4741  1.2761
 6106TIP3    H239734   1.950   1.383   0.132  0.5100  0.2536 -1.2983
 6107TIP3   OH239735   6.427   3.006   0.619  0.0261  0.1771  0.3401
 6107TIP3    H139736   6.442   3.025   0.712  1.0455 -0.4083  0.3132
 6107TIP3    H239737   6.406   3.091   0.580 -1.0181  0.3304  1.2085
 6108TIP3   OH239738   6.558   0.704   5.534 -0.2594  0.0285  0.0385
 6108TIP3    H139739   6.504   0.634   5.571 -1.8905  1.1113 -0.2062
 6108TIP3    H239740   6.496   0.768   5.501  1.1697  0.5548 -1.8310
 6109TIP3   OH239741   1.055   0.241  15.617 -1.0749 -0.2137 -0.3024
 6109TIP3    H139742   1.055   0.335  15.635 -0.3134 -0.5268  1.5062
 6109TIP3    H239743   1.122   0.205  15.674 -0.8394 -1.7882 -1.4839
 6110TIP3   OH239744   0.778   3.978  11.222  0.3358 -0.2917 -0.0080
 6110TIP3    H139745   0.773   4.070  11.194  1.4400 -0.1175  0.3166
 6110TIP3    H239746   0.871   3.957  11.220  0.0408 -1.6218 -0.7000
 6111TIP3   OH239747   3.905   2.745   3.535 -0.4761 -0.1406  0.5075
 6111TIP3    H139748   3.871   2.834   3.544  1.1704  0.3749  2.2022
 6111TIP3    H239749   3.996   2.758   3.508  0.0605 -1.2563  1.7008
 6112TIP3   OH239750   2.971   3.271   5.209 -0.0126  0.0965  0.3354
 6112TIP3    H139751   2.911   3.276   5.282  1.0021  0.5747  1.1580
 6112TIP3    H239752   2.977   3.177   5.190  0.7060 -0.1672  1.7272
 6113TIP3   OH239753   1.668   1.437   2.687 -0.6310 -0.3549  0.1565
 6113TIP3    H139754   1.664   1.511   2.626 -0.4143  1.2619  2.0118
 6113TIP3    H239755   1.747   1.453   2.738 -1.4838 -0.9759  1.7143
 6114TIP3   OH239756   3.978   5.256   6.788  0.1977  0.3533 -0.8152
 6114TIP3    H139757   4.067   5.290   6.792 -0.5123  2.3590 -1.1901
 6114TIP3    H239758   3.929   5.323   6.740 -1.0843 -1.6494 -2.4978
 6115TIP3   OH239759   3.443   4.669   0.065 -0.3895 -0.4167 -0.0580
 6115TIP3    H139760   3.401   4.710  -0.010 -1.5110  1.0603  1.3235
 6115TIP3    H239761   3.502   4.604   0.027 -0.1146  1.0366 -2.2459
 6116TIP3   OH239762   2.686   2.291   2.993 -0.2132  0.1710  0.5077
 6116TIP3    H139763   2.670   2.243   3.075 -0.9661 -0.7672 -0.1653
 6116TIP3    H239764   2.780   2.279   2.976 -0.0020  0.5644  1.3380
 6117TIP3   OH239765   6.536   5.988  16.851  0.5614 -0.2124  0.1020
 6117TIP3    H139766   6.505   5.908  16.893 -0.5596  0.5135  0.6903
 6117TIP3    H239767   6.581   5.957  16.773 -0.0919 -1.4063  0.1673
 6118TIP3   OH239768   6.522   3.109  16.280 -0.3676  0.5547 -0.4071
 6118TIP3    H139769   6.569   3.169  16.223  0.5664 -0.6120 -0.9110
 6118TIP3    H239770   6.550   3.132  16.368  0.4653  0.4424 -0.6417
 6119TIP3   OH239771   1.978   4.935   0.088  0.5313  0.6779  0.1791
 6119TIP3    H139772   1.927   4.915   0.009  0.2823  0.2636  0.4402
 6119TIP3    H239773   1.952   5.023   0.112 -2.2487 -0.5105  1.9434
 6120TIP3   OH239774   3.462   1.684  12.640  0.5120  0.0286 -0.1488
 6120TIP3    H139775   3.472   1.771  12.678  2.3992 -0.8603  1.6159
 6120TIP3    H239776   3.509   1.689  12.557  0.4262  0.7375 -0.1642
 6121TIP3   OH239777   2.076   5.630   3.657 -0.0678 -0.7395 -0.1331
 6121TIP3    H139778   2.019   5.629   3.580 -0.2080  0.6132 -0.0649
 6121TIP3    H239779   2.163   5.650   3.622  0.0588 -1.1346 -0.0491
 6122TIP3   OH239780   3.599   2.063   6.505  0.4382 -0.2838 -0.0214
 6122TIP3    H139781   3.606   2.157   6.491  2.3571 -0.5456 -1.1213
 6122TIP3    H239782   3.505   2.045   6.503  0.0581  1.5548 -0.0724
 6123TIP3   OH239783   3.894   6.560  17.137  0.0709  0.1740 -0.3734
 6123TIP3    H139784   3.873   6.518  17.220 -0.9941  0.4088 -0.5105
 6123TIP3    H239785   3.947   6.495  17.090  1.4379  0.3809  0.8243
 6124TIP3   OH239786   0.148   0.171  17.156  0.3761 -0.4856  0.1256
 6124TIP3    H139787   0.154   0.145  17.249  0.4392  0.2227  0.3209
 6124TIP3    H239788   0.207   0.245  17.148 -0.9575  0.6033 -0.0605
 6125TIP3   OH239789   4.727   0.707   0.042  0.4864  0.5287 -0.3079
 6125TIP3    H139790   4.733   0.626  -0.008 -0.9951  1.0484 -1.3997
 6125TIP3    H239791   4.754   0.683   0.130 -0.1884 -1.2283 -0.5421
 6126TIP3   OH239792   1.392   1.997   0.187  0.5492  0.4515  0.4941
 6126TIP3    H139793   1.370   1.905   0.195 -1.0045  0.7756  0.2919
 6126TIP3    H239794   1.342   2.028   0.112  1.9867  1.2043 -0.2118
 6127TIP3   OH239795   4.692   4.042  15.212  0.5772 -0.5391  0.5768
 6127TIP3    H139796   4.780   4.080  15.204  0.8756 -1.1372  0.9118
 6127TIP3    H239797   4.676   4.002  15.127  0.7580 -0.6970  0.6166
 6128TIP3   OH239798   4.481   4.312   1.169  0.0554  0.0602  0.2856
 6128TIP3    H139799   4.566   4.277   1.195 -0.0672 -0.3446  0.1578
 6128TIP3    H239800   4.430   4.234   1.143 -0.2474  0.3291  0.0645
 6129TIP3   OH239801   6.368   4.935  14.965  0.4697 -0.2025  0.6714
 6129TIP3    H139802   6.402   5.019  14.996  1.3483 -0.6560  0.9761
 6129TIP3    H239803   6.296   4.915  15.025  0.5012  0.1513  0.8291
 6130TIP3   OH239804   2.943   2.645   4.141  0.0255 -0.8039 -0.2881
 6130TIP3    H139805   2.941   2.736   4.170 -1.0852 -0.3302 -1.7207
 6130TIP3    H239806   3.011   2.604   4.194 -0.6667  0.4227  1.6411
 6131TIP3   OH239807   5.916   3.962   3.603 -0.0239  0.3222  0.1144
 6131TIP3    H139808   5.880   3.873   3.609 -1.3304  0.8354  0.2898
 6131TIP3    H239809   5.963   3.974   3.685  2.5856 -1.1674 -1.0461
 6132TIP3   OH239810   5.982   4.793   6.544  0.2344  0.0435  0.4338
 6132TIP3    H139811   5.996   4.824   6.455 -0.0380  0.0131  0.3791
 6132TIP3    H239812   5.995   4.698   6.539 -2.1701 -0.3145 -0.0929
 6133TIP3   OH239813   6.184   2.959   0.908 -0.1212 -0.4652  0.1239
 6133TIP3    H139814   6.225   3.002   0.983  0.5994  0.1634 -0.6087
 6133TIP3    H239815   6.208   2.867   0.917  2.2381 -0.0028 -0.7371
 6134TIP3   OH239816   5.813   2.432   1.766 -0.0256  0.3778 -0.2057
 6134TIP3    H139817   5.814   2.455   1.673 -1.2115 -0.5039 -0.4521
 6134TIP3    H239818   5.739   2.481   1.802  0.4373  0.7270  0.2886
 6135TIP3   OH239819   2.434   0.874   0.515 -0.5867  0.2059 -0.0111
 6135TIP3    H139820   2.428   0.899   0.423  1.6964 -1.5041 -0.7268
 6135TIP3    H239821   2.524   0.895   0.540  0.5856 -4.0271  0.1497
 6136TIP3   OH239822   1.040   0.393  12.322 -0.0333 -0.4362 -0.2272
 6136TIP3    H139823   1.094   0.438  12.386  0.8063 -0.5488 -0.8346
 6136TIP3    H239824   0.984   0.461  12.286 -1.0735 -0.5161  1.1634
 6137TIP3   OH239825   5.812   6.484   2.822  0.8467  0.4522  0.9338
 6137TIP3    H139826   5.771   6.404   2.854 -2.0099  0.6389 -1.7114
 6137TIP3    H239827   5.906   6.470   2.832  0.7869 -4.7303 -2.3894
 6138TIP3   OH239828   2.449   6.155  12.654 -0.2685  0.9825 -0.0654
 6138TIP3    H139829   2.531   6.173  12.699 -0.3680  2.4170 -0.4076
 6138TIP3    H239830   2.475   6.137  12.563 -0.3758  2.5082 -0.4288
 6139TIP3   OH239831   1.324   6.395   5.658 -0.4125 -0.6022 -0.6247
 6139TIP3    H139832   1.250   6.361   5.709 -0.9892  0.1669 -0.9309
 6139TIP3    H239833   1.374   6.448   5.721  0.1066 -1.4185 -0.3231
 6140TIP3   OH239834   0.894   2.684  16.849 -0.0148  0.2614  0.1772
 6140TIP3    H139835   0.915   2.734  16.771  0.6931 -0.1801  0.0815
 6140TIP3    H239836   0.813   2.724  16.882  0.2087  1.0648 -0.2331
 6141TIP3   OH239837   4.554   5.779  15.298 -0.1303  0.5558  0.5302
 6141TIP3    H139838   4.563   5.698  15.249 -1.2078  0.8135 -0.1369
 6141TIP3    H239839   4.463   5.779  15.328  0.1482  1.0253  1.4181
 6142TIP3   OH239840   3.360   5.251  17.025  0.3854  0.1414 -0.3098
 6142TIP3    H139841   3.430   5.244  17.091  2.7618 -1.6720 -2.8289
 6142TIP3    H239842   3.330   5.162  17.012 -0.3201  0.5193 -1.4021
 6143TIP3   OH239843   5.071   4.005  11.971 -0.5169 -0.4696 -0.0239
 6143TIP3    H139844   5.067   3.947  11.895 -1.3693  0.0221 -0.3783
 6143TIP3    H239845   5.159   3.994  12.006  0.0749 -0.3064 -1.4085
 6144TIP3   OH239846   0.954   3.795  12.431 -0.5896 -0.0044 -0.7816
 6144TIP3    H139847   0.894   3.737  12.477 -0.4310  0.2046 -0.3041
 6144TIP3    H239848   0.921   3.798  12.341 -0.1397 -1.4637 -1.0185
 6145TIP3   OH239849   6.459   0.241   0.307  0.2582  0.0496 -0.7074
 6145TIP3    H139850   6.468   0.335   0.291 -0.8853  0.1235 -0.9784
 6145TIP3    H239851   6.507   0.226   0.389 -0.2956  1.0325 -0.1859
 6146TIP3   OH239852   1.980   5.240  17.212  0.1004  0.0527 -0.0391
 6146TIP3    H139853   1.910   5.219  17.149  0.1673 -2.7400  0.6950
 6146TIP3    H239854   1.952   5.199  17.294  1.1056  1.6731  1.1819
 6147TIP3   OH239855   0.975   1.910  16.278  0.1671  0.1508 -0.3435
 6147TIP3    H139856   1.039   1.903  16.349  0.4268 -1.3110 -0.6896
 6147TIP3    H239857   0.904   1.963  16.316  0.3934 -0.4262  0.9555
 6148TIP3   OH239858   4.748   0.788  15.842  0.0086 -0.3695 -0.9900
 6148TIP3    H139859   4.741   0.777  15.747  0.3900 -1.4202 -0.9128
 6148TIP3    H239860   4.658   0.780  15.874 -0.1814  0.4623 -1.2969
 6149TIP3   OH239861   5.750   3.596  13.763  0.2791  0.0244 -0.3509
 6149TIP3    H139862   5.706   3.517  13.796  0.3811  0.1153 -0.0049
 6149TIP3    H239863   5.699   3.620  13.685 -0.4897  0.3262  0.2415
 6150TIP3   OH239864   6.368   1.319   2.589 -0.1233  0.1343 -0.1003
 6150TIP3    H139865   6.330   1.361   2.511 -4.0923  1.5900  2.3183
 6150TIP3    H239866   6.410   1.391   2.636 -1.1110  0.0715  0.8951
 6151TIP3   OH239867   6.235   0.909  13.696 -0.3573  0.0708 -0.1435
 6151TIP3    H139868   6.229   0.879  13.605  1.5358 -0.0496 -0.2743
 6151TIP3    H239869   6.263   0.831  13.745 -2.2977 -0.1265  0.7557
 6152TIP3   OH239870   5.485   1.275  16.566  0.1169  0.2605 -0.1368
 6152TIP3    H139871   5.484   1.371  16.566 -1.5727  0.2834  0.8333
 6152TIP3    H239872   5.507   1.251  16.656 -0.7354 -0.2194 -0.0399
 6153TIP3   OH239873   5.089   4.410   1.187 -0.5916  0.0775 -0.0262
 6153TIP3    H139874   5.117   4.499   1.167 -2.0274  0.6322  0.3532
 6153TIP3    H239875   5.009   4.397   1.137  0.4349 -1.5927 -1.3314
 6154TIP3   OH239876   4.939   0.262  15.010  0.3179  0.1164 -0.2745
 6154TIP3    H139877   4.988   0.211  14.945 -1.0508  0.6476 -1.8162
 6154TIP3    H239878   4.853   0.219  15.014 -0.5977  1.7595 -1.0286
 6155TIP3   OH239879   5.975   5.877   2.854  0.0358 -0.2175 -0.0553
 6155TIP3    H139880   6.029   5.838   2.924 -2.2714 -2.4841  0.6188
 6155TIP3    H239881   5.965   5.968   2.880  0.1958 -0.7305  1.9963
 6156TIP3   OH239882   2.251   2.225   0.396 -0.6898 -0.1714 -0.5073
 6156TIP3    H139883   2.269   2.275   0.476  1.1332  0.4934 -1.2602
 6156TIP3    H239884   2.315   2.154   0.398 -1.8085 -1.1940 -0.5364
 6157TIP3   OH239885   1.287   3.699   5.626 -0.1484  0.2634  0.3172
 6157TIP3    H139886   1.351   3.718   5.557 -0.2670  0.8911  0.3700
 6157TIP3    H239887   1.203   3.705   5.582 -0.1575 -1.1768  0.1096
 6158TIP3   OH239888   5.243   1.325  16.159  0.2222  0.2788  0.3955
 6158TIP3    H139889   5.152   1.350  16.146  0.5459  1.3890  0.1586
 6158TIP3    H239890   5.277   1.310  16.071  0.4185  0.4383  0.4424
 6159TIP3   OH239891   1.686   3.567   3.158 -0.6020  0.0601 -0.0939
 6159TIP3    H139892   1.592   3.570   3.140 -0.8701  1.8455  1.3120
 6159TIP3    H239893   1.723   3.635   3.102  0.1300 -1.6423 -1.7793
 6160TIP3   OH239894   3.921   4.462  16.293 -0.3714  0.7102 -0.3903
 6160TIP3    H139895   3.865   4.534  16.263 -1.5913 -0.4845 -1.1201
 6160TIP3    H239896   3.895   4.388  16.238  1.5317 -0.0473 -0.3153
 6161TIP3   OH239897   1.374   5.021  13.812  0.1510  0.9465  0.4553
 6161TIP3    H139898   1.321   5.100  13.806 -1.0735  0.2161  1.1653
 6161TIP3    H239899   1.343   4.977  13.892 -0.3110 -1.0107 -0.7179
 6162TIP3   OH239900   5.219   0.145   3.332 -0.1303  1.0267  0.5841
 6162TIP3    H139901   5.245   0.089   3.259 -0.1800  1.4859  0.2154
 6162TIP3    H239902   5.145   0.098   3.372 -2.0218  2.1293 -1.4006
 6163TIP3   OH239903   2.380   1.612  13.497 -0.2540  0.2409  0.4430
 6163TIP3    H139904   2.437   1.594  13.572  0.2879 -1.2985 -0.2965
 6163TIP3    H239905   2.302   1.560  13.514  0.2253 -0.8253 -0.4291
 6164TIP3   OH239906   2.252   0.555  12.938  0.4770  0.2705  0.6385
 6164TIP3    H139907   2.273   0.573  12.846  0.0164 -0.5072  0.3667
 6164TIP3    H239908   2.306   0.616  12.988  0.1820  1.2138 -0.1697
 6165TIP3   OH239909   4.558   4.328  14.441  0.0999  0.4197 -0.6696
 6165TIP3    H139910   4.638   4.282  14.413  0.0981  0.6281 -1.0195
 6165TIP3    H239911   4.590   4.404  14.490  0.1042  0.1181 -0.1985
 6166TIP3   OH239912   3.179   1.276  14.334 -0.9010  0.1031  0.0903
 6166TIP3    H139913   3.209   1.309  14.249 -0.5117 -2.9728 -1.0821
 6166TIP3    H239914   3.086   1.258  14.321 -0.6631 -1.1209  0.0354
 6167TIP3   OH239915   6.752   4.390   6.111  0.1269  0.7372 -1.1408
 6167TIP3    H139916   6.764   4.304   6.069 -2.8340 -1.2600  1.5996
 6167TIP3    H239917   6.817   4.391   6.181 -1.8694 -0.9060  0.8836
 6168TIP3   OH239918   1.993   1.151   3.506 -0.1078 -0.1143  0.0864
 6168TIP3    H139919   1.976   1.178   3.596  1.1690 -2.6496  1.2063
 6168TIP3    H239920   1.919   1.095   3.483  1.4387 -2.8013  1.1828
 6169TIP3   OH239921   0.096   6.268   4.397  0.1489  0.6085  0.9352
 6169TIP3    H139922   0.107   6.269   4.493  1.9388 -2.9333  0.9448
 6169TIP3    H239923   0.184   6.281   4.363 -0.1056 -0.3449 -0.1367
 6170TIP3   OH239924   1.860   2.561   5.923  0.1109  0.1591 -0.1467
 6170TIP3    H139925   1.917   2.505   5.870 -1.9929 -3.2207  0.8779
 6170TIP3    H239926   1.886   2.544   6.013 -1.2384  0.0005  0.2358
 6171TIP3   OH239927   3.537   4.279  11.805  0.2340  0.1653  0.9623
 6171TIP3    H139928   3.497   4.356  11.764 -2.0026 -1.2872  0.2217
 6171TIP3    H239929   3.507   4.282  11.896  0.5067  0.3921  1.0453
 6172TIP3   OH239930   5.851   6.572  13.892 -0.0884 -0.7102  0.1148
 6172TIP3    H139931   5.756   6.565  13.879 -0.0530 -0.4006 -0.3567
 6172TIP3    H239932   5.862   6.656  13.936 -0.0144 -0.6283 -0.0601
 6173TIP3   OH239933   3.171   6.662  13.828  0.9805  0.3902  0.1762
 6173TIP3    H139934   3.097   6.648  13.887  1.9144 -0.6472  1.1692
 6173TIP3    H239935   3.242   6.608  13.866  1.3051 -1.2659 -2.5194
 6174TIP3   OH239936   0.990   2.243  16.299 -0.0113  0.1200 -0.3460
 6174TIP3    H139937   0.988   2.319  16.357  0.2684  0.7481 -1.1396
 6174TIP3    H239938   0.995   2.168  16.358 -0.1272  0.7221  0.4469
 6175TIP3   OH239939   4.123   2.087  11.930 -0.0856 -0.8176  0.4253
 6175TIP3    H139940   4.109   2.087  12.025 -0.5141 -0.1423  0.3663
 6175TIP3    H239941   4.050   2.036  11.895  0.4908 -1.7267  0.5051
 6176TIP3   OH239942   0.580   5.211   0.215  0.2593  0.3601 -0.5911
 6176TIP3    H139943   0.556   5.119   0.203 -0.2494  0.2217  1.2104
 6176TIP3    H239944   0.506   5.260   0.178 -0.3506  0.0037  0.1350
 6177TIP3   OH239945   5.937   1.416  11.508 -0.7289 -0.1511  0.5203
 6177TIP3    H139946   6.009   1.446  11.563 -1.3454  1.2633  0.5900
 6177TIP3    H239947   5.969   1.427  11.418 -0.4428 -0.6239  0.5593
 6178TIP3   OH239948   5.774   2.594   4.355 -0.1785  0.2485 -0.3037
 6178TIP3    H139949   5.750   2.519   4.409  2.3354  0.7291  1.7047
 6178TIP3    H239950   5.744   2.572   4.267 -0.4879 -2.5968  0.4328
 6179TIP3   OH239951   5.754   4.176   2.698  0.0400  0.2379 -0.2795
 6179TIP3    H139952   5.811   4.205   2.627 -0.7438 -1.8602 -1.8688
 6179TIP3    H239953   5.805   4.108   2.743 -0.1692  0.2831  0.0302
 6180TIP3   OH239954   5.409   1.681  12.466  0.0004 -0.4120  0.0779
 6180TIP3    H139955   5.479   1.625  12.501 -0.1900 -0.8821 -0.2740
 6180TIP3    H239956   5.427   1.686  12.372 -0.9568 -1.3147 -0.1766
 6181TIP3   OH239957   1.309   5.230   6.581  0.4043  0.1101 -0.0757
 6181TIP3    H139958   1.269   5.317   6.576  1.2290  0.4811 -0.4048
 6181TIP3    H239959   1.399   5.244   6.552  0.4304 -0.9356 -0.5229
 6182TIP3   OH239960   4.206   5.275   4.793 -0.0644 -0.4593 -0.3521
 6182TIP3    H139961   4.135   5.268   4.730 -0.1835  0.0358 -0.2714
 6182TIP3    H239962   4.282   5.237   4.748  0.0282  0.5531 -1.0717
 6183TIP3   OH239963   6.392   6.374  14.762  0.2591 -0.2700 -0.1285
 6183TIP3    H139964   6.397   6.313  14.836 -0.1111  1.0085  0.9874
 6183TIP3    H239965   6.299   6.392  14.752  0.4534  1.3694  0.6564
 6184TIP3   OH239966   3.338   2.407   4.722 -0.0016 -0.5556 -0.1332
 6184TIP3    H139967   3.268   2.347   4.695  0.9377 -0.8321 -2.1273
 6184TIP3    H239968   3.314   2.434   4.811 -2.9073 -0.2607 -0.9033
 6185TIP3   OH239969   0.505   4.956   5.378  0.5266 -0.8136  0.2368
 6185TIP3    H139970   0.529   4.887   5.316 -1.4397 -2.1137  0.7981
 6185TIP3    H239971   0.449   5.015   5.328  0.8142 -0.5776  0.1931
 6186TIP3   OH239972   5.852   5.633  16.352  0.8412  0.0666  0.0676
 6186TIP3    H139973   5.840   5.542  16.381 -0.9907  0.6916  1.4356
 6186TIP3    H239974   5.816   5.686  16.423  2.0098  1.8905 -0.6396
 6187TIP3   OH239975   1.911   2.585  13.959 -0.4050  0.2538 -1.1277
 6187TIP3    H139976   1.927   2.673  13.927 -1.6903  0.0884 -2.3042
 6187TIP3    H239977   1.840   2.552  13.905 -0.6157 -1.1535 -0.0569
 6188TIP3   OH239978   1.035   2.398   1.907 -0.0243  0.2887  0.6524
 6188TIP3    H139979   0.956   2.449   1.923 -0.2682 -0.3185  1.4550
 6188TIP3    H239980   1.017   2.349   1.826 -0.9010 -0.6504  1.3867
 6189TIP3   OH239981   2.426   3.843   1.492  0.3444 -0.8460  0.7516
 6189TIP3    H139982   2.442   3.777   1.424  0.6994  0.4673 -0.4898
 6189TIP3    H239983   2.340   3.879   1.471 -0.0950 -1.2813  1.7588
 6190TIP3   OH239984   4.198   5.931   3.253 -0.4710  0.2417 -0.1045
 6190TIP3    H139985   4.151   5.885   3.323 -1.0484 -0.2938 -0.8153
 6190TIP3    H239986   4.226   5.861   3.193  0.1182  0.6775 -0.3479
 6191TIP3   OH239987   0.723   1.360   2.001 -0.4994  0.0489  0.7661
 6191TIP3    H139988   0.779   1.282   1.995 -1.6820 -0.8189  0.7953
 6191TIP3    H239989   0.659   1.339   2.068 -0.2550  1.4526  1.4800
 6192TIP3   OH239990   2.935   3.928   3.416  0.0033 -0.1553 -0.2250
 6192TIP3    H139991   2.988   3.849   3.402  1.5877  1.0965 -1.5772
 6192TIP3    H239992   2.992   4.001   3.393 -2.0631  1.3176 -1.0310
 6193TIP3   OH239993   0.381   0.239  12.813 -0.0513 -0.2336 -0.6342
 6193TIP3    H139994   0.410   0.269  12.727  0.6237  0.2168 -0.2579
 6193TIP3    H239995   0.291   0.210  12.799  0.4467 -1.3552 -1.7634
 6194TIP3   OH239996   2.867   2.471  17.010  0.5968 -0.1233 -0.0609
 6194TIP3    H139997   2.919   2.548  16.990 -1.8641  1.5676 -0.3100
 6194TIP3    H239998   2.891   2.448  17.100  2.7484 -0.3223 -0.6150
 6195TIP3   OH239999   3.251   2.174   1.376  0.3959 -0.3052 -0.2212
 6195TIP3    H140000   3.265   2.233   1.450 -1.4996 -1.6931  1.3481
 6195TIP3    H240001   3.235   2.089   1.416 -1.8885 -0.8784 -2.1611
 6196TIP3   OH240002   2.495   1.805   0.653 -0.1414  0.3939  0.3465
 6196TIP3    H140003   2.570   1.801   0.713 -0.2661 -1.0660  0.4326
 6196TIP3    H240004   2.533   1.786   0.567 -0.5152 -1.2556  0.5138
 6197TIP3   OH240005   0.771   5.029   2.742 -1.0218  0.2095  0.1278
 6197TIP3    H140006   0.706   4.985   2.799 -0.4830 -0.5957  0.1441
 6197TIP3    H240007   0.802   5.103   2.794 -1.4872  0.2500  0.3586
 6198TIP3   OH240008   4.474   5.137  14.276  0.0635  0.0510  0.2336
 6198TIP3    H140009   4.403   5.196  14.251 -0.4445 -0.5838  0.1400
 6198TIP3    H240010   4.516   5.113  14.194 -1.4857 -1.8856 -0.0661
 6199TIP3   OH240011   3.655   3.290   4.423 -0.1733  0.1228 -0.3023
 6199TIP3    H140012   3.669   3.198   4.402 -0.3764  0.2673 -1.0898
 6199TIP3    H240013   3.730   3.335   4.385 -0.7791  0.4421 -1.1316
 6200TIP3   OH240014   5.956   0.280   3.415 -0.1792  0.1164  0.5787
 6200TIP3    H140015   6.032   0.314   3.463  0.2444  1.9752 -1.2620
 6200TIP3    H240016   5.965   0.185   3.420  1.7733  0.2923  1.1902
 6201TIP3   OH240017   3.207   6.015   2.415 -0.0298 -0.3993 -0.1271
 6201TIP3    H140018   3.201   6.103   2.453  1.6076  0.4305 -1.6067
 6201TIP3    H240019   3.254   6.029   2.332 -0.0773 -2.6252 -0.5690
 6202TIP3   OH240020   3.356   2.514  11.405  0.7007 -0.1069 -0.9023
 6202TIP3    H140021   3.421   2.584  11.409 -0.5483  1.0289 -0.2657
 6202TIP3    H240022   3.349   2.481  11.494 -0.2771  0.4018 -0.7868
 6203TIP3   OH240023   6.756   2.768  14.936  0.1573  0.3167  0.0566
 6203TIP3    H140024   6.718   2.854  14.920  2.2281  1.2828  0.1053
 6203TIP3    H240025   6.719   2.741  15.021 -0.9698  0.8445 -0.2397
 6204TIP3   OH240026   5.461   2.131   5.546 -1.0812  0.0058 -0.3305
 6204TIP3    H140027   5.498   2.075   5.478  0.9245  0.0463  0.6517
 6204TIP3    H240028   5.371   2.145   5.519 -0.4524 -0.2618 -2.7879
 6205TIP3   OH240029   0.805   3.103   0.486 -0.2663  0.6921 -0.1583
 6205TIP3    H140030   0.872   3.122   0.552  0.3084  0.9235 -0.8025
 6205TIP3    H240031   0.793   3.008   0.491 -0.1114  0.6876  0.1652
 6206TIP3   OH240032   5.658   6.577  14.933 -0.0719 -0.0770 -0.4550
 6206TIP3    H140033   5.579   6.580  14.986  0.6224  0.7388  0.5859
 6206TIP3    H240034   5.673   6.483  14.918 -1.9086 -0.2088 -1.7866
 6207TIP3   OH240035   6.590   5.430  14.315  0.0957 -0.4882  0.4933
 6207TIP3    H140036   6.505   5.472  14.329  0.3407  0.0734  0.3375
 6207TIP3    H240037   6.595   5.415  14.221  0.5137  0.2545  0.3852
 6208TIP3   OH240038   1.262   5.536  12.291  0.1257  0.3918 -1.0402
 6208TIP3    H140039   1.238   5.503  12.378 -0.6585  2.0470 -0.5954
 6208TIP3    H240040   1.235   5.466  12.231 -0.2757 -0.3297 -0.0463
 6209TIP3   OH240041   2.926   5.124  14.965 -0.3951 -0.3686  0.1505
 6209TIP3    H140042   3.009   5.095  14.927  0.1562  0.2879  0.8181
 6209TIP3    H240043   2.918   5.216  14.938  0.1326  0.1864  1.7770
 6210TIP3   OH240044   0.929   2.049   2.226  0.0216  0.2664 -0.1202
 6210TIP3    H140045   0.940   1.969   2.278  1.0137  0.5103  0.0564
 6210TIP3    H240046   0.839   2.044   2.194 -0.3640 -0.2710  0.9852
 6211TIP3   OH240047   5.598   2.548   5.418 -0.1941  0.3971  0.1248
 6211TIP3    H140048   5.563   2.489   5.485 -0.6594  0.3794 -0.1257
 6211TIP3    H240049   5.690   2.560   5.442 -0.4889  0.8722  1.1187
 6212TIP3   OH240050   3.246   3.118   0.385 -0.6701 -0.5698 -0.2038
 6212TIP3    H140051   3.157   3.084   0.373 -0.6785 -0.7492  0.3457
 6212TIP3    H240052   3.300   3.065   0.326 -0.7678 -1.1879  0.2495
 6213TIP3   OH240053   4.416   1.249   0.753  0.0648  0.6581 -0.0682
 6213TIP3    H140054   4.433   1.342   0.739  0.7911  0.4698 -0.4597
 6213TIP3    H240055   4.414   1.239   0.848 -0.6840  1.1842 -0.0136
 6214TIP3   OH240056   2.303   2.869  12.199 -0.5829  0.3062  0.3407
 6214TIP3    H140057   2.384   2.897  12.242 -0.9537  0.9965  0.6104
 6214TIP3    H240058   2.262   2.951  12.172 -0.9135 -0.0743 -0.3062
 6215TIP3   OH240059   4.474   2.644  13.347  0.4263 -0.2141  0.5230
 6215TIP3    H140060   4.483   2.579  13.418  0.3145  0.1557  0.8822
 6215TIP3    H240061   4.466   2.591  13.268  1.5662 -0.6246  0.6584
 6216TIP3   OH240062   1.784   5.987   3.504 -0.5134 -0.0231  0.4594
 6216TIP3    H140063   1.819   6.041   3.575  1.5178  0.0217 -0.5145
 6216TIP3    H240064   1.717   5.933   3.546  0.1290  0.5076  2.2643
 6217TIP3   OH240065   1.740   2.251  16.764  0.2362 -0.6068  0.2164
 6217TIP3    H140066   1.675   2.320  16.778  1.2756  0.3196  0.6536
 6217TIP3    H240067   1.752   2.211  16.851 -1.1543 -2.1032 -0.2393
 6218TIP3   OH240068   6.435   3.370  10.593  0.0284 -0.6698 -0.5777
 6218TIP3    H140069   6.494   3.426  10.643 -1.0232 -0.4712  0.4989
 6218TIP3    H240070   6.489   3.336  10.521  0.9377  0.9607 -0.7163
 6219TIP3   OH240071   3.224   0.126   2.152  0.1871  0.2914 -0.2612
 6219TIP3    H140072   3.269   0.138   2.068 -0.1971 -0.6740 -0.6162
 6219TIP3    H240073   3.290   0.091   2.210  1.2009  3.3783  0.6574
 6220TIP3   OH240074   4.333   6.503  13.665 -0.0471  0.2676 -0.2399
 6220TIP3    H140075   4.361   6.448  13.738  1.3003  1.6638  0.3593
 6220TIP3    H240076   4.313   6.441  13.594  0.8380 -1.0151  0.5864
 6221TIP3   OH240077   6.744   4.686  13.263 -0.0905 -0.3783  0.4731
 6221TIP3    H140078   6.794   4.672  13.344 -1.1509 -1.9271  0.9202
 6221TIP3    H240079   6.809   4.714  13.199  0.8518  0.4362  1.7334
 6222TIP3   OH240080   5.701   2.389   3.782 -0.5523  0.2253  0.0173
 6222TIP3    H140081   5.720   2.309   3.732  0.2749 -0.3956  1.2957
 6222TIP3    H240082   5.629   2.365   3.839  0.5688 -0.0429  1.3649
 6223TIP3   OH240083   4.821   3.915   3.348  0.0817 -0.1885  0.7707
 6223TIP3    H140084   4.772   3.844   3.307  0.6875 -1.2911  1.8856
 6223TIP3    H240085   4.912   3.888   3.343  0.3272  0.5196  1.2063
 6224TIP3   OH240086   3.683   6.302   0.610 -0.3415 -0.0692 -0.1681
 6224TIP3    H140087   3.635   6.269   0.686 -1.6490 -0.2317 -1.0295
 6224TIP3    H240088   3.740   6.370   0.646  0.3806 -1.3306  1.2153
 6225TIP3   OH240089   6.294   3.769  12.315 -0.0530 -0.0759  0.0584
 6225TIP3    H140090   6.388   3.758  12.308 -0.2205 -0.8741 -1.1935
 6225TIP3    H240091   6.282   3.861  12.337  1.0471 -0.2572  1.5626
 6226TIP3   OH240092   1.271   5.293  14.810 -0.2439 -0.0320  0.5368
 6226TIP3    H140093   1.303   5.263  14.895  0.6280 -2.7838 -0.6498
 6226TIP3    H240094   1.176   5.291  14.817 -0.1813 -0.2103  1.4267
 6227TIP3   OH240095   3.028   3.265  11.966  0.6854 -0.7723 -0.4185
 6227TIP3    H140096   3.077   3.233  12.042  0.6119 -1.8610 -0.8149
 6227TIP3    H240097   2.948   3.302  12.003  1.6067  0.7128  0.2050
 6228TIP3   OH240098   4.295   4.302  14.393 -0.3192 -0.0448  0.1099
 6228TIP3    H140099   4.390   4.294  14.398 -0.3414 -0.7840 -0.4629
 6228TIP3    H240100   4.270   4.345  14.475  0.4675 -0.2096  0.4474
 6229TIP3   OH240101   4.226   1.134   4.008  0.0074  0.0947  0.2133
 6229TIP3    H140102   4.155   1.141   3.944  1.0596 -0.1960 -1.0304
 6229TIP3    H240103   4.250   1.041   4.006  0.2942  0.1571  0.7472
 6230TIP3   OH240104   0.137   6.541  17.201  0.5943 -0.0729  0.6137
 6230TIP3    H140105   0.120   6.577  17.288 -0.2656 -1.7377  1.1926
 6230TIP3    H240106   0.051   6.536  17.160  0.7014 -1.2593  0.5008
 6231TIP3   OH240107   3.051   5.227  13.242 -0.5040 -0.0992  0.1113
 6231TIP3    H140108   3.039   5.315  13.206 -2.1290  0.0203  0.8383
 6231TIP3    H240109   3.078   5.242  13.332 -1.0919 -0.3131  0.3342
 6232TIP3   OH240110   4.540   2.784   5.562  0.1872  0.1737  0.3442
 6232TIP3    H140111   4.492   2.858   5.599 -0.5238 -0.3501  0.5063
 6232TIP3    H240112   4.541   2.800   5.468 -0.3943  0.1574  0.3263
 6233TIP3   OH240113   2.742   1.785  11.347 -0.0836  0.3874 -0.0748
 6233TIP3    H140114   2.797   1.729  11.402 -0.8624  0.3437  0.6919
 6233TIP3    H240115   2.768   1.765  11.258 -0.4251 -1.3204  0.1713
 6234TIP3   OH240116   2.961   4.152  14.599  0.3424 -0.4627 -0.3243
 6234TIP3    H140117   2.872   4.153  14.633  0.8685 -0.6659  1.1211
 6234TIP3    H240118   2.962   4.081  14.535 -1.5184  1.9505 -3.3022
 6235TIP3   OH240119   1.408   3.268   4.914 -0.4735 -0.3921  0.2185
 6235TIP3    H140120   1.343   3.326   4.952 -0.6175 -0.1486 -0.3820
 6235TIP3    H240121   1.371   3.180   4.923 -0.2257 -0.4011  1.1900
 6236TIP3   OH240122   5.204   1.911   6.053 -0.1469  0.3914  0.0757
 6236TIP3    H140123   5.227   1.946   5.967 -2.0431  1.5516 -0.0087
 6236TIP3    H240124   5.286   1.911   6.102  0.9428 -0.1912 -1.6717
 6237TIP3   OH240125   3.730   5.327  16.852 -0.2924  0.4604 -0.3430
 6237TIP3    H140126   3.719   5.391  16.781 -0.0098 -0.5378 -1.3187
 6237TIP3    H240127   3.723   5.242  16.809  1.0504 -0.1870  0.6282
 6238TIP3   OH240128   6.642   3.059  13.308 -0.6251  0.2189 -0.3957
 6238TIP3    H140129   6.640   2.991  13.241  0.7111  1.1759 -1.4589
 6238TIP3    H240130   6.698   3.023  13.378 -1.1098 -0.3340 -0.2876
 6239TIP3   OH240131   6.348   0.204  14.053  0.8071 -0.3025  0.3486
 6239TIP3    H140132   6.264   0.198  14.099  0.9747 -0.7115  0.6071
 6239TIP3    H240133   6.338   0.144  13.979  0.1739  1.0986 -0.7475
 6240TIP3   OH240134   6.310   5.361  14.232  0.3383 -0.0015  0.0348
 6240TIP3    H140135   6.314   5.360  14.136 -0.6462 -0.1157 -0.0228
 6240TIP3    H240136   6.235   5.418  14.252  0.7356  0.2905  0.7525
 6241TIP3   OH240137   2.970   4.061  15.114 -0.0610  0.3518 -0.3987
 6241TIP3    H140138   2.978   3.994  15.182  2.1473  0.9883  0.0709
 6241TIP3    H240139   3.054   4.108  15.117 -1.0538  2.3517 -1.5255
 6242TIP3   OH240140   5.058   0.238   1.134  0.0726 -0.1115 -0.4036
 6242TIP3    H140141   5.094   0.150   1.133  1.2743  0.3530 -1.7928
 6242TIP3    H240142   4.992   0.237   1.204  0.6770 -1.8416  0.1779
 6243TIP3   OH240143   5.421   5.709  11.622  0.4503  0.0038  0.0982
 6243TIP3    H140144   5.466   5.782  11.580 -0.1877  0.3843  0.0709
 6243TIP3    H240145   5.363   5.674  11.554  0.0347  0.0939  0.4009
 6244TIP3   OH240146   3.304   1.259  15.591  0.4020 -0.5178  0.1362
 6244TIP3    H140147   3.221   1.274  15.636  1.2601  0.2859  1.5317
 6244TIP3    H240148   3.304   1.322  15.519 -0.9944 -1.8232 -1.0624
 6245TIP3   OH240149   4.184   0.527  12.071 -0.3285  0.0947  0.2812
 6245TIP3    H140150   4.089   0.523  12.081 -0.5283 -1.2874 -1.6546
 6245TIP3    H240151   4.199   0.598  12.009 -0.1568 -0.1237  0.0709
 6246TIP3   OH240152   6.376   3.817   1.750  0.1391 -0.0963 -0.0334
 6246TIP3    H140153   6.442   3.842   1.815  0.4372  0.9104 -0.7125
 6246TIP3    H240154   6.426   3.778   1.678  0.0756  1.2848 -0.8463
 6247TIP3   OH240155   0.832   0.642  11.861 -0.0151  0.1375  0.2379
 6247TIP3    H140156   0.844   0.615  11.953 -1.1306 -1.1214  0.0380
 6247TIP3    H240157   0.920   0.638  11.824  0.2621 -0.6192  0.9333
 6248TIP3   OH240158   5.960   1.527  10.763  0.1848  0.1952 -0.5455
 6248TIP3    H140159   5.945   1.444  10.809 -0.6221 -0.0463 -1.2144
 6248TIP3    H240160   6.000   1.584  10.828 -2.1522  0.3036  0.8801
 6249TIP3   OH240161   4.086   4.234  14.764 -0.1934  0.5135 -0.0638
 6249TIP3    H140162   4.063   4.275  14.847  0.2428 -1.5620  1.1489
 6249TIP3    H240163   4.145   4.162  14.788 -1.7468 -1.5118 -1.9091
 6250TIP3   OH240164   4.936   3.875  13.088 -0.5073 -0.2256 -0.0600
 6250TIP3    H140165   4.873   3.855  13.157 -0.5158 -2.3967 -0.6483
 6250TIP3    H240166   4.908   3.824  13.012 -0.2679  1.7835 -1.6091
 6251TIP3   OH240167   3.968   3.314   4.606 -0.2706  0.1243 -0.5554
 6251TIP3    H140168   3.918   3.297   4.527 -0.5520 -2.8646  0.1444
 6251TIP3    H240169   3.964   3.409   4.617 -2.9503  0.3395 -2.3490
 6252TIP3   OH240170   0.379   1.044  12.230 -0.5987  0.0493  0.4878
 6252TIP3    H140171   0.455   1.086  12.190 -0.1672 -1.1700  0.0046
 6252TIP3    H240172   0.413   1.008  12.312 -0.8872  0.3145  0.7278
 6253TIP3   OH240173   4.223   4.506   4.099 -0.2756  0.6811  0.4244
 6253TIP3    H140174   4.239   4.549   4.183 -1.8578  0.4706  0.8524
 6253TIP3    H240175   4.300   4.451   4.086  1.5408  3.1028  0.1428
 6254TIP3   OH240176   5.497   5.698  15.137  0.2770 -0.4975  0.1897
 6254TIP3    H140177   5.418   5.661  15.176 -1.0007  0.6264 -1.2258
 6254TIP3    H240178   5.550   5.622  15.113 -1.0557 -1.3209 -0.2005
 6255TIP3   OH240179   3.843   2.728  14.151 -0.2019  1.3314 -0.0206
 6255TIP3    H140180   3.864   2.681  14.232 -0.2385  2.1010  0.4414
 6255TIP3    H240181   3.750   2.709  14.136 -0.0366  0.6794 -0.2239
 6256TIP3   OH240182   3.062   3.351  12.742  0.0928  0.7212  0.0002
 6256TIP3    H140183   3.153   3.380  12.732  0.9278 -0.9097  2.0746
 6256TIP3    H240184   3.016   3.427  12.777  0.4844  1.7373 -1.5858
 6257TIP3   OH240185   5.204   1.648   0.581  0.2638  0.7790  0.2325
 6257TIP3    H140186   5.134   1.709   0.602  0.2247  0.5303  0.8394
 6257TIP3    H240187   5.195   1.633   0.486 -1.1220 -0.0049  0.4571
 6258TIP3   OH240188   3.886   1.364   5.228 -0.2142 -0.3607  0.3003
 6258TIP3    H140189   3.958   1.418   5.197 -0.6934  2.1792  3.1321
 6258TIP3    H240190   3.818   1.375   5.162  1.3634 -1.5991 -1.6477
 6259TIP3   OH240191   1.715   5.874   2.295 -0.1524  0.0163 -0.4842
 6259TIP3    H140192   1.627   5.845   2.270 -0.7280  1.1645  0.1085
 6259TIP3    H240193   1.701   5.958   2.339  1.3866  0.9097 -1.6105
 6260TIP3   OH240194   2.167   3.646  15.529  0.1308  0.2554  0.2647
 6260TIP3    H140195   2.099   3.707  15.500  0.8514  1.5014  1.1312
 6260TIP3    H240196   2.234   3.652  15.461 -0.6890 -1.1907 -0.7434
 6261TIP3   OH240197   1.058   0.988  11.760 -0.5135 -1.0803  0.3996
 6261TIP3    H140198   1.073   1.060  11.822 -3.7651  0.7766 -0.6899
 6261TIP3    H240199   1.093   1.021  11.677 -2.3578 -0.4403 -0.1908
 6262TIP3   OH240200   4.494   4.099   4.885 -0.3402 -0.6172 -0.9807
 6262TIP3    H140201   4.542   4.048   4.951 -0.3651  0.0276 -0.4614
 6262TIP3    H240202   4.560   4.118   4.818 -0.1352 -0.6389 -0.7870
 6263TIP3   OH240203   4.435   1.536   1.411 -0.2757 -0.1167 -0.1720
 6263TIP3    H140204   4.443   1.490   1.495  0.6284  0.9206  0.3261
 6263TIP3    H240205   4.343   1.560   1.406 -0.5248 -0.9657  0.0962
 6264TIP3   OH240206   4.375   2.800   1.942 -0.3356 -0.2366 -0.4343
 6264TIP3    H140207   4.397   2.718   1.897 -1.6048 -1.0471  0.3442
 6264TIP3    H240208   4.459   2.837   1.968  0.2306 -2.3659  1.0374
 6265TIP3   OH240209   5.804   3.294   6.994  0.3188  0.5745 -0.1645
 6265TIP3    H140210   5.876   3.338   7.039  0.0333  2.2800 -1.2744
 6265TIP3    H240211   5.780   3.354   6.923 -1.5023 -0.4390 -0.4648
 6266TIP3   OH240212   6.426   4.634  16.622  0.0376 -0.0212 -0.0281
 6266TIP3    H140213   6.433   4.706  16.684  1.6246  1.0004 -1.3146
 6266TIP3    H240214   6.401   4.676  16.539 -0.2528 -1.1216 -0.5212
 6267TIP3   OH240215   3.695   6.566   0.991  0.8378 -0.2970  0.1000
 6267TIP3    H140216   3.767   6.585   1.052  0.4062  0.3290  0.4298
 6267TIP3    H240217   3.739   6.551   0.907  1.4195 -0.8516  0.4922
 6268TIP3   OH240218   1.294   1.739  12.033 -0.0286  0.3768 -0.0361
 6268TIP3    H140219   1.330   1.689  11.960  1.3439 -0.8568  1.4242
 6268TIP3    H240220   1.338   1.824  12.028 -1.1922  0.9408 -1.5859
 6269TIP3   OH240221   4.944   2.708  16.550  0.0287  0.2248 -0.4396
 6269TIP3    H140222   4.974   2.779  16.493 -0.4686  0.2970 -0.6128
 6269TIP3    H240223   4.850   2.721  16.558 -0.0211 -0.2341 -0.2160
 6270TIP3   OH240224   2.969   4.388   3.394 -0.2679 -0.0513 -0.1748
 6270TIP3    H140225   2.957   4.434   3.311 -4.1552  0.1275  0.2716
 6270TIP3    H240226   2.991   4.457   3.457 -0.0991  0.2518 -0.5629
 6271TIP3   OH240227   6.546   5.312  13.084  0.7598 -0.1308 -0.1290
 6271TIP3    H140228   6.500   5.228  13.076 -0.3914  0.2502  1.7998
 6271TIP3    H240229   6.514   5.364  13.010 -0.0670 -0.7208 -0.2004
 6272TIP3   OH240230   1.506   4.438  16.314 -0.0199 -1.3852  0.3733
 6272TIP3    H140231   1.435   4.377  16.295 -0.6950 -0.5625  0.2234
 6272TIP3    H240232   1.512   4.493  16.236  0.5568 -1.2249  0.5248
 6273TIP3   OH240233   4.902   5.051   5.711 -0.1602 -0.1562  0.7684
 6273TIP3    H140234   4.868   4.974   5.667 -0.6004  0.3887  0.1219
 6273TIP3    H240235   4.829   5.084   5.763 -0.8462  1.2836 -0.9856
 6274TIP3   OH240236   2.021   3.357  11.009  0.3945  0.3620  0.4407
 6274TIP3    H140237   1.952   3.408  11.053 -0.0459  0.1796 -0.0209
 6274TIP3    H240238   1.990   3.266  11.014  1.5501  0.0152  1.9467
 6275TIP3   OH240239   1.799   6.036  15.660  0.3966  0.2163  0.4034
 6275TIP3    H140240   1.758   5.959  15.699 -1.8455  0.5862 -0.9915
 6275TIP3    H240241   1.808   6.013  15.567  0.7893  1.1857  0.1913
 6276TIP3   OH240242   0.728   3.432   4.961 -0.5570 -0.2505 -0.4141
 6276TIP3    H140243   0.700   3.523   4.960 -0.4139 -0.1985 -1.8645
 6276TIP3    H240244   0.801   3.430   5.023 -1.8945  0.1725  1.2486
 6277TIP3   OH240245   4.798   0.378   2.067  0.2162 -0.3212  0.3199
 6277TIP3    H140246   4.763   0.375   1.978 -0.6786  0.2741  0.6393
 6277TIP3    H240247   4.891   0.354   2.058 -0.0680 -1.1023 -0.6544
 6278TIP3   OH240248   2.428   3.514  16.998  0.6690 -0.6329  0.9286
 6278TIP3    H140249   2.355   3.534  17.057 -0.0932 -3.6522  1.1644
 6278TIP3    H240250   2.500   3.490  17.057  0.4252 -1.9988  0.7035
 6279TIP3   OH240251   0.450   2.401   5.404 -0.2604  0.4127 -0.7316
 6279TIP3    H140252   0.457   2.414   5.499 -0.8690 -0.5218 -0.5449
 6279TIP3    H240253   0.488   2.480   5.366  2.0898 -0.1522  0.2623
 6280TIP3   OH240254   5.520   5.091   0.727 -0.1486 -0.1964  0.5456
 6280TIP3    H140255   5.461   5.017   0.734  0.6874 -0.9092  0.2585
 6280TIP3    H240256   5.472   5.164   0.766 -1.2499 -0.7229  0.2234
 6281TIP3   OH240257   6.334   2.627  16.827 -0.2961 -0.2821  0.4167
 6281TIP3    H140258   6.250   2.582  16.823 -0.9492  0.9632 -0.1480
 6281TIP3    H240259   6.364   2.614  16.917 -0.8963 -1.0540  0.5137
 6282TIP3   OH240260   3.687   2.984   1.994  0.1159  0.3752  0.2202
 6282TIP3    H140261   3.624   2.960   2.062  0.7176  0.9653  1.0036
 6282TIP3    H240262   3.633   3.020   1.923 -0.4932  0.0556  0.5171
 6283TIP3   OH240263   1.780   3.929   5.059 -0.3908 -0.0332 -0.5395
 6283TIP3    H140264   1.851   3.919   5.122  0.0088  0.9706 -0.8133
 6283TIP3    H240265   1.733   3.846   5.063 -0.6778  0.1747  1.4387
 6284TIP3   OH240266   6.006   0.628   2.482 -0.0092  0.4001 -0.2868
 6284TIP3    H140267   6.045   0.548   2.515  0.7508  0.8304 -0.1102
 6284TIP3    H240268   5.949   0.599   2.411 -0.0235 -0.3255  0.0128
 6285TIP3   OH240269   0.132   6.111   5.254  0.3386 -0.0404 -0.4284
 6285TIP3    H140270   0.120   6.129   5.347 -1.3347 -2.1000 -0.1576
 6285TIP3    H240271   0.112   6.018   5.245 -0.1652  0.2306 -2.9612
 6286TIP3   OH240272   3.272   0.598   1.531 -0.4322  0.0716  0.2566
 6286TIP3    H140273   3.357   0.636   1.511 -0.9927  1.7630  0.8954
 6286TIP3    H240274   3.240   0.648   1.607 -1.9540 -0.5790  0.0959
 6287TIP3   OH240275   1.452   0.674  13.458 -0.7301  0.2671 -0.3647
 6287TIP3    H140276   1.419   0.589  13.428 -1.9571 -0.5757  2.9128
 6287TIP3    H240277   1.383   0.736  13.437 -1.2659 -0.1725  0.0498
 6288TIP3   OH240278   1.676   0.847   5.751  0.3702 -0.4828  0.5301
 6288TIP3    H140279   1.695   0.853   5.657 -0.2898 -0.2036  0.4130
 6288TIP3    H240280   1.623   0.768   5.760  1.5990 -1.3147  0.8741
 6289TIP3   OH240281   4.165   2.664   0.590 -0.4507 -0.3016  0.3007
 6289TIP3    H140282   4.072   2.675   0.569 -0.8072 -2.5790  0.3785
 6289TIP3    H240283   4.199   2.753   0.601 -2.5760  0.5778  0.1165
 6290TIP3   OH240284   1.901   5.949  13.152 -0.2234 -0.0148 -0.1196
 6290TIP3    H140285   1.807   5.943  13.133 -0.0155  1.3901 -1.8543
 6290TIP3    H240286   1.908   6.023  13.213 -0.3804 -1.2242  1.4106
 6291TIP3   OH240287   2.060   3.695   2.062 -0.5512  0.4603  0.4961
 6291TIP3    H140288   2.074   3.738   1.978 -0.0754 -1.6261 -0.5527
 6291TIP3    H240289   2.087   3.759   2.127  1.4781  1.2311 -1.0290
 6292TIP3   OH240290   0.117   5.469   3.558 -0.0046  0.0902 -0.3976
 6292TIP3    H140291   0.060   5.411   3.608 -0.1436 -0.9698 -1.7196
 6292TIP3    H240292   0.151   5.531   3.622 -2.6873  0.8191  0.4052
 6293TIP3   OH240293   0.178   2.301   0.128 -0.5805  0.0335 -0.3946
 6293TIP3    H140294   0.090   2.339   0.133  0.1608  1.9705 -1.0953
 6293TIP3    H240295   0.163   2.206   0.124 -2.5893  0.2870  0.1887
 6294TIP3   OH240296   0.748   2.841   2.877  0.2857 -0.7859  0.1055
 6294TIP3    H140297   0.683   2.774   2.857 -0.1343 -0.2264 -0.4352
 6294TIP3    H240298   0.745   2.850   2.973  0.3121 -1.4995  0.1770
 6295TIP3   OH240299   3.508   3.371   0.983 -0.7401 -0.1689  0.4611
 6295TIP3    H140300   3.485   3.456   0.944  0.5332  1.0863  2.2915
 6295TIP3    H240301   3.582   3.340   0.931  0.2253  0.9454  1.1321
 6296TIP3   OH240302   6.247   4.340   3.461  0.2524  0.2585 -0.6994
 6296TIP3    H140303   6.154   4.362   3.461  0.2669  0.3238 -0.9336
 6296TIP3    H240304   6.277   4.361   3.372  0.3741 -0.2644 -0.7842
 6297TIP3   OH240305   2.921   2.682  14.493 -0.2646  0.6383 -0.0706
 6297TIP3    H140306   3.001   2.692  14.544  0.2854  0.6749 -0.9119
 6297TIP3    H240307   2.918   2.589  14.471 -0.6461  0.5710  0.2570
 6298TIP3   OH240308   4.935   3.113  16.937 -0.3694 -0.1484 -0.2454
 6298TIP3    H140309   4.924   3.060  16.858  2.3204 -1.4340  0.1242
 6298TIP3    H240310   4.852   3.103  16.984 -0.8649 -2.0108 -1.3836
 6299TIP3   OH240311   6.222   5.672   5.089 -0.0530  0.4552 -0.1288
 6299TIP3    H140312   6.288   5.735   5.061  0.1344 -0.2390 -1.2764
 6299TIP3    H240313   6.263   5.625   5.161  1.1720 -0.7373 -1.5484
 6300TIP3   OH240314   1.864   4.099  17.288 -0.0623 -0.1462  0.5938
 6300TIP3    H140315   1.864   4.008  17.318 -3.3950 -0.8867 -1.1915
 6300TIP3    H240316   1.885   4.093  17.194 -0.9464  0.8467  0.3168
 6301TIP3   OH240317   3.032   4.499  14.323 -0.2212  0.2689 -0.1790
 6301TIP3    H140318   3.105   4.537  14.274 -0.1461 -1.6420 -1.6566
 6301TIP3    H240319   2.977   4.457  14.257 -1.4878 -0.2393  1.1363
 6302TIP3   OH240320   3.002   0.343   2.729 -0.8604  0.5957 -0.2809
 6302TIP3    H140321   2.936   0.412   2.735 -3.2444 -1.5203 -0.7385
 6302TIP3    H240322   3.078   0.386   2.691 -1.0294  3.7122  2.4852
 6303TIP3   OH240323   5.195   4.550  15.475 -0.1075  0.0420 -0.6338
 6303TIP3    H140324   5.202   4.633  15.427  0.3805  0.4973  0.1892
 6303TIP3    H240325   5.285   4.530  15.502 -0.4042 -0.0169  0.3623
 6304TIP3   OH240326   3.035   1.383  13.780  0.1177  0.0721 -0.2853
 6304TIP3    H140327   3.081   1.336  13.710 -1.5257  0.3269 -1.5955
 6304TIP3    H240328   3.059   1.475  13.768  0.0430  0.0832 -0.3499
 6305TIP3   OH240329   2.718   3.792  12.520 -0.7138  0.0117  0.1007
 6305TIP3    H140330   2.681   3.810  12.434  0.5660 -0.8048 -0.6540
 6305TIP3    H240331   2.738   3.878  12.557  1.5962  0.3814 -1.7557
 6306TIP3   OH240332   1.757   5.038   0.971 -0.0962  0.1101  0.1947
 6306TIP3    H140333   1.792   5.127   0.966  0.7958 -0.2332  0.1277
 6306TIP3    H240334   1.805   4.998   1.043  0.4177 -0.6935 -0.5659
 6307TIP3   OH240335   5.446   2.126   0.519  0.3110  0.3914  0.0602
 6307TIP3    H140336   5.426   2.064   0.449  1.1229  1.4755 -1.1786
 6307TIP3    H240337   5.530   2.097   0.555  0.3910  0.4101 -0.1113
 6308TIP3   OH240338   4.237   0.947  16.896 -0.4935  0.3256  0.0706
 6308TIP3    H140339   4.175   0.880  16.869  0.4058  0.1967 -1.8670
 6308TIP3    H240340   4.258   0.925  16.987 -1.1107 -1.3268 -0.1480
 6309TIP3   OH240341   2.804   4.509  15.853  0.2529 -0.7303  0.0511
 6309TIP3    H140342   2.794   4.516  15.758  2.5127  0.0416 -0.1959
 6309TIP3    H240343   2.867   4.577  15.876 -0.2116 -0.9147  2.1293
 6310TIP3   OH240344   6.114   1.157  12.262  0.3470 -0.6002 -0.0872
 6310TIP3    H140345   6.158   1.223  12.315 -2.3081  0.2345  1.3039
 6310TIP3    H240346   6.140   1.177  12.172  0.4092  1.7544  0.3917
 6311TIP3   OH240347   1.150   5.804   3.806  0.1872 -0.5284  0.1923
 6311TIP3    H140348   1.234   5.798   3.851 -0.3472  1.7402  1.6708
 6311TIP3    H240349   1.167   5.861   3.731 -0.5200  2.5826  2.2013
 6312TIP3   OH240350   2.861   1.755  11.085  0.3925  0.3353 -0.4543
 6312TIP3    H140351   2.788   1.791  11.036  0.4685  0.5586 -0.4050
 6312TIP3    H240352   2.924   1.827  11.091 -0.1102  0.6888  0.9799
 6313TIP3   OH240353   2.511   5.854  13.346  0.4691 -0.3213  0.0730
 6313TIP3    H140354   2.423   5.816  13.343  0.6375 -0.8499  1.4210
 6313TIP3    H240355   2.568   5.782  13.375  1.3476  0.0384 -0.6747
 6314TIP3   OH240356   1.518   6.076  15.050  0.2560  0.4256 -0.0487
 6314TIP3    H140357   1.558   5.989  15.060 -0.0611  0.0541 -1.6381
 6314TIP3    H240358   1.457   6.083  15.123 -1.4406 -1.7041 -1.1466
 6315TIP3   OH240359   0.396   5.376  16.411 -0.2908  0.2919 -0.0206
 6315TIP3    H140360   0.334   5.304  16.423 -0.4012  0.1760 -1.1770
 6315TIP3    H240361   0.459   5.364  16.482 -1.0252 -0.1804  0.5729
 6316TIP3   OH240362   3.513   1.673   2.174 -0.6422  0.4137 -0.3096
 6316TIP3    H140363   3.604   1.654   2.198 -0.2721  0.7270 -1.3985
 6316TIP3    H240364   3.495   1.757   2.216 -0.6856 -0.0011  0.5257
 6317TIP3   OH240365   2.969   6.426  14.342  0.3589  0.0569  0.2139
 6317TIP3    H140366   2.948   6.447  14.433 -0.6345  0.7311 -0.1532
 6317TIP3    H240367   2.979   6.331  14.341 -1.4605 -0.1796  0.6882
 6318TIP3   OH240368   1.065   0.765  15.654  0.2150  0.2700 -0.1868
 6318TIP3    H140369   1.103   0.825  15.589 -1.4810  0.5220 -0.9959
 6318TIP3    H240370   0.982   0.806  15.679 -1.8067 -2.4412 -1.9422
 6319TIP3   OH240371   2.342   1.622  14.955 -0.1128 -0.3361 -0.2432
 6319TIP3    H140372   2.410   1.579  15.007  0.2905  0.9312  0.2989
 6319TIP3    H240373   2.268   1.561  14.958  0.3512 -0.8772  0.7263
 6320TIP3   OH240374   1.548   5.423   0.992  0.5717  0.6912 -0.2203
 6320TIP3    H140375   1.516   5.333   0.985 -1.6233  1.5041 -1.4441
 6320TIP3    H240376   1.596   5.439   0.910  1.2788  0.5544  0.1537
 6321TIP3   OH240377   5.377   5.326  14.919 -0.4727  0.4063  0.0272
 6321TIP3    H140378   5.330   5.251  14.882 -2.5027  2.3556 -1.5975
 6321TIP3    H240379   5.371   5.313  15.014 -2.1486 -0.6991 -0.1799
 6322TIP3   OH240380   2.518   0.790   0.927 -0.1864  0.2919 -0.3392
 6322TIP3    H140381   2.525   0.788   1.023  0.1245  0.3172 -0.3598
 6322TIP3    H240382   2.439   0.840   0.910 -1.6419 -1.7571 -0.0393
 6323TIP3   OH240383   6.316   4.926  12.273 -0.1519 -0.4602 -0.0328
 6323TIP3    H140384   6.289   4.845  12.230 -1.4999 -2.0895  3.5017
 6323TIP3    H240385   6.250   4.941  12.341  2.0973  1.5170  1.9076
 6324TIP3   OH240386   0.726   5.838  14.324  0.6224 -0.2744  0.2670
 6324TIP3    H140387   0.705   5.887  14.404  0.9835 -0.0604  0.2369
 6324TIP3    H240388   0.748   5.750  14.354 -0.5828 -0.5826  0.2677
 6325TIP3   OH240389   3.568   1.325   3.030  0.1641  0.3914 -0.1889
 6325TIP3    H140390   3.500   1.258   3.040  2.5843 -2.3809 -0.9549
 6325TIP3    H240391   3.529   1.392   2.974 -1.3882 -1.9424 -2.0555
 6326TIP3   OH240392   5.550   3.691   3.693  0.5087 -0.1946 -0.2837
 6326TIP3    H140393   5.540   3.612   3.639 -1.0516  1.0560 -1.9423
 6326TIP3    H240394   5.468   3.739   3.681  1.2397  1.4885  1.0274
 6327TIP3   OH240395   6.426   6.686   2.770  0.1062  0.3947  0.0202
 6327TIP3    H140396   6.401   6.599   2.802 -1.6300  0.4253 -1.1542
 6327TIP3    H240397   6.521   6.686   2.774  0.2128 -1.9672 -0.9480
 6328TIP3   OH240398   1.174   1.710   0.896  0.3720 -0.2186 -0.6856
 6328TIP3    H140399   1.157   1.748   0.982  2.0619  1.5916 -1.0882
 6328TIP3    H240400   1.224   1.631   0.914 -1.5799 -1.3317  0.0853
 6329TIP3   OH240401   5.139   2.627   0.565 -0.8938  0.0716 -0.1793
 6329TIP3    H140402   5.086   2.552   0.539 -2.6284  1.7090 -1.6446
 6329TIP3    H240403   5.210   2.630   0.501 -0.0863 -0.9648  0.6143
 6330TIP3   OH240404   0.790   4.338  13.811  0.1701  0.3493 -0.3026
 6330TIP3    H140405   0.871   4.381  13.783  0.3536  0.1036 -0.1586
 6330TIP3    H240406   0.747   4.312  13.729  0.2602  0.4415 -0.3792
 6331TIP3   OH240407   0.175   2.513   2.718 -0.7094  0.1135  0.1757
 6331TIP3    H140408   0.213   2.486   2.635 -0.7552 -0.6090  0.3780
 6331TIP3    H240409   0.136   2.433   2.754  0.6995  0.0378  1.6357
 6332TIP3   OH240410   0.929   3.482  13.437  0.2500 -0.2564 -0.4757
 6332TIP3    H140411   0.835   3.499  13.431  0.3129  0.1969 -0.1720
 6332TIP3    H240412   0.970   3.554  13.390  0.5188  0.5206  0.9001
 6333TIP3   OH240413   1.433   5.198  16.047 -0.5799 -0.3134 -0.7336
 6333TIP3    H140414   1.507   5.240  16.003  0.7947  0.0199  1.7148
 6333TIP3    H240415   1.426   5.112  16.006  1.0811 -0.2911 -1.1080
 6334TIP3   OH240416   3.461   1.680   1.628  0.0840  0.0743  0.3169
 6334TIP3    H140417   3.409   1.653   1.704 -1.8180 -0.9852 -1.2921
 6334TIP3    H240418   3.502   1.600   1.597 -2.7805 -0.5318 -2.3758
 6335TIP3   OH240419   1.205   2.672  13.919  0.8120  0.0895  0.2894
 6335TIP3    H140420   1.240   2.728  13.988  1.1381  1.8978 -1.2711
 6335TIP3    H240421   1.281   2.625  13.885  0.5453 -1.3554  1.5657
 6336TIP3   OH240422   1.844   3.454   4.683 -0.0405 -0.0114  0.1281
 6336TIP3    H140423   1.785   3.393   4.727  0.6880 -1.5571 -0.9485
 6336TIP3    H240424   1.910   3.475   4.749 -0.4991 -0.0968  0.6190
 6337TIP3   OH240425   5.100   4.286  16.375 -0.6269  0.4141  0.0478
 6337TIP3    H140426   5.191   4.288  16.345 -0.4857 -1.5763  0.1734
 6337TIP3    H240427   5.058   4.358  16.329  0.9015  1.0617 -0.4049
 6338TIP3   OH240428   1.778   4.955  12.200  0.3109  0.0575 -0.0175
 6338TIP3    H140429   1.710   5.021  12.186 -0.1154 -0.4864 -0.5957
 6338TIP3    H240430   1.833   4.991  12.269 -0.6465  0.4446  0.5593
 6339TIP3   OH240431   3.553   4.254  13.477 -0.1033  0.5425  0.0300
 6339TIP3    H140432   3.593   4.180  13.431  0.6677  1.4675 -0.8218
 6339TIP3    H240433   3.593   4.251  13.564 -1.3740 -1.0524  0.6250
 6340TIP3   OH240434   3.265   6.444  16.416 -0.0099 -0.2753 -0.0317
 6340TIP3    H140435   3.243   6.530  16.380 -0.1169 -0.1964  0.2199
 6340TIP3    H240436   3.349   6.458  16.461 -0.6512  0.0047  1.1063
 6341TIP3   OH240437   3.808   3.061  11.921 -0.1229 -0.3684 -0.3481
 6341TIP3    H140438   3.759   3.136  11.954 -0.1639 -1.2806  1.8464
 6341TIP3    H240439   3.771   3.044  11.834 -1.4821  0.9102 -0.0511
 6342TIP3   OH240440   0.495   0.730  13.595 -0.0342  0.0080  0.4641
 6342TIP3    H140441   0.488   0.764  13.684 -0.0417  0.6647  0.2126
 6342TIP3    H240442   0.575   0.769  13.560 -1.4402  1.9525 -0.7699
 6343TIP3   OH240443   5.082   0.916   4.030 -0.0682 -0.0771 -0.3431
 6343TIP3    H140444   5.121   0.983   3.974 -2.0705  1.3215 -0.1601
 6343TIP3    H240445   5.019   0.872   3.973 -1.8824  1.1338  0.6670
 6344TIP3   OH240446   4.940   2.874  11.442  0.8820 -0.2358 -0.1397
 6344TIP3    H140447   4.972   2.950  11.392 -0.4344  2.6697  3.0657
 6344TIP3    H240448   5.007   2.860  11.509  1.3952 -2.4286 -1.0268
 6345TIP3   OH240449   0.266   1.350   4.520 -0.2698 -0.9862  0.0068
 6345TIP3    H140450   0.241   1.438   4.547 -1.2876 -0.6494 -1.8863
 6345TIP3    H240451   0.356   1.359   4.487  0.6909 -1.2564  2.3010
 6346TIP3   OH240452   1.265   2.431   3.902  0.1264 -0.0388 -0.2308
 6346TIP3    H140453   1.327   2.481   3.956 -0.8355 -0.1688  1.0314
 6346TIP3    H240454   1.179   2.455   3.936 -0.4830 -0.6270 -1.3017
 6347TIP3   OH240455   1.039   1.071   0.035  0.8805  0.3623  0.4577
 6347TIP3    H140456   0.982   1.148   0.028 -1.1926 -1.1014  0.0333
 6347TIP3    H240457   1.076   1.076   0.123 -0.4586  1.0735  1.0190
 6348TIP3   OH240458   5.835   6.756   6.513 -0.5932 -0.2405  0.3508
 6348TIP3    H140459   5.845   6.787   6.603  0.0760 -0.5130  0.3731
 6348TIP3    H240460   5.891   6.679   6.507 -2.0719 -1.3479  0.2228
 6349TIP3   OH240461   6.329   4.929  10.693 -0.2989 -0.1696  0.0072
 6349TIP3    H140462   6.360   4.911  10.782  0.5064  0.8290 -0.0606
 6349TIP3    H240463   6.235   4.910  10.697  0.1412 -2.6017  0.3891
 6350TIP3   OH240464   4.350   2.211  14.325  0.0288 -0.3243 -0.2967
 6350TIP3    H140465   4.356   2.298  14.285  1.2437 -0.1749  0.1817
 6350TIP3    H240466   4.265   2.212  14.370  0.3468  0.8965  0.3195
 6351TIP3   OH240467   6.519   3.836   1.993 -0.1443 -1.5072  0.5258
 6351TIP3    H140468   6.501   3.819   2.085 -0.8036 -0.6000  0.5890
 6351TIP3    H240469   6.606   3.801   1.978 -0.2351 -2.1175  1.3656
 6352TIP3   OH240470   3.032   6.037  11.396 -0.9591  0.3815 -0.1284
 6352TIP3    H140471   2.939   6.017  11.385 -0.4969 -1.2526 -1.3936
 6352TIP3    H240472   3.077   5.958  11.368  0.8314  1.0621  0.6765
 6353TIP3   OH240473   1.320   1.330  14.714  0.5772 -0.0966 -0.2731
 6353TIP3    H140474   1.378   1.262  14.748  0.0461 -0.7180 -0.5856
 6353TIP3    H240475   1.242   1.324  14.768  0.8175  0.7789  0.1877
 6354TIP3   OH240476   2.830   0.554   2.674 -0.7528  0.0070  0.5126
 6354TIP3    H140477   2.766   0.588   2.737  0.4269  1.6786  0.8865
 6354TIP3    H240478   2.849   0.629   2.617  0.9947 -0.3781  0.5392
 6355TIP3   OH240479   2.883   1.001   4.299 -0.5133  0.1445 -0.1317
 6355TIP3    H140480   2.919   0.915   4.278 -0.4874  0.2085 -0.3486
 6355TIP3    H240481   2.823   1.020   4.228 -2.0380 -0.5675  0.9172
 6356TIP3   OH240482   3.169   5.194   0.375 -0.1792  0.6316 -0.2336
 6356TIP3    H140483   3.160   5.107   0.413  4.1935 -0.3374 -0.8480
 6356TIP3    H240484   3.203   5.248   0.446 -0.9732  1.3251 -0.3725
 6357TIP3   OH240485   6.044   6.632  16.765 -0.0285 -0.0788 -0.2278
 6357TIP3    H140486   6.043   6.539  16.744  1.2091 -0.4249  1.0772
 6357TIP3    H240487   6.067   6.675  16.683 -0.2859 -0.9480 -0.7721
 6358TIP3   OH240488   2.568   3.816  11.246  0.2047 -0.4154  0.6771
 6358TIP3    H140489   2.609   3.759  11.181 -0.3155 -0.5281  0.4413
 6358TIP3    H240490   2.474   3.805  11.232  0.0125  2.2490 -0.9654
 6359TIP3   OH240491   3.045   1.785   4.454  0.4316  0.5470  0.1594
 6359TIP3    H140492   3.015   1.848   4.519 -0.0913 -0.2494  0.7114
 6359TIP3    H240493   3.043   1.833   4.371  2.5409  2.0539  0.8815
 6360TIP3   OH240494   0.048   6.531   6.257 -0.9817 -0.4109  0.1679
 6360TIP3    H140495   0.070   6.445   6.222 -2.0358 -1.3389  1.7126
 6360TIP3    H240496  -0.026   6.516   6.315 -1.0244  1.5023  0.6753
 6361TIP3   OH240497   2.045   0.782   1.682  0.1041  0.1266 -0.5722
 6361TIP3    H140498   2.126   0.803   1.635  3.0778 -0.3723  3.7543
 6361TIP3    H240499   2.005   0.867   1.700 -0.4676  0.3806 -2.6800
 6362TIP3   OH240500   4.390   0.115   1.327  0.0384 -0.4041 -0.4127
 6362TIP3    H140501   4.297   0.134   1.341 -0.1755 -0.6143 -1.4670
 6362TIP3    H240502   4.400   0.024   1.354  0.1348 -0.1243  0.5289
 6363TIP3   OH240503   0.835   6.277   2.334 -0.2670  0.1925  0.1843
 6363TIP3    H140504   0.894   6.222   2.282  0.2305  0.8964 -0.0221
 6363TIP3    H240505   0.755   6.282   2.282  0.2858  1.0216 -0.6172
 6364TIP3   OH240506   1.724   0.719  13.416  0.3442  0.7057  1.0776
 6364TIP3    H140507   1.628   0.716  13.414  0.3847 -1.9585 -1.0854
 6364TIP3    H240508   1.743   0.774  13.492 -2.8784  0.3420  2.3460
 6365TIP3   OH240509   3.847   1.199  15.253 -0.6235  0.0191 -0.2453
 6365TIP3    H140510   3.856   1.173  15.162 -0.2396 -0.2333 -0.1362
 6365TIP3    H240511   3.796   1.128  15.294 -1.3263  0.4259 -0.3932
 6366TIP3   OH240512   5.239   0.611   1.428 -0.7041 -0.4304  0.0904
 6366TIP3    H140513   5.229   0.667   1.505  0.5297 -0.4587  0.2983
 6366TIP3    H240514   5.294   0.539   1.459 -1.3858 -1.1996 -0.4511
 6367TIP3   OH240515   1.121   1.263  15.868 -0.0940  0.3733 -0.1474
 6367TIP3    H140516   1.119   1.347  15.822  0.2819  1.0468  1.0143
 6367TIP3    H240517   1.212   1.234  15.862  0.5862  1.7215  2.2593
 6368TIP3   OH240518   1.068   6.469   0.400  0.1222 -0.6854  0.0075
 6368TIP3    H140519   1.047   6.377   0.383  0.4825 -0.5818 -1.0705
 6368TIP3    H240520   1.025   6.517   0.330 -0.5632  0.0424  0.9032
 6369TIP3   OH240521   3.253   2.302   2.525 -0.5284 -0.3001  0.0660
 6369TIP3    H140522   3.235   2.375   2.584 -1.3485  0.6597 -1.3097
 6369TIP3    H240523   3.247   2.224   2.580  0.3294  0.6609  1.5571
 6370TIP3   OH240524   5.108   2.211  15.796 -0.4037  0.3333 -0.5286
 6370TIP3    H140525   5.104   2.245  15.885  0.5905 -0.9682  0.0550
 6370TIP3    H240526   5.137   2.284  15.743  0.6303  0.6911  0.4970
 6371TIP3   OH240527   4.089   3.687  14.073  0.3698  0.1668  0.6067
 6371TIP3    H140528   4.151   3.666  14.004 -0.2782  0.5463 -0.1090
 6371TIP3    H240529   4.142   3.727  14.142  1.1984 -1.2771  0.8404
 6372TIP3   OH240530   5.520   4.962  16.594 -0.5558  0.2503 -0.0392
 6372TIP3    H140531   5.426   4.981  16.589 -0.3983  1.6717  1.7269
 6372TIP3    H240532   5.554   5.022  16.660  1.8999  0.8488 -1.6977
 6373TIP3   OH240533   0.386   2.744  11.596  0.2628  0.2232  0.3796
 6373TIP3    H140534   0.467   2.780  11.558  1.3807 -1.8679  0.6222
 6373TIP3    H240535   0.413   2.660  11.633 -2.0494 -0.5239  0.4914
 6374TIP3   OH240536   0.612   5.990  16.743  0.5781  0.4562 -0.6736
 6374TIP3    H140537   0.657   5.933  16.804 -0.2151  0.4492 -0.0755
 6374TIP3    H240538   0.663   6.071  16.742  0.9235  0.2413 -0.4654
 6375TIP3   OH240539   5.696   5.506   4.556  0.2345  0.0931  0.2429
 6375TIP3    H140540   5.627   5.552   4.604 -0.8419 -2.0185  0.8154
 6375TIP3    H240541   5.776   5.555   4.577 -0.3538 -0.1156  3.4145
 6376TIP3   OH240542   5.034   6.659   0.029  0.3092  0.0295  0.1917
 6376TIP3    H140543   5.112   6.709   0.004  0.0221 -0.5644 -2.1483
 6376TIP3    H240544   5.068   6.578   0.066  0.8753 -0.4468 -1.2817
 6377TIP3   OH240545   2.895   5.997  11.883 -0.1228  0.1669 -0.1468
 6377TIP3    H140546   2.885   5.990  11.977  0.5906  0.3471 -0.0465
 6377TIP3    H240547   2.919   5.909  11.854  1.3109  0.4582  0.0792
 6378TIP3   OH240548   6.460   2.029  13.024 -0.1462 -0.3742 -0.1175
 6378TIP3    H140549   6.481   1.966  13.094 -2.7457 -1.2635 -0.0331
 6378TIP3    H240550   6.393   2.086  13.062  0.0923  0.6296 -1.1443
 6379TIP3   OH240551   0.749   1.374   2.908  0.3564 -0.1461  0.0508
 6379TIP3    H140552   0.704   1.290   2.909  0.2871 -0.0987  0.8568
 6379TIP3    H240553   0.837   1.354   2.941  0.5662 -0.0257 -0.4221
 6380TIP3   OH240554   6.125   3.721  13.749 -0.2005  0.5511 -0.3259
 6380TIP3    H140555   6.180   3.750  13.676 -2.8288  2.2010 -1.8398
 6380TIP3    H240556   6.124   3.626  13.742 -2.7381  0.6241 -4.5905
 6381TIP3   OH240557   2.827   6.763   2.854 -0.6251 -0.5855  0.2306
 6381TIP3    H140558   2.802   6.687   2.907 -2.1448 -0.1950  0.1219
 6381TIP3    H240559   2.834   6.835   2.917  0.4183 -0.7147  0.2777
 6382TIP3   OH240560   0.581   2.517   2.249  0.3157  0.1113 -0.3673
 6382TIP3    H140561   0.501   2.569   2.250  0.6786  0.6622  0.7229
 6382TIP3    H240562   0.550   2.427   2.238 -0.4173  0.3802 -0.5738
 6383TIP3   OH240563   0.494   3.596  10.777  0.4104 -0.2746 -0.1915
 6383TIP3    H140564   0.484   3.617  10.684 -0.1638  0.4655  0.0276
 6383TIP3    H240565   0.484   3.501  10.782 -2.3560 -0.0949 -0.5698
 6384TIP3   OH240566   5.860   4.094  14.503  0.4982 -0.3838  0.0820
 6384TIP3    H140567   5.940   4.043  14.517  0.2838 -0.8699 -0.4226
 6384TIP3    H240568   5.790   4.041  14.541  0.1888 -0.7840 -0.9949
 6385TIP3   OH240569   4.409   4.488   0.627 -0.3655 -0.0153 -0.4172
 6385TIP3    H140570   4.485   4.544   0.645  0.4411 -1.4076  0.7672
 6385TIP3    H240571   4.336   4.535   0.666 -0.0129  1.0078 -0.9366
 6386TIP3   OH240572   3.914   5.055   0.563  0.4009  0.6272 -0.1333
 6386TIP3    H140573   3.823   5.036   0.542  0.2537 -2.8253  2.7315
 6386TIP3    H240574   3.912   5.143   0.602 -1.4866  0.9855 -0.9233
 6387TIP3   OH240575   4.573   5.284  14.879  0.2224 -0.1124  0.0695
 6387TIP3    H140576   4.584   5.376  14.857 -0.2155 -0.0825 -0.0317
 6387TIP3    H240577   4.608   5.276  14.968  0.1097  0.1838  0.1400
 6388TIP3   OH240578   3.143   4.313   0.340  0.0635  0.7275 -0.2908
 6388TIP3    H140579   3.198   4.375   0.386  0.1657 -0.1501  0.7993
 6388TIP3    H240580   3.064   4.306   0.393  0.6517 -1.1469  0.3962
 6389TIP3   OH240581   4.226   0.946  16.563 -0.1473  0.0139 -0.4316
 6389TIP3    H140582   4.194   0.857  16.554 -0.5188 -0.0121  0.9693
 6389TIP3    H240583   4.317   0.936  16.591  0.2068  0.0937 -1.4989
 6390TIP3   OH240584   0.296   6.582  12.380 -0.4709  0.5790  0.6612
 6390TIP3    H140585   0.261   6.623  12.302 -0.0670  0.8354  0.6136
 6390TIP3    H240586   0.275   6.642  12.451 -1.0185  0.2507  0.7872
 6391TIP3   OH240587   1.160   3.006  13.281 -0.5973 -0.2704  0.7447
 6391TIP3    H140588   1.219   2.959  13.340 -0.0325  2.3981  2.4535
 6391TIP3    H240589   1.171   3.098  13.303 -1.9880  0.7128 -2.1129
 6392TIP3   OH240590   0.116   6.406   1.572  0.0537 -0.3851  0.3297
 6392TIP3    H140591   0.112   6.399   1.477  1.1652 -1.1110  0.3197
 6392TIP3    H240592   0.196   6.455   1.590 -0.2653 -0.0524  0.8851
 6393TIP3   OH240593   0.830   2.027   4.438 -0.3152  0.1084 -0.7483
 6393TIP3    H140594   0.779   2.077   4.374 -3.2826  0.3134  1.5662
 6393TIP3    H240595   0.773   1.953   4.461  1.2028 -0.6661  0.6953
 6394TIP3   OH240596   0.271   0.394  15.590 -0.2261  0.0080  0.3821
 6394TIP3    H140597   0.325   0.316  15.605 -0.5176 -0.5805 -1.4176
 6394TIP3    H240598   0.217   0.371  15.515 -0.0669  2.0804 -0.4148
 6395TIP3   OH240599   2.962   1.531  11.240  0.4563 -0.5503 -0.4029
 6395TIP3    H140600   3.052   1.510  11.212  0.6300 -1.2173  0.6061
 6395TIP3    H240601   2.930   1.592  11.173  2.0646  0.6212 -0.1681
 6396TIP3   OH240602   5.126   4.242  14.245 -0.0049  0.5937 -0.3392
 6396TIP3    H140603   5.047   4.296  14.245  0.4016  1.3670  2.4896
 6396TIP3    H240604   5.197   4.303  14.225  0.0017  0.0867 -1.9497
 6397TIP3   OH240605   2.413   0.772   5.042 -0.7470  0.1678  0.0252
 6397TIP3    H140606   2.407   0.687   5.085  0.8608  0.8944  1.8477
 6397TIP3    H240607   2.495   0.768   4.994 -1.0734  0.4155 -0.5579
 6398TIP3   OH240608   5.679   1.100  14.081  0.2335 -0.1505 -0.2619
 6398TIP3    H140609   5.774   1.101  14.073  0.1490  0.4607 -1.6092
 6398TIP3    H240610   5.662   1.087  14.174  1.5980 -3.0443 -0.2917
 6399TIP3   OH240611   0.056   4.942   2.596  0.2754 -0.0738  0.1349
 6399TIP3    H140612   0.010   4.989   2.666 -1.0658 -0.5392 -0.4241
 6399TIP3    H240613   0.100   4.869   2.642  1.1238  0.8090  0.7749
 6400TIP3   OH240614   1.660   0.881   5.171  0.5714 -0.4780  0.4758
 6400TIP3    H140615   1.658   0.970   5.136  1.7570 -1.1857 -1.6090
 6400TIP3    H240616   1.752   0.865   5.191  0.4923 -1.4652  0.1312
 6401TIP3   OH240617   3.024   5.123  12.156 -0.0117 -0.2719  0.2672
 6401TIP3    H140618   2.996   5.057  12.093  1.2183  0.5204 -1.1661
 6401TIP3    H240619   3.022   5.205  12.107  0.9422  0.3736  1.2692
 6402TIP3   OH240620   2.684   4.499  16.865 -0.1858  0.6156 -0.7179
 6402TIP3    H140621   2.745   4.452  16.922  0.6536 -0.8557 -2.7159
 6402TIP3    H240622   2.604   4.446  16.867 -1.2621  2.1773  1.3591
 6403TIP3   OH240623   5.093   3.785   3.395 -0.2815  0.1365 -0.2097
 6403TIP3    H140624   5.087   3.712   3.457  0.2849 -0.8798 -1.2941
 6403TIP3    H240625   5.089   3.864   3.449  0.8586 -0.7225  1.1879
 6404TIP3   OH240626   2.966   4.993  13.122  0.4176  0.2781 -0.4631
 6404TIP3    H140627   2.988   5.074  13.167 -1.5524  0.3275  0.5337
 6404TIP3    H240628   2.957   5.018  13.030 -1.5876  1.5468  0.0318
 6405TIP3   OH240629   6.463   6.391  12.362  0.4101 -0.0121  0.6981
 6405TIP3    H140630   6.484   6.482  12.340 -1.8675  0.5653  0.7116
 6405TIP3    H240631   6.391   6.368  12.304  0.8498 -1.8001  0.7994
 6406TIP3   OH240632   6.002   1.807   0.447  0.6343 -0.2029  0.4659
 6406TIP3    H140633   5.978   1.893   0.414  1.3992 -0.1926 -0.0793
 6406TIP3    H240634   5.939   1.747   0.405 -0.3033  0.1425  1.3353
 6407TIP3   OH240635   0.836   3.342   4.031 -0.1804 -0.1915 -0.2843
 6407TIP3    H140636   0.831   3.414   4.094  2.0069 -0.4733  0.2775
 6407TIP3    H240637   0.822   3.263   4.084 -0.4858 -0.3119 -0.5395
 6408TIP3   OH240638   6.555   0.828  10.657 -0.1195  0.6882  0.4245
 6408TIP3    H140639   6.526   0.908  10.701 -0.9476  0.2845  0.6427
 6408TIP3    H240640   6.474   0.787  10.627  0.1790 -0.6192  1.2820
 6409TIP3   OH240641   4.236   1.195  16.383 -0.0859 -0.1781  0.0537
 6409TIP3    H140642   4.214   1.104  16.405 -2.6711  0.3652 -0.0246
 6409TIP3    H240643   4.211   1.204  16.292  2.4639  0.0155 -0.7071
 6410TIP3   OH240644   3.503   6.418   1.411 -0.0214 -0.2508  0.8934
 6410TIP3    H140645   3.588   6.454   1.385 -0.1611 -0.6033 -0.1288
 6410TIP3    H240646   3.439   6.479   1.375 -0.2070 -0.1208  1.4416
 6411TIP3   OH240647   0.209   0.017  16.919 -0.6438 -0.2782 -0.6411
 6411TIP3    H140648   0.233   0.102  16.882  3.6561 -0.2107  1.7102
 6411TIP3    H240649   0.181   0.038  17.009  1.0074 -1.2994  0.1554
 6412TIP3   OH240650   5.876   3.296  17.146  0.2229  0.4298  0.9254
 6412TIP3    H140651   5.791   3.296  17.103  0.0547  1.4955  1.2396
 6412TIP3    H240652   5.908   3.385  17.137  1.0861  0.1649  1.2487
 6413TIP3   OH240653   5.311   3.613  11.512  0.5306 -0.5133  0.0434
 6413TIP3    H140654   5.360   3.693  11.489 -0.6238  0.5984  1.2787
 6413TIP3    H240655   5.263   3.591  11.433 -0.6247  1.1651  0.2330
 6414TIP3   OH240656   1.024   0.397   0.336  0.1378 -0.5848 -0.4605
 6414TIP3    H140657   0.969   0.470   0.362 -2.6314 -1.6617 -2.7618
 6414TIP3    H240658   1.099   0.437   0.292 -1.0358  0.8889 -1.1858
 6415TIP3   OH240659   6.064   3.450   0.575  0.5314  0.0661 -0.2622
 6415TIP3    H140660   6.072   3.477   0.666  1.1050  1.0407 -0.5886
 6415TIP3    H240661   6.071   3.355   0.577  1.6625  0.1541  0.6021
 6416TIP3   OH240662   2.907   4.070  12.599  0.0572 -0.4740  0.0926
 6416TIP3    H140663   2.816   4.054  12.624 -0.1431  1.1023  0.4854
 6416TIP3    H240664   2.925   4.158  12.631  1.9375 -0.9980  0.5914
 6417TIP3   OH240665   4.972   5.130  13.941  0.4682 -0.1689 -0.0801
 6417TIP3    H140666   4.951   5.217  13.909  2.9777  0.6489  0.2791
 6417TIP3    H240667   4.992   5.143  14.034  0.6889 -1.1598  0.0202
 6418TIP3   OH240668   1.778   5.305  16.450 -0.1995 -0.3730  0.9795
 6418TIP3    H140669   1.856   5.299  16.395 -0.2836  1.3472  0.6082
 6418TIP3    H240670   1.705   5.296  16.389 -0.2831  0.4823  0.9344
 6419TIP3   OH240671   3.908   6.500  15.426 -0.2822  0.1164  0.3439
 6419TIP3    H140672   3.920   6.405  15.423  1.6357  0.3294 -0.9648
 6419TIP3    H240673   3.862   6.521  15.345  0.6006  0.4003 -0.1089
 6420TIP3   OH240674   0.802   0.553   1.978  0.2561  0.2536  0.0394
 6420TIP3    H140675   0.876   0.509   2.019  0.1063  0.6491  0.7679
 6420TIP3    H240676   0.739   0.565   2.050 -1.7070 -2.4604 -1.0617
 6421TIP3   OH240677   5.060   1.510   1.588 -0.3078 -0.0208  0.3468
 6421TIP3    H140678   5.098   1.422   1.578 -0.8203 -0.1892 -0.1376
 6421TIP3    H240679   4.966   1.495   1.595 -0.3460  0.4463  0.9200
 6422TIP3   OH240680   2.269   3.441  10.969 -0.0009  0.3100 -0.0491
 6422TIP3    H140681   2.249   3.525  10.929 -0.1553 -0.2074 -1.1110
 6422TIP3    H240682   2.183   3.403  10.989 -0.1429 -1.0226 -2.7115
 6423TIP3   OH240683   1.190   6.047  12.251  0.1370  0.0380  0.2247
 6423TIP3    H140684   1.156   6.039  12.341 -0.0998  0.5078  0.1805
 6423TIP3    H240685   1.128   6.106  12.208  0.6628  0.4003 -0.0383
 6424TIP3   OH240686   4.421   0.973  14.522 -0.1869 -0.1625 -0.2474
 6424TIP3    H140687   4.343   1.027  14.508 -0.6859 -0.9011 -0.3373
 6424TIP3    H240688   4.387   0.886  14.539  0.6399 -1.0083 -2.5044
 6425TIP3   OH240689   1.063   0.641   5.450 -0.1627  0.0612  0.1076
 6425TIP3    H140690   1.078   0.718   5.394 -3.7857  2.1633  1.6861
 6425TIP3    H240691   1.038   0.678   5.535 -2.5440 -2.8171  0.8119
 6426TIP3   OH240692   2.158   3.157  16.947  0.0237  0.7257  0.2085
 6426TIP3    H140693   2.252   3.178  16.941  0.8366 -2.4771 -0.0453
 6426TIP3    H240694   2.122   3.182  16.862  0.9963  0.4749 -0.2883
 6427TIP3   OH240695   2.389   3.450  13.349 -0.0547  0.2075 -0.3348
 6427TIP3    H140696   2.424   3.362  13.362  0.7548  0.4633 -0.7218
 6427TIP3    H240697   2.455   3.508  13.388 -1.4963  0.5778  1.7328
 6428TIP3   OH240698   2.503   1.387  12.631  0.2076 -0.5928 -0.3757
 6428TIP3    H140699   2.455   1.368  12.550  1.5486 -0.0859 -1.3199
 6428TIP3    H240700   2.585   1.340  12.622  1.0966  0.8469 -0.0894
 6429TIP3   OH240701   6.719   4.925   4.281  0.4208 -0.1828 -0.0990
 6429TIP3    H140702   6.812   4.901   4.282  0.5435  0.2786 -0.2399
 6429TIP3    H240703   6.699   4.939   4.188  0.0082 -1.0417 -0.1484
 6430TIP3   OH240704   5.895   3.821  13.469 -0.2053 -0.5091  0.3435
 6430TIP3    H140705   5.911   3.845  13.560 -1.0361  0.2581  0.3058
 6430TIP3    H240706   5.822   3.760  13.473  0.8667 -1.8348  0.3066
 6431TIP3   OH240707   0.914   0.114   3.899  0.0021 -0.0932 -0.0417
 6431TIP3    H140708   0.823   0.139   3.914  0.4775  1.3286  0.7332
 6431TIP3    H240709   0.910   0.027   3.859 -1.6901  0.1042 -0.3468
 6432TIP3   OH240710   1.140   2.814  15.562 -0.2637 -0.1448  0.3484
 6432TIP3    H140711   1.078   2.849  15.498 -0.2263 -0.1083  0.3325
 6432TIP3    H240712   1.092   2.743  15.606  0.0516 -0.8401 -0.4156
 6433TIP3   OH240713   0.357   2.090   5.731  0.1398 -0.8231 -0.3819
 6433TIP3    H140714   0.447   2.104   5.757 -0.2325 -0.9995  1.1006
 6433TIP3    H240715   0.306   2.102   5.811 -1.1963 -0.3670 -1.2561
 6434TIP3   OH240716   1.755   1.213  14.201  0.3812  0.5968 -0.4617
 6434TIP3    H140717   1.700   1.138  14.222  1.3965 -0.0172  0.1451
 6434TIP3    H240718   1.743   1.273  14.275  3.5239 -1.3205  1.8990
 6435TIP3   OH240719   5.761   1.874  17.242  0.9506  0.2735  0.2432
 6435TIP3    H140720   5.745   1.917  17.158  2.5344 -0.0177 -0.2418
 6435TIP3    H240721   5.856   1.862  17.245  0.9610  0.4801  2.1823
 6436TIP3   OH240722   6.472   4.971  15.308 -0.0546  0.1576 -0.2279
 6436TIP3    H140723   6.405   4.952  15.373  0.7424 -0.6458  0.3799
 6436TIP3    H240724   6.492   4.886  15.268 -0.4068  0.6047 -1.4172
 6437TIP3   OH240725   2.412   6.213   3.891  0.7003 -0.4579 -0.2344
 6437TIP3    H140726   2.485   6.158   3.920  0.5793 -0.2545  0.4641
 6437TIP3    H240727   2.417   6.291   3.945 -0.1592 -0.5289 -0.0247
 6438TIP3   OH240728   4.219   3.966  15.136  0.4333 -0.2955  0.0052
 6438TIP3    H140729   4.210   4.057  15.166  2.5719 -0.1464  0.3821
 6438TIP3    H240730   4.158   3.916  15.191  1.1422  0.5655  1.6624
 6439TIP3   OH240731   0.403   2.478   2.874 -0.0118 -0.4402 -0.1086
 6439TIP3    H140732   0.310   2.492   2.857 -0.1585 -1.0315  0.1607
 6439TIP3    H240733   0.443   2.565   2.867 -0.8377  0.0857  1.2848
 6440TIP3   OH240734   3.221   2.336  12.161  0.2992  0.5994  0.1343
 6440TIP3    H140735   3.208   2.404  12.095 -0.3480  0.2646 -0.0969
 6440TIP3    H240736   3.139   2.336  12.211  1.2745  1.7568  1.8012
 6441TIP3   OH240737   5.049   2.859  14.306  0.1049  0.2450 -0.1013
 6441TIP3    H140738   5.124   2.914  14.329  2.1099 -1.8418 -1.1687
 6441TIP3    H240739   5.038   2.872  14.212  1.0252 -1.5310 -0.5000
 6442TIP3   OH240740   5.915   6.293   4.717  0.0233 -0.0190  0.1106
 6442TIP3    H140741   5.991   6.239   4.693 -0.0054 -0.1526  0.3235
 6442TIP3    H240742   5.904   6.279   4.811  0.6458  1.1513  0.3709
 6443TIP3   OH240743   5.971   4.746   5.851  0.1189 -0.0694  0.7155
 6443TIP3    H140744   6.022   4.671   5.883 -0.1432 -0.1096  1.0521
 6443TIP3    H240745   5.973   4.808   5.924 -0.7112 -0.2715  0.9196
 6444TIP3   OH240746   1.557   3.629   6.549  0.2810 -0.2325  0.0183
 6444TIP3    H140747   1.507   3.571   6.490 -1.0879  0.2596  0.6558
 6444TIP3    H240748   1.539   3.717   6.516 -0.7459  0.0719  1.3212
 6445TIP3   OH240749   1.231   6.134   4.076  0.3413  0.0151  0.0980
 6445TIP3    H140750   1.302   6.074   4.055  0.3622  0.2663 -0.5533
 6445TIP3    H240751   1.241   6.150   4.170  0.5782 -0.6791  0.1957
 6446TIP3   OH240752   2.553   4.860  13.294  0.4448  0.5354  0.3386
 6446TIP3    H140753   2.645   4.869  13.317  1.0236 -0.4574 -1.3861
 6446TIP3    H240754   2.545   4.770  13.261 -0.6645  1.2482 -1.5191
 6447TIP3   OH240755   1.783   5.750   6.409 -0.1934 -0.1799 -0.0418
 6447TIP3    H140756   1.782   5.667   6.363  0.5002  0.4382 -1.2321
 6447TIP3    H240757   1.743   5.812   6.348 -1.0507  0.3023  0.9716
 6448TIP3   OH240758   2.797   5.541   6.534 -0.4281  0.0666  0.2931
 6448TIP3    H140759   2.872   5.483   6.551 -0.9959 -1.5404 -2.1305
 6448TIP3    H240760   2.720   5.487   6.552 -1.0640  1.5167  2.1877
 6449TIP3   OH240761   2.802   6.120  12.100  0.7476 -0.0992  0.1679
 6449TIP3    H140762   2.800   6.125  12.196  2.2549  0.2415  0.2121
 6449TIP3    H240763   2.782   6.210  12.071 -0.6444 -0.4024  0.1104
 6450TIP3   OH240764   0.940   0.692   4.582 -0.6421  0.0747  0.1130
 6450TIP3    H140765   1.025   0.713   4.619 -1.4442  2.4763  0.7438
 6450TIP3    H240766   0.877   0.726   4.645 -2.0557  1.6115 -2.0072
 6451TIP3   OH240767   4.276   3.907   5.553 -0.3358  0.4598  0.5834
 6451TIP3    H140768   4.229   3.872   5.629  0.8988 -0.6590  0.8807
 6451TIP3    H240769   4.208   3.917   5.486 -1.0565 -0.9002  1.0566
 6452TIP3   OH240770   0.247   0.065  11.804  0.1778  0.0972 -0.7466
 6452TIP3    H140771   0.311   0.017  11.750 -1.8749 -1.9100 -1.5737
 6452TIP3    H240772   0.202   0.123  11.742 -0.2044 -0.0636 -0.6246
 6453TIP3   OH240773   3.316   2.533   2.005  0.6750 -0.0868  0.6357
 6453TIP3    H140774   3.284   2.538   2.095 -0.7498  0.3162  0.1268
 6453TIP3    H240775   3.340   2.441   1.993  0.0990 -0.3109  1.1648
 6454TIP3   OH240776   4.530   1.021   1.453  0.3422  0.3516  0.6075
 6454TIP3    H140777   4.554   0.947   1.398 -1.2206  0.0647  0.2448
 6454TIP3    H240778   4.453   0.990   1.502  0.5899  1.2251  1.5886
 6455TIP3   OH240779   5.477   5.508   3.822  0.8322 -0.0683 -0.3238
 6455TIP3    H140780   5.559   5.465   3.798  0.9327 -0.9989  1.4668
 6455TIP3    H240781   5.494   5.543   3.910 -0.2964  0.8135 -0.4399
 6456TIP3   OH240782   4.040   6.722  12.649  0.2434 -0.0616  0.3785
 6456TIP3    H140783   4.005   6.638  12.679  1.3913 -0.8463 -0.3505
 6456TIP3    H240784   4.134   6.715  12.664  0.6192  0.2785 -1.5149
 6457TIP3   OH240785   2.917   2.139  14.335  0.0685  0.1843  0.4078
 6457TIP3    H140786   2.875   2.121  14.250 -0.1660  0.3977  0.4769
 6457TIP3    H240787   3.008   2.158  14.314 -0.0313  0.4187  0.1835
 6458TIP3   OH240788   0.745   0.071  15.985 -0.2786 -0.2448 -0.5682
 6458TIP3    H140789   0.841   0.069  15.994 -0.1774 -0.1025 -1.5141
 6458TIP3    H240790   0.713   0.025  16.062  0.4704  1.5338  0.8821
 6459TIP3   OH240791   4.176   6.084  15.368  0.4293  0.1392  0.0213
 6459TIP3    H140792   4.112   6.111  15.303 -1.3132 -1.5425  0.9512
 6459TIP3    H240793   4.145   6.123  15.450 -0.5479 -2.1330  0.8325
 6460TIP3   OH240794   4.099   5.861   4.398  0.1284  0.2209 -0.0147
 6460TIP3    H140795   4.025   5.920   4.391 -1.9539 -2.0941  0.9968
 6460TIP3    H240796   4.134   5.877   4.486  0.1841  0.5780 -0.0999
 6461TIP3   OH240797   3.777   0.102  12.071  0.0909  0.1311  0.1653
 6461TIP3    H140798   3.686   0.129  12.057  0.1865  1.0992  1.2831
 6461TIP3    H240799   3.796   0.044  11.998 -1.0718  0.7988 -0.7013
 6462TIP3   OH240800   5.418   3.653   3.421  0.0088  0.2930  0.0520
 6462TIP3    H140801   5.380   3.740   3.409  0.6333  0.6195  0.3871
 6462TIP3    H240802   5.396   3.631   3.512  0.9533  0.6545  0.3744
 6463TIP3   OH240803   4.962   5.486  11.868 -0.4183 -0.2974  0.1961
 6463TIP3    H140804   5.007   5.402  11.872 -1.3948 -0.8070  0.9323
 6463TIP3    H240805   4.939   5.506  11.959 -2.4535 -0.5234 -0.2091
 6464TIP3   OH240806   1.306   5.345  15.490 -0.1479  0.5634  0.0865
 6464TIP3    H140807   1.304   5.441  15.496 -0.9229  0.4604  1.8463
 6464TIP3    H240808   1.259   5.314  15.567 -0.6631 -1.2490 -0.8916
 6465TIP3   OH240809   2.198   6.453  10.619  0.4170 -0.3504  0.3057
 6465TIP3    H140810   2.257   6.379  10.637 -0.7658 -0.9071  2.1852
 6465TIP3    H240811   2.120   6.412  10.581 -0.2423 -0.0826  1.3512
 6466TIP3   OH240812   4.654   1.676   1.315 -0.5166  0.0310  0.0654
 6466TIP3    H140813   4.600   1.754   1.323 -1.5409 -0.7196  0.8464
 6466TIP3    H240814   4.598   1.605   1.349  0.9954 -0.7568  1.0024
 6467TIP3   OH240815   0.079   6.115   5.926  0.5754 -0.7754  0.4865
 6467TIP3    H140816   0.162   6.097   5.971  1.9157 -0.4048 -1.6875
 6467TIP3    H240817   0.061   6.035   5.876 -0.2835 -0.7653  0.7616
 6468TIP3   OH240818   0.941   3.615   2.262  0.5875  0.2040 -0.5851
 6468TIP3    H140819   0.991   3.697   2.271  0.9695 -0.1255  0.4172
 6468TIP3    H240820   1.001   3.547   2.293 -0.2978 -0.2644  0.1123
 6469TIP3   OH240821   1.598   3.230  15.022 -0.3887 -0.6845  0.0058
 6469TIP3    H140822   1.538   3.267  15.087 -0.2530 -0.1980 -0.1425
 6469TIP3    H240823   1.584   3.283  14.944 -0.3451 -1.0886 -0.2772
 6470TIP3   OH240824   6.302   2.897   5.725 -0.3668  0.2196 -0.4325
 6470TIP3    H140825   6.395   2.879   5.708 -0.6797 -0.8427 -1.1183
 6470TIP3    H240826   6.268   2.927   5.641 -0.7532  0.1200 -0.3127
 6471TIP3   OH240827   1.163   2.844  16.478 -0.0588  0.0123  0.1822
 6471TIP3    H140828   1.068   2.855  16.488 -0.0388 -0.3622  0.8713
 6471TIP3    H240829   1.172   2.756  16.442  0.0641 -0.4331  1.2504
 6472TIP3   OH240830   6.533   6.475  13.025  0.2510  0.0916 -0.3713
 6472TIP3    H140831   6.602   6.409  13.030 -0.0765 -0.2490 -0.3568
 6472TIP3    H240832   6.575   6.555  13.057  0.5099 -0.2167  0.0682
 6473TIP3   OH240833   3.370   2.115  12.281  0.1907  0.8875  0.5778
 6473TIP3    H140834   3.373   2.145  12.371 -0.6641 -0.0011  0.9195
 6473TIP3    H240835   3.281   2.133  12.252 -0.2941 -1.0430  0.7331
 6474TIP3   OH240836   1.536   4.204   1.889 -0.0906 -0.0837  0.3765
 6474TIP3    H140837   1.558   4.115   1.916  3.9845 -0.1255 -2.1747
 6474TIP3    H240838   1.544   4.256   1.969 -1.3711 -1.7721  1.6713
 6475TIP3   OH240839   0.469   5.027  15.674 -0.1786 -0.2735 -0.2484
 6475TIP3    H140840   0.399   4.975  15.634  0.7972 -0.1301 -2.2937
 6475TIP3    H240841   0.427   5.109  15.699 -0.8289 -0.3472 -1.0597
 6476TIP3   OH240842   5.257   2.882   5.594  0.5212 -0.3783 -0.4704
 6476TIP3    H140843   5.192   2.812   5.597  0.5567 -0.4451 -1.2338
 6476TIP3    H240844   5.341   2.839   5.613  0.4926 -0.4735 -0.5632
 6477TIP3   OH240845   6.188   5.725   0.546 -0.3867  0.0579  0.0936
 6477TIP3    H140846   6.176   5.661   0.616 -1.4350 -0.1311 -0.2353
 6477TIP3    H240847   6.159   5.808   0.585 -0.7483 -0.0061 -0.0286
 6478TIP3   OH240848   1.617   3.046  16.638 -0.0602 -0.1218 -0.3737
 6478TIP3    H140849   1.680   3.053  16.710 -0.4744 -0.4004  0.0252
 6478TIP3    H240850   1.667   3.008  16.566 -0.1611 -2.0012  0.4751
 6479TIP3   OH240851   4.227   0.356   1.714  0.0342  0.1243 -0.4321
 6479TIP3    H140852   4.243   0.393   1.627  0.5095  1.7200  0.2866
 6479TIP3    H240853   4.131   0.357   1.722 -0.0423 -0.5086 -1.1106
 6480TIP3   OH240854   5.499   2.391  16.622 -0.3851  0.1931  0.0316
 6480TIP3    H140855   5.500   2.318  16.559  1.4342 -0.8815  1.1969
 6480TIP3    H240856   5.527   2.467  16.571  0.5519 -0.5530 -0.5980
 6481TIP3   OH240857   2.613   2.809   0.017 -0.2251  0.7080 -0.1045
 6481TIP3    H140858   2.655   2.872  -0.041 -1.2078  0.9774 -0.5358
 6481TIP3    H240859   2.666   2.729   0.008  0.2261  1.0572 -0.5800
 6482TIP3   OH240860   6.058   4.202  11.849 -0.2142 -0.4014  0.2649
 6482TIP3    H140861   5.972   4.211  11.808 -1.0164 -1.8472  1.5191
 6482TIP3    H240862   6.109   4.149  11.787 -0.2211  0.4077 -0.4531
 6483TIP3   OH240863   4.168   6.390   2.951  0.2928 -0.2893  0.4769
 6483TIP3    H140864   4.152   6.387   2.857 -2.3377  0.3045  0.8366
 6483TIP3    H240865   4.157   6.300   2.980 -1.7987 -0.0459  0.5690
 6484TIP3   OH240866   4.035   5.051  11.753 -0.3461 -0.0597 -0.6924
 6484TIP3    H140867   4.108   5.069  11.812  1.0747 -2.7919 -1.4682
 6484TIP3    H240868   3.967   5.014  11.808 -0.8016  1.5068 -0.1420
 6485TIP3   OH240869   0.742   2.196   1.321  0.9675  0.2453  0.0550
 6485TIP3    H140870   0.665   2.252   1.308  0.3250 -0.5321  0.4594
 6485TIP3    H240871   0.728   2.155   1.406  0.5693 -1.8412 -0.9589
 6486TIP3   OH240872   5.726   5.472   5.770  0.2281 -0.1337 -1.0503
 6486TIP3    H140873   5.664   5.517   5.711  1.3561  1.2109 -1.2818
 6486TIP3    H240874   5.771   5.409   5.713 -2.1251 -2.4811 -0.4934
 6487TIP3   OH240875   1.914   0.699   6.196  0.2608  0.0146  0.2547
 6487TIP3    H140876   1.920   0.604   6.192 -2.1337 -0.1839  0.1790
 6487TIP3    H240877   1.820   0.718   6.194  0.6534  2.3629  0.8118
 6488TIP3   OH240878   1.961   3.376  14.285  0.2417 -0.2727 -0.5784
 6488TIP3    H140879   1.997   3.354  14.199 -0.1293  0.3630 -0.9086
 6488TIP3    H240880   1.870   3.346  14.282  0.0695  0.2377 -0.6122
 6489TIP3   OH240881   4.686   1.576  13.796 -0.1307  0.7675  0.0864
 6489TIP3    H140882   4.735   1.496  13.817 -2.6161 -1.1011 -0.7125
 6489TIP3    H240883   4.715   1.640  13.862  3.5637 -0.0142 -0.6067
 6490TIP3   OH240884   5.393   5.399   2.290  0.0124 -0.3850  0.1697
 6490TIP3    H140885   5.483   5.410   2.319  0.6284 -1.2354 -1.3259
 6490TIP3    H240886   5.359   5.327   2.344  1.4028 -2.5041 -1.6479
 6491TIP3   OH240887   3.073   2.317   2.062  0.7088  0.5778  0.9180
 6491TIP3    H140888   3.056   2.394   2.007 -0.6221 -0.1435  0.2590
 6491TIP3    H240889   3.089   2.246   1.999 -1.0131 -0.3091  1.4110
 6492TIP3   OH240890   5.269   6.467  11.860  0.2537  0.4270 -0.6556
 6492TIP3    H140891   5.196   6.445  11.918 -0.0013 -0.2921 -1.2307
 6492TIP3    H240892   5.228   6.515  11.788  0.1209 -1.1010 -1.6407
 6493TIP3   OH240893   2.100   6.626  17.166  0.1977 -0.1348  0.5825
 6493TIP3    H140894   2.195   6.627  17.173  0.2058  1.5492  0.7090
 6493TIP3    H240895   2.082   6.568  17.092  1.4168  0.6950 -0.4138
 6494TIP3   OH240896   1.326   4.688  10.594 -0.4301  0.3985  0.5270
 6494TIP3    H140897   1.247   4.677  10.541 -0.5533  0.0862  0.7708
 6494TIP3    H240898   1.339   4.602  10.635 -0.9900  0.9272  1.8901
 6495TIP3   OH240899   0.745   1.153   3.185 -0.3554  0.2848 -0.3143
 6495TIP3    H140900   0.833   1.189   3.175 -0.8184  1.9168  0.9261
 6495TIP3    H240901   0.698   1.220   3.235 -2.8137  0.2618 -2.3976
 6496TIP3   OH240902   4.965   0.069   2.036  0.0582  0.1026  0.1375
 6496TIP3    H140903   4.874   0.094   2.052 -0.4405 -0.6506 -1.3016
 6496TIP3    H240904   4.960  -0.022   2.007  1.2465  0.1163 -0.1687
 6497TIP3   OH240905   4.644   2.997   0.140 -0.0235 -0.6501 -0.2964
 6497TIP3    H140906   4.693   2.950   0.208  0.7156  0.3621 -0.0993
 6497TIP3    H240907   4.697   2.986   0.061  0.3459  0.1402 -0.1661
 6498TIP3   OH240908   1.649   1.195   1.072  0.6741  0.2137  0.1001
 6498TIP3    H140909   1.622   1.105   1.091 -3.1242  0.7692 -1.7916
 6498TIP3    H240910   1.701   1.188   0.992  0.1782 -0.2883 -0.1843
 6499TIP3   OH240911   3.571   1.028  13.185 -0.1366 -0.2293 -0.0238
 6499TIP3    H140912   3.485   1.059  13.157  0.1147  1.3103  0.8027
 6499TIP3    H240913   3.570   1.036  13.280  0.4171 -1.5835  0.1146
 6500TIP3   OH240914   5.534   3.526   1.972 -0.6219 -0.6386 -0.6139
 6500TIP3    H140915   5.495   3.440   1.987  0.1968 -0.8022  0.8116
 6500TIP3    H240916   5.592   3.513   1.897 -2.0428 -0.7900 -1.7140
 6501TIP3   OH240917   3.643   6.701   3.914  0.2524 -0.3225  0.2150
 6501TIP3    H140918   3.686   6.618   3.896 -0.0060 -0.8588  1.9203
 6501TIP3    H240919   3.700   6.745   3.977  0.1407  0.5922 -0.3005
 6502TIP3   OH240920   5.681   2.935  12.475 -0.3147  0.3086  0.0274
 6502TIP3    H140921   5.707   2.863  12.534 -2.1418  0.4083  1.0069
 6502TIP3    H240922   5.723   3.012  12.512 -0.3870  0.1529  0.4402
 6503TIP3   OH240923   4.007   2.534  11.540  0.1870  0.0187 -0.2603
 6503TIP3    H140924   4.021   2.512  11.632 -0.1033  0.8316 -0.0146
 6503TIP3    H240925   4.054   2.465  11.492 -1.6789 -1.8542  0.4329
 6504TIP3   OH240926   4.723   5.390  15.984  0.6508  0.1385  0.3828
 6504TIP3    H140927   4.636   5.352  15.998  0.8989 -1.0771 -1.0418
 6504TIP3    H240928   4.742   5.438  16.064 -0.5896 -1.0656  1.4491
 6505TIP3   OH240929   4.881   6.359   0.359  0.8105 -0.1505  0.2844
 6505TIP3    H140930   4.917   6.448   0.369  1.5369 -0.3700 -0.2943
 6505TIP3    H240931   4.958   6.302   0.367  0.8049 -0.5824 -2.0758
 6506TIP3   OH240932   2.627   1.900  14.767 -0.1598  0.5206 -0.2913
 6506TIP3    H140933   2.555   1.958  14.741  0.5108  1.0074 -1.1006
 6506TIP3    H240934   2.590   1.848  14.839 -0.8375  1.7992  0.3298
 6507TIP3   OH240935   4.281   5.959  14.327 -0.4681  0.0625 -0.2075
 6507TIP3    H140936   4.328   5.877  14.339  0.9615  0.6724 -1.3241
 6507TIP3    H240937   4.211   5.938  14.265 -1.4693 -0.7538  1.1418
 6508TIP3   OH240938   5.200   3.361  10.949 -0.0437  0.1184 -0.3669
 6508TIP3    H140939   5.126   3.356  10.889  0.2871  2.3990 -1.0332
 6508TIP3    H240940   5.274   3.326  10.899 -0.1370  0.3246 -0.6504
 6509TIP3   OH240941   4.992   3.600   3.617  0.0209  0.0106  0.0361
 6509TIP3    H140942   4.958   3.542   3.684 -0.3213  1.6147  1.3188
 6509TIP3    H240943   4.925   3.668   3.607  1.7778  2.0351  1.0369
 6510TIP3   OH240944   3.610   2.872  15.329 -0.4156 -0.5700 -0.1590
 6510TIP3    H140945   3.616   2.967  15.339 -0.9258 -0.7130  2.1355
 6510TIP3    H240946   3.691   2.839  15.367 -0.3121 -1.0730 -0.7967
 6511TIP3   OH240947   3.636   1.491  13.828  0.1042 -0.6871 -0.4315
 6511TIP3    H140948   3.624   1.499  13.734  1.0245  0.0246 -0.5100
 6511TIP3    H240949   3.703   1.424  13.838 -1.3235 -2.1186 -0.1776
 6512TIP3   OH240950   0.413   1.344  15.914  0.1973 -0.4806  0.2016
 6512TIP3    H140951   0.325   1.310  15.931 -0.4818 -0.2158 -2.2714
 6512TIP3    H240952   0.438   1.391  15.993 -3.4460  2.5972 -0.2129
 6513TIP3   OH240953   2.477   1.365  11.626  0.1761 -1.0351 -0.5864
 6513TIP3    H140954   2.406   1.319  11.672  0.0856  0.5001  0.9177
 6513TIP3    H240955   2.449   1.367  11.534 -2.1482  0.1569  0.0594
 6514TIP3   OH240956   4.670   5.240  15.401  0.0735  0.2319 -0.4355
 6514TIP3    H140957   4.576   5.227  15.396  0.0755  0.4276 -1.0430
 6514TIP3    H240958   4.680   5.322  15.449 -0.0619  0.1612 -0.2859
 6515TIP3   OH240959   0.427   0.863  14.037  0.4050 -0.4120 -0.3179
 6515TIP3    H140960   0.416   0.937  14.097  0.9328 -0.5509 -0.0460
 6515TIP3    H240961   0.496   0.810  14.077  0.6853 -0.5633 -0.9943
 6516TIP3   OH240962   6.694   1.209  16.137  0.6673 -0.7072 -0.5219
 6516TIP3    H140963   6.601   1.222  16.122  0.0091 -3.0823  0.9293
 6516TIP3    H240964   6.725   1.293  16.171 -1.2246 -0.2188  0.1283
 6517TIP3   OH240965   5.377   3.358  16.333  0.0945 -0.5793  0.8268
 6517TIP3    H140966   5.302   3.300  16.318  0.1921 -0.2741 -1.1168
 6517TIP3    H240967   5.372   3.422  16.263  2.1150 -0.4662  0.7261
 6518TIP3   OH240968   2.519   3.360   2.914 -0.1459  0.4773  0.2494
 6518TIP3    H140969   2.501   3.430   2.977 -1.4893  0.9723 -0.6483
 6518TIP3    H240970   2.442   3.304   2.916  0.5232 -0.4673  0.2693
 6519TIP3   OH240971   4.433   2.870  13.899 -0.0182  0.0381  0.3726
 6519TIP3    H140972   4.477   2.908  13.975 -0.7258  0.8971  0.3759
 6519TIP3    H240973   4.421   2.945  13.840 -3.9017  0.5055  1.5039
 6520TIP3   OH240974   4.808   1.187   5.281  0.1868 -0.4969 -0.3064
 6520TIP3    H140975   4.780   1.099   5.257  1.9795 -0.8298 -1.3902
 6520TIP3    H240976   4.764   1.205   5.364  0.7391 -2.9136  0.5868
 6521TIP3   OH240977   0.660   6.728  12.235  0.3536  0.0931 -0.4383
 6521TIP3    H140978   0.637   6.800  12.294  0.1830 -0.2537 -0.0827
 6521TIP3    H240979   0.633   6.760  12.148 -0.4385  0.1528 -0.1841
 6522TIP3   OH240980   3.000   2.955  11.876  0.4883  0.6955 -0.7123
 6522TIP3    H140981   3.030   2.989  11.960 -0.2255  0.4909 -0.3699
 6522TIP3    H240982   2.919   3.003  11.857 -0.9284 -1.2201  0.1125
 6523TIP3   OH240983   1.557   0.749  16.273 -0.0843  0.8434  0.0301
 6523TIP3    H140984   1.600   0.690  16.334  1.0419  1.4189 -0.1795
 6523TIP3    H240985   1.551   0.700  16.191 -1.3809  0.1565  0.5111
 6524TIP3   OH240986   0.998   5.757  14.885  0.5323 -0.1615  0.0536
 6524TIP3    H140987   0.923   5.778  14.829  0.1904  1.3118  1.0047
 6524TIP3    H240988   0.960   5.740  14.971  0.8907 -3.8390 -0.3246
 6525TIP3   OH240989   1.941   2.926   1.488  0.0040 -0.1006  0.4580
 6525TIP3    H140990   1.942   3.015   1.522  0.4111 -0.1644  0.6121
 6525TIP3    H240991   1.981   2.873   1.557  1.5040 -0.1312 -0.4065
 6526TIP3   OH240992   2.589   2.468   1.965 -0.6692  0.4705  0.2550
 6526TIP3    H140993   2.634   2.543   2.004 -3.1375  1.6867  0.9670
 6526TIP3    H240994   2.498   2.496   1.958 -1.2890 -1.7196 -1.4536
 6527TIP3   OH240995   6.045   3.099   4.430 -0.4623 -0.0354 -0.7044
 6527TIP3    H140996   6.024   3.070   4.519 -1.1438  2.1006 -0.1164
 6527TIP3    H240997   6.138   3.121   4.434 -0.1140 -1.3746 -0.9675
 6528TIP3   OH240998   0.495   3.573  12.240 -0.1794  0.2951 -0.0241
 6528TIP3    H140999   0.545   3.647  12.205  1.3854 -0.6428  0.1431
 6528TIP3    H241000   0.419   3.567  12.182  0.0145  1.6178 -0.4459
 6529TIP3   OH241001   3.433   2.233  12.796  0.4958 -0.1794 -0.0382
 6529TIP3    H141002   3.387   2.294  12.855  0.1542 -0.1825 -0.2956
 6529TIP3    H241003   3.509   2.205  12.846  0.0580 -0.4081  0.5209
 6530TIP3   OH241004   0.174   3.102  17.093  0.3540 -0.3618  0.2715
 6530TIP3    H141005   0.080   3.089  17.110  0.4201 -0.0422  0.9071
 6530TIP3    H241006   0.208   3.013  17.082 -0.0034 -0.4875  0.1449
 6531TIP3   OH241007   4.708   1.326   5.643 -0.2335 -0.1569  0.0780
 6531TIP3    H141008   4.748   1.319   5.730 -2.1450  1.4260  1.1690
 6531TIP3    H241009   4.698   1.236   5.614 -0.3299 -0.7770  1.8873
 6532TIP3   OH241010   0.987   6.642   1.414  0.3027  0.3086  0.0711
 6532TIP3    H141011   0.947   6.703   1.353 -0.9665 -0.3976  0.1816
 6532TIP3    H241012   0.978   6.685   1.500 -2.0001 -0.6878  0.3703
 6533TIP3   OH241013   4.839   5.808  11.786  0.7975 -0.4235  0.2738
 6533TIP3    H141014   4.762   5.806  11.844  0.6374 -2.0574  0.0685
 6533TIP3    H241015   4.913   5.798  11.845  0.8642  1.0909  0.4666
 6534TIP3   OH241016   4.497   6.737  13.232 -0.1709 -0.2581  0.6493
 6534TIP3    H141017   4.564   6.669  13.244  0.1604  0.2567  1.8623
 6534TIP3    H241018   4.507   6.794  13.308  0.2440  1.7461 -0.8240
 6535TIP3   OH241019   4.665   2.321   3.300  0.6308 -0.0079  0.3163
 6535TIP3    H141020   4.654   2.228   3.281 -0.3647  0.3592 -0.9883
 6535TIP3    H241021   4.634   2.331   3.390  1.1371 -1.0019  0.6084
 6536TIP3   OH241022   3.088   6.703   1.841 -0.4843  0.7056  0.3665
 6536TIP3    H141023   3.093   6.795   1.867 -0.7750  0.5452  1.0057
 6536TIP3    H241024   3.146   6.658   1.901  0.0037  0.5228 -0.2290
 6537TIP3   OH241025   1.359   0.157  15.115 -0.3960 -0.0309  0.2664
 6537TIP3    H141026   1.444   0.187  15.083  0.5377 -1.7989  0.9272
 6537TIP3    H241027   1.335   0.085  15.057 -1.5840  0.6017 -0.0575
 6538TIP3   OH241028   1.820   4.160  14.877  0.0517  0.2070  0.0373
 6538TIP3    H141029   1.741   4.118  14.912  0.8070 -1.6424 -0.3189
 6538TIP3    H241030   1.849   4.218  14.946 -0.7280 -0.3210  0.8348
 6539TIP3   OH241031   3.017   0.611  11.908 -0.1506  0.2652 -0.5580
 6539TIP3    H141032   3.091   0.672  11.903 -1.5154  1.9558 -1.0001
 6539TIP3    H241033   2.968   0.639  11.985  0.7148 -2.1795  1.0178
 6540TIP3   OH241034   0.813   6.209  16.782  0.3760 -0.1363 -0.4184
 6540TIP3    H141035   0.811   6.215  16.877  1.1145 -0.0126 -0.3995
 6540TIP3    H241036   0.882   6.145  16.763 -0.2241 -0.6635 -0.8585
 6541TIP3   OH241037   5.725   3.313  14.816 -0.4114 -0.4324 -0.2012
 6541TIP3    H141038   5.696   3.259  14.890 -0.9026 -0.8626 -0.6987
 6541TIP3    H241039   5.819   3.320  14.828 -0.6766  1.0237  1.4708
 6542TIP3   OH241040   1.210   3.091   1.642 -0.6320 -0.7532  0.9490
 6542TIP3    H141041   1.190   3.024   1.708 -0.7661 -0.8434  0.8163
 6542TIP3    H241042   1.297   3.122   1.666 -1.4853  0.6596  2.3840
 6543TIP3   OH241043   1.281   3.201  12.671  0.9880 -0.9779 -0.3218
 6543TIP3    H141044   1.323   3.115  12.660  1.2854 -0.9019  0.2099
 6543TIP3    H241045   1.188   3.180  12.683  1.2416 -1.3379  1.2560
 6544TIP3   OH241046   6.223   2.962  17.230  0.0947  0.3430 -0.2940
 6544TIP3    H141047   6.317   2.982  17.224 -0.1276  1.9665  0.9136
 6544TIP3    H241048   6.182   3.017  17.163 -0.0161 -0.4029 -0.8557
 6545TIP3   OH241049   1.770   3.023  11.645  0.8778 -0.2178 -0.4600
 6545TIP3    H141050   1.844   2.982  11.600 -0.2771 -3.2346  0.1053
 6545TIP3    H241051   1.713   2.950  11.668 -2.3178  1.9691 -0.8485
 6546TIP3   OH241052   6.709   3.269  15.581 -0.0737  0.2648 -0.4760
 6546TIP3    H141053   6.767   3.317  15.640 -1.5155  0.1989  1.0732
 6546TIP3    H241054   6.697   3.326  15.505  3.3966 -0.4655 -1.7471
 6547TIP3   OH241055   0.669   1.046   1.811  0.4653  0.9228  0.0627
 6547TIP3    H141056   0.640   1.110   1.746  0.0045  1.3995  0.7252
 6547TIP3    H241057   0.595   1.037   1.872  1.3716  1.5387  1.3053
 6548TIP3   OH241058   5.582   4.247   4.055  0.0789 -0.3995 -0.1850
 6548TIP3    H141059   5.529   4.171   4.078 -0.2312 -0.3464 -0.7226
 6548TIP3    H241060   5.629   4.221   3.975  0.4792 -0.2639  0.0013
 6549TIP3   OH241061   6.431   5.950   4.681  0.0993  0.5486  0.3555
 6549TIP3    H141062   6.504   5.889   4.675  0.3894  0.7306  1.7040
 6549TIP3    H241063   6.354   5.895   4.695 -0.3201  0.2449 -2.6569
 6550TIP3   OH241064   0.649   0.280   3.355  0.2200 -0.3148 -0.3648
 6550TIP3    H141065   0.709   0.353   3.365 -1.1064  0.7760 -0.0911
 6550TIP3    H241066   0.689   0.209   3.405  1.4397  0.2586 -0.4852
 6551TIP3   OH241067   3.110   0.743  14.783  0.0018  0.2280 -0.1845
 6551TIP3    H141068   3.109   0.691  14.863  0.2208  1.1518  0.4302
 6551TIP3    H241069   3.191   0.719  14.739  0.9386  1.2513  0.9208
 6552TIP3   OH241070   0.264   3.146   0.753  0.1657 -0.2181 -0.0900
 6552TIP3    H141071   0.197   3.199   0.796  0.5446 -0.1113  0.3739
 6552TIP3    H241072   0.248   3.158   0.660 -0.1510  0.2037  0.0165
 6553TIP3   OH241073   3.466   6.174   4.052  0.3545  0.0322 -0.5567
 6553TIP3    H141074   3.544   6.144   4.006  0.6555  0.1306 -0.1112
 6553TIP3    H241075   3.496   6.247   4.106  0.3570 -1.1546  1.0925
 6554TIP3   OH241076   6.517   5.111   4.278  0.2950  0.6190 -0.0893
 6554TIP3    H141077   6.538   5.140   4.189  0.1162 -0.7948 -0.6170
 6554TIP3    H241078   6.579   5.041   4.296  0.7106  1.2742  1.1512
 6555TIP3   OH241079   4.706   1.870  15.025  1.0522 -0.0498  0.1807
 6555TIP3    H141080   4.756   1.923  15.088 -0.8706  1.8210  0.2323
 6555TIP3    H241081   4.648   1.933  14.982  2.0109 -1.2865 -3.2715
 6556TIP3   OH241082   1.065   2.124  13.061 -0.1498  0.5197  0.1671
 6556TIP3    H141083   1.144   2.145  13.111 -0.4995  0.0600  0.9175
 6556TIP3    H241084   1.057   2.197  13.000  1.2686  0.2080 -0.4376
 6557TIP3   OH241085   3.844   0.248  13.579 -0.3849 -0.1695 -0.1263
 6557TIP3    H141086   3.874   0.339  13.580 -1.1689  0.1104 -0.8008
 6557TIP3    H241087   3.881   0.210  13.659 -0.8147  1.0023  0.6591
 6558TIP3   OH241088   5.369   0.996  10.670  0.4909  0.1192 -0.2312
 6558TIP3    H141089   5.392   1.080  10.709  0.7646  0.5928 -1.3897
 6558TIP3    H241090   5.318   1.018  10.593  1.0755 -0.7485 -0.8913
 6559TIP3   OH241091   5.602   6.588  14.204 -0.2799  0.0234  0.1230
 6559TIP3    H141092   5.654   6.666  14.185 -1.9665  1.4131  0.9312
 6559TIP3    H241093   5.532   6.589  14.139 -0.7141 -0.4061  0.5699
 6560TIP3   OH241094   0.715   2.117   4.191  0.5057  0.0767 -0.4446
 6560TIP3    H141095   0.738   2.036   4.146 -0.0500 -0.6906  0.6191
 6560TIP3    H241096   0.676   2.172   4.122 -1.7748 -1.6590 -0.6569
 6561TIP3   OH241097   2.562   1.049   1.549 -0.0336 -0.4922  0.0446
 6561TIP3    H141098   2.614   1.012   1.621  0.3560 -1.5616 -0.7641
 6561TIP3    H241099   2.626   1.096   1.495 -0.3180  0.2654  0.3496
 6562TIP3   OH241100   2.245   3.751   3.405 -0.1202  0.5912  0.1264
 6562TIP3    H141101   2.317   3.797   3.448  1.0316  2.0856 -3.0667
 6562TIP3    H241102   2.281   3.667   3.380  0.2797  1.0113 -0.7392
 6563TIP3   OH241103   6.045   3.454   5.507 -0.7506 -0.1007  0.2749
 6563TIP3    H141104   6.093   3.535   5.523 -0.5911 -0.2427  0.5382
 6563TIP3    H241105   5.952   3.479   5.510 -0.7077  0.4581 -1.7587
 6564TIP3   OH241106   0.149   3.348   5.721  0.0877 -0.5311 -0.1229
 6564TIP3    H141107   0.068   3.394   5.742  1.8888  2.0176  1.8051
 6564TIP3    H241108   0.137   3.261   5.758 -0.9838  0.4702  2.0567
 6565TIP3   OH241109   0.914   3.850   1.758 -0.4349  0.0068  0.2609
 6565TIP3    H141110   0.936   3.769   1.805  0.5137  0.9163  1.4414
 6565TIP3    H241111   0.939   3.832   1.668 -0.4854 -1.1091  0.4489
 6566TIP3   OH241112   3.423   5.020   0.438 -0.2861  0.2918 -0.5599
 6566TIP3    H141113   3.374   5.045   0.360 -1.6605 -2.3550 -0.6730
 6566TIP3    H241114   3.382   4.938   0.467  2.5485 -0.8197  0.7562
 6567TIP3   OH241115   0.753   3.028   4.894  0.6263 -0.5061 -0.3470
 6567TIP3    H141116   0.756   3.105   4.837  0.1269  0.6070  1.0609
 6567TIP3    H241117   0.667   2.990   4.879  0.2721  0.1123  0.0426
 6568TIP3   OH241118   4.069   0.897  15.746 -0.5833  0.5951 -0.0072
 6568TIP3    H141119   4.021   0.978  15.726 -0.2837  0.6987 -0.3125
 6568TIP3    H241120   4.000   0.833  15.763 -0.8286  0.8507 -0.0154
 6569TIP3   OH241121   1.928   3.317  11.319 -0.1379  0.1461 -0.2367
 6569TIP3    H141122   1.842   3.277  11.329  0.4622 -1.6650 -1.7454
 6569TIP3    H241123   1.964   3.278  11.239  2.2848  0.4832  0.5943
 6570TIP3   OH241124   6.512   1.163  16.638  0.2997 -0.9902 -0.4710
 6570TIP3    H141125   6.487   1.183  16.548  1.3607  1.8634 -0.2591
 6570TIP3    H241126   6.544   1.247  16.673  3.6664 -2.7917  1.3124
 6571TIP3   OH241127   4.720   6.324  13.576 -0.8187 -0.2927 -0.2751
 6571TIP3    H141128   4.795   6.340  13.518 -0.4051 -1.3228 -0.0531
 6571TIP3    H241129   4.646   6.364  13.531 -0.3285 -0.2167 -1.0400
 6572TIP3   OH241130   3.300   4.893   5.660 -0.4013 -0.0876  0.2826
 6572TIP3    H141131   3.267   4.947   5.732 -1.9979 -0.9836  0.2543
 6572TIP3    H241132   3.314   4.955   5.588  0.2038  0.6485  1.0078
 6573TIP3   OH241133   0.141   2.339   2.310  0.7551 -0.1043  0.7715
 6573TIP3    H141134   0.091   2.291   2.376  0.1832 -1.4275 -0.5846
 6573TIP3    H241135   0.150   2.278   2.237  0.4160  1.6931 -0.8408
 6574TIP3   OH241136   6.135   5.819   2.498 -0.1105  0.3682 -0.0703
 6574TIP3    H141137   6.154   5.794   2.407  0.1753  0.2945  0.0089
 6574TIP3    H241138   6.050   5.777   2.517  0.2322 -0.3236 -0.0314
 6575TIP3   OH241139   1.056   0.500   3.403  0.1332 -0.1905  0.6270
 6575TIP3    H141140   1.118   0.495   3.331 -0.0723 -1.6702  0.5360
 6575TIP3    H241141   0.970   0.489   3.362  0.0145 -1.0570  1.0845
 6576TIP3   OH241142   4.133   6.482   3.533 -0.3398 -0.1300  0.0815
 6576TIP3    H141143   4.202   6.547   3.519 -1.7171  1.0506 -1.5446
 6576TIP3    H241144   4.128   6.435   3.450 -1.9805  0.3110 -0.0966
 6577TIP3   OH241145   2.848   1.099  14.872 -0.4151 -0.4005  0.0917
 6577TIP3    H141146   2.784   1.030  14.856 -0.2688 -0.3996 -0.5239
 6577TIP3    H241147   2.874   1.087  14.963 -3.8204  1.7535  1.4961
 6578TIP3   OH241148   0.715   2.853   0.810 -0.2947 -0.3038  0.2191
 6578TIP3    H141149   0.624   2.870   0.832 -0.0877  0.1605  0.7712
 6578TIP3    H241150   0.762   2.931   0.842  0.1476  0.0019 -1.1288
 6579TIP3   OH241151   0.506   1.522  15.171  0.4814  0.0057 -0.4336
 6579TIP3    H141152   0.457   1.444  15.145  2.2196 -0.8371 -1.4122
 6579TIP3    H241153   0.525   1.567  15.089  0.6582  0.7437  0.0012
 6580TIP3   OH241154   5.531   2.502   2.370 -0.3548  0.5617 -0.0884
 6580TIP3    H141155   5.621   2.535   2.364  0.4760 -1.4551  0.4170
 6580TIP3    H241156   5.516   2.458   2.287 -1.4262  2.0722 -0.7326
 6581TIP3   OH241157   3.740   1.211   1.339  0.2516  0.0904 -0.4962
 6581TIP3    H141158   3.678   1.142   1.313  1.0639 -0.4992 -0.9132
 6581TIP3    H241159   3.704   1.245   1.421  0.3721 -1.5615  0.3008
 6582TIP3   OH241160   0.035   5.847   5.258 -0.4196 -0.3718 -0.4556
 6582TIP3    H141161   0.026   5.812   5.170 -4.6285 -0.3955 -0.2160
 6582TIP3    H241162  -0.054   5.844   5.295  0.9119  0.7454  3.3745
 6583TIP3   OH241163   2.882   2.023  16.601 -0.5792  0.2480  0.1679
 6583TIP3    H141164   2.836   1.944  16.572 -1.2658  0.7303 -0.0777
 6583TIP3    H241165   2.828   2.095  16.569 -0.2639  0.8135  0.8765
 6584TIP3   OH241166   1.561   3.029   0.820  0.1763 -0.7010 -0.1070
 6584TIP3    H141167   1.557   2.959   0.754  1.8843  1.3866 -2.6205
 6584TIP3    H241168   1.653   3.056   0.820 -0.7306  2.8091 -0.7057
 6585TIP3   OH241169   3.788   2.207  12.704 -0.0147  0.1693 -0.0007
 6585TIP3    H141170   3.807   2.300  12.717 -2.5153  0.6592  0.8042
 6585TIP3    H241171   3.767   2.175  12.792  0.1784 -1.0158 -0.3702
 6586TIP3   OH241172   5.780   0.989  16.658  0.6420 -0.0336  0.1575
 6586TIP3    H141173   5.751   1.023  16.574  0.4840 -2.2119 -0.7319
 6586TIP3    H241174   5.699   0.959  16.701  0.6669  1.4184  1.2914
 6587TIP3   OH241175   6.242   3.876  15.849  0.0678  0.8075 -0.0329
 6587TIP3    H141176   6.251   3.942  15.780  0.9030  0.2647 -0.4475
 6587TIP3    H241177   6.201   3.801  15.806  0.1396  0.6449  0.1787
 6588TIP3   OH241178   2.492   4.929   4.478  0.2373  0.1190  0.2090
 6588TIP3    H141179   2.418   4.882   4.439 -1.9922  1.8159  2.1698
 6588TIP3    H241180   2.542   4.961   4.402 -1.2829 -0.6386 -1.1867
 6589TIP3   OH241181   0.819   4.089  14.919 -0.6657 -0.1005  0.3673
 6589TIP3    H141182   0.910   4.117  14.917 -0.7318  0.0968 -1.4298
 6589TIP3    H241183   0.785   4.110  14.832 -2.9415  1.5241  1.5132
 6590TIP3   OH241184   4.509   3.187   3.025 -0.3846 -0.4128 -0.0137
 6590TIP3    H141185   4.475   3.110   3.072  1.5077 -1.0367  0.4118
 6590TIP3    H241186   4.506   3.258   3.089  0.0917 -0.7149  0.3451
 6591TIP3   OH241187   2.333   4.964  10.961  0.1924  0.2058 -0.3776
 6591TIP3    H141188   2.411   4.931  11.005  0.1293 -0.9134 -1.0594
 6591TIP3    H241189   2.323   4.907  10.884  0.6732  2.4491 -2.2198
 6592TIP3   OH241190   5.216   2.992  12.341  0.1896  0.1565 -0.1506
 6592TIP3    H141191   5.263   3.063  12.297 -2.0249  1.2129 -1.0331
 6592TIP3    H241192   5.190   2.933  12.270  1.4020 -1.1911  0.4974
 6593TIP3   OH241193   2.063   4.067   2.933 -0.2237 -0.0221 -0.2031
 6593TIP3    H141194   1.978   4.071   2.890 -0.6315  0.2676  0.6046
 6593TIP3    H241195   2.126   4.077   2.862 -0.8418 -0.9551 -0.9031
 6594TIP3   OH241196   2.279   4.696  16.831  0.7063 -0.5328  0.0862
 6594TIP3    H141197   2.194   4.704  16.788  0.8324  0.4206 -0.0014
 6594TIP3    H241198   2.266   4.731  16.919  0.8701 -0.9045  0.2600
 6595TIP3   OH241199   4.139   0.734   2.402 -0.4329  0.3749 -0.9782
 6595TIP3    H141200   4.222   0.699   2.435 -1.2192 -2.5200 -1.7631
 6595TIP3    H241201   4.159   0.770   2.317  0.5192  2.4794  0.0819
 6596TIP3   OH241202   5.011   2.271   4.231 -0.3209 -0.0135 -0.1924
 6596TIP3    H141203   4.934   2.242   4.183  0.0464  0.8515 -1.3602
 6596TIP3    H241204   4.997   2.365   4.245  1.0946  0.4685 -1.6517
 6597TIP3   OH241205   1.560   6.108  14.664  0.6645  0.0618  0.2294
 6597TIP3    H141206   1.559   6.163  14.586 -0.4489  4.0121  2.7587
 6597TIP3    H241207   1.474   6.121  14.704  0.7332 -2.8354  1.5798
 6598TIP3   OH241208   2.651   4.767  16.460 -0.3070  0.6724  0.9245
 6598TIP3    H141209   2.565   4.808  16.466 -0.8816 -0.6940  2.7705
 6598TIP3    H241210   2.689   4.778  16.547 -0.0757 -1.7607  1.1982
 6599TIP3   OH241211   4.508   3.658  13.279  0.5699 -0.2125  0.3462
 6599TIP3    H141212   4.417   3.661  13.309  0.4876  1.5280  0.0397
 6599TIP3    H241213   4.501   3.635  13.186  0.2735  1.4853 -0.0981
 6600TIP3   OH241214   5.974   6.532  14.939 -0.1099  0.1021 -0.8581
 6600TIP3    H141215   5.896   6.588  14.931  0.9139  1.5423 -1.1585
 6600TIP3    H241216   5.956   6.477  15.016 -1.3040  0.5795 -0.7695
 6601TIP3   OH241217   0.270   0.102  13.413  0.1452 -0.7358  0.2505
 6601TIP3    H141218   0.223   0.125  13.333 -2.0138 -1.2979  1.2738
 6601TIP3    H241219   0.357   0.140  13.403 -0.4932  0.2645 -1.8046
 6602TIP3   OH241220   6.413   4.358  12.006  0.5020 -0.3538 -0.2019
 6602TIP3    H141221   6.396   4.381  11.914  2.1937 -0.0635 -0.4810
 6602TIP3    H241222   6.421   4.442  12.051 -0.8204 -0.4961  0.3364
 6603TIP3   OH241223   3.897   0.937   5.974 -0.3200  0.0411  0.3416
 6603TIP3    H141224   3.960   0.995   6.017  0.9004 -1.9440  1.3762
 6603TIP3    H241225   3.941   0.852   5.971 -2.0898 -0.8866 -0.9834
 6604TIP3   OH241226   1.815   1.649  10.436 -0.2235 -0.0917 -0.1285
 6604TIP3    H141227   1.800   1.555  10.446  0.2026  0.0873  3.2661
 6604TIP3    H241228   1.908   1.661  10.454 -0.3409  1.0177 -0.1574
 6605TIP3   OH241229   4.925   3.556  16.037 -0.3492  0.4494 -0.3825
 6605TIP3    H141230   4.833   3.553  16.063 -1.1756 -0.1060 -3.0436
 6605TIP3    H241231   4.923   3.547  15.942  2.5291 -0.6261 -0.4377
 6606TIP3   OH241232   5.231   0.852  13.357  0.0837  0.3150 -0.0110
 6606TIP3    H141233   5.237   0.796  13.435  1.8635  0.1173 -0.2359
 6606TIP3    H241234   5.137   0.862  13.341 -0.3110 -0.2369  1.7233
 6607TIP3   OH241235   2.286   1.723  16.352  0.2594  0.5069 -0.3677
 6607TIP3    H141236   2.332   1.657  16.405  0.9087  0.4264 -1.0271
 6607TIP3    H241237   2.307   1.806  16.394 -0.5033  0.3180  0.4243
 6608TIP3   OH241238   0.118   0.385   1.728  0.5153  0.6594  0.5882
 6608TIP3    H141239   0.167   0.422   1.655  0.1350 -0.6990 -0.3897
 6608TIP3    H241240   0.027   0.409   1.711  0.2305 -0.8290 -0.1808
 6609TIP3   OH241241   0.210   6.286  14.567  0.1362  0.0637  0.1081
 6609TIP3    H141242   0.155   6.317  14.639 -1.0107 -0.5256 -0.4732
 6609TIP3    H241243   0.244   6.366  14.527  0.5778  0.4021  1.1335
 6610TIP3   OH241244   3.513   4.051  15.762 -0.2965  0.2523  0.4050
 6610TIP3    H141245   3.555   3.976  15.804 -0.2267 -0.2477 -0.5321
 6610TIP3    H241246   3.442   4.013  15.710  0.2527  0.7361 -0.7409
 6611TIP3   OH241247   6.636   4.070  14.578  0.1317  0.1097  0.2269
 6611TIP3    H141248   6.692   4.115  14.516 -0.2645 -0.3273 -0.4569
 6611TIP3    H241249   6.643   3.977  14.555  0.5076 -0.1403  1.2688
 6612TIP3   OH241250   5.099   5.641   6.359 -0.1752  0.4632  0.1765
 6612TIP3    H141251   5.091   5.722   6.309 -0.0025  0.8817  0.8216
 6612TIP3    H241252   5.131   5.577   6.296  2.5371  1.5740  0.2925
 6613TIP3   OH241253   0.137   1.455   0.685  0.4233  0.0520 -0.3161
 6613TIP3    H141254   0.073   1.498   0.742  0.5496 -0.3253  0.1148
 6613TIP3    H241255   0.084   1.402   0.626  0.3200  0.0061 -0.1834
 6614TIP3   OH241256   3.729   2.140   2.213  1.0870  0.4077 -0.0896
 6614TIP3    H141257   3.689   2.226   2.226 -0.8356 -0.4315 -0.0401
 6614TIP3    H241258   3.706   2.091   2.292  0.9081 -0.5795 -0.7329
 6615TIP3   OH241259   4.430   6.178   2.726 -0.8289 -0.1086  0.3143
 6615TIP3    H141260   4.429   6.108   2.790 -1.4079  0.4290  0.9071
 6615TIP3    H241261   4.387   6.141   2.649  1.4547 -1.3558 -0.4494
 6616TIP3   OH241262   5.843   3.767   3.048 -0.0709 -0.4607  0.0201
 6616TIP3    H141263   5.856   3.678   3.081  1.2432 -0.1778  0.3346
 6616TIP3    H241264   5.900   3.772   2.971 -0.5582 -0.0568 -0.3197
 6617TIP3   OH241265   2.345   0.987   3.674 -0.3557  0.4906 -0.1328
 6617TIP3    H141266   2.329   0.994   3.580 -0.9964 -0.3564 -0.0931
 6617TIP3    H241267   2.280   0.925   3.705  0.1179  0.4494  0.8105
 6618TIP3   OH241268   4.104   5.306   5.179 -0.3744  0.1477 -0.2439
 6618TIP3    H141269   4.029   5.362   5.200 -0.1560  0.3143  0.1009
 6618TIP3    H241270   4.133   5.273   5.264  1.0022  1.4406 -0.1777
 6619TIP3   OH241271   2.221   5.087   4.220 -0.4324  0.8257 -0.5688
 6619TIP3    H141272   2.301   5.044   4.191 -0.2948  1.4253 -1.1064
 6619TIP3    H241273   2.160   5.015   4.235  0.4969  0.2955  0.8264
 6620TIP3   OH241274   0.401   5.223  14.087 -0.1313 -0.1593  0.0624
 6620TIP3    H141275   0.314   5.195  14.060  0.2563 -0.8269 -0.5198
 6620TIP3    H241276   0.458   5.151  14.063  0.4697 -0.1029  1.2296
 6621TIP3   OH241277   2.088   4.404  10.697 -0.2536  0.2181 -0.5364
 6621TIP3    H141278   2.017   4.413  10.760  1.5528  1.2913  1.5279
 6621TIP3    H241279   2.074   4.475  10.634 -1.7532 -0.4734 -1.0058
 6622TIP3   OH241280   6.439   4.255  14.175  0.7967 -0.0565 -0.1932
 6622TIP3    H141281   6.506   4.323  14.187  1.6401 -0.7078 -1.0277
 6622TIP3    H241282   6.489   4.176  14.156 -0.1119 -1.2051  1.8850
 6623TIP3   OH241283   0.935   3.973  11.899 -0.4313 -0.3055  0.7641
 6623TIP3    H141284   1.015   3.925  11.922  0.2219 -0.1556 -1.0223
 6623TIP3    H241285   0.966   4.047  11.846 -1.8538 -1.7019 -2.2778
 6624TIP3   OH241286   1.293   4.450   5.896  0.0118 -0.3373 -0.6573
 6624TIP3    H141287   1.300   4.529   5.842 -2.9521 -0.1014 -0.8875
 6624TIP3    H241288   1.298   4.482   5.986 -0.7543  0.0813 -0.7550
 6625TIP3   OH241289   6.653   2.180   3.051 -0.3571  0.4661 -0.2529
 6625TIP3    H141290   6.673   2.104   3.105 -0.2055 -0.7665 -1.9573
 6625TIP3    H241291   6.640   2.252   3.114  2.4803 -0.2210  1.2955
 6626TIP3   OH241292   3.483   0.001   6.092  0.1696 -0.6054  0.2887
 6626TIP3    H141293   3.478   0.019   6.186  0.4481  0.1656  0.1709
 6626TIP3    H241294   3.428   0.068   6.052 -0.6033 -1.4328 -0.0582
 6627TIP3   OH241295   6.258   0.038   5.274 -0.3979  0.0181  0.4029
 6627TIP3    H141296   6.302   0.018   5.356  3.1102  1.6868 -0.8776
 6627TIP3    H241297   6.279  -0.035   5.216  0.3810  0.6205 -0.0932
 6628TIP3   OH241298   3.909   6.119   6.622 -0.3003  0.7615  0.8778
 6628TIP3    H141299   3.866   6.092   6.541 -1.3989 -0.0471  1.6998
 6628TIP3    H241300   3.933   6.037   6.665  1.2740  1.1862  0.8701
 6629TIP3   OH241301   4.854   2.463   1.036  0.3143 -0.0959  0.3084
 6629TIP3    H141302   4.828   2.531   0.974  0.5974 -0.5403 -0.3067
 6629TIP3    H241303   4.935   2.428   1.000  0.7773  0.0014  1.2163
 6630TIP3   OH241304   0.166   5.674  12.518  0.2603  0.2304 -0.1460
 6630TIP3    H141305   0.089   5.730  12.509 -0.1771 -0.4083 -0.3590
 6630TIP3    H241306   0.147   5.618  12.593  0.0242 -0.7223 -0.9133
 6631TIP3   OH241307   0.979   3.366   6.452  0.5367 -0.5855  0.2819
 6631TIP3    H141308   1.046   3.426   6.417  0.7745 -1.2024 -0.3447
 6631TIP3    H241309   0.904   3.379   6.395  0.5568 -0.8084  0.2040
 6632TIP3   OH241310   1.453   6.093  16.807 -0.1290  0.3093  0.1133
 6632TIP3    H141311   1.432   6.186  16.820 -1.6019 -0.1076  1.0224
 6632TIP3    H241312   1.427   6.051  16.889  0.3471 -0.9368 -0.3488
 6633TIP3   OH241313   2.734   6.532  11.682  0.3934 -0.7166 -0.5873
 6633TIP3    H141314   2.660   6.581  11.717  0.4864  0.0797 -1.4557
 6633TIP3    H241315   2.738   6.453  11.735 -0.7842 -0.5509 -0.2243
 6634TIP3   OH241316   3.643   4.410  16.770 -0.4630  0.3581 -0.0203
 6634TIP3    H141317   3.708   4.379  16.707  0.5930  0.9225  0.7667
 6634TIP3    H241318   3.608   4.490  16.732 -0.3985  0.2786 -0.2492
 6635TIP3   OH241319   0.217   0.182   4.362 -0.0965  0.2890  0.1547
 6635TIP3    H141320   0.289   0.133   4.321  1.9896  1.8094  1.7901
 6635TIP3    H241321   0.241   0.187   4.454 -1.5355  2.1713  0.4811
 6636TIP3   OH241322   6.012   6.251  14.834 -0.2842 -0.1992 -0.1195
 6636TIP3    H141323   5.992   6.335  14.874  1.0926 -0.0339  0.2743
 6636TIP3    H241324   6.040   6.195  14.906 -1.5548 -1.1355 -0.3195
 6637TIP3   OH241325   2.749   5.982   1.939  0.1246  0.1132 -0.0572
 6637TIP3    H141326   2.812   5.914   1.961  0.2409  0.6206  1.2553
 6637TIP3    H241327   2.749   6.041   2.015  0.8297  2.1991 -1.5886
 6638TIP3   OH241328   6.658   1.616  16.637  0.2333  0.2931  0.0284
 6638TIP3    H141329   6.682   1.563  16.561 -0.9278  0.6952 -0.6510
 6638TIP3    H241330   6.562   1.619  16.635  0.2334  3.2565 -0.6032
 6639TIP3   OH241331   0.100   0.924   3.770 -0.4070 -0.5714 -0.2723
 6639TIP3    H141332   0.030   0.933   3.835 -1.2042  0.9105 -1.2575
 6639TIP3    H241333   0.097   0.832   3.744 -1.8677 -0.5844 -0.1422
 6640TIP3   OH241334   4.331   3.658   4.487  0.3053 -0.3950 -0.3700
 6640TIP3    H141335   4.307   3.648   4.579 -0.5098  0.8498 -0.4089
 6640TIP3    H241336   4.249   3.643   4.439  0.5659 -0.3629 -0.8382
 6641TIP3   OH241337   4.197   1.969  16.884 -0.3607 -0.1140  0.8885
 6641TIP3    H141338   4.127   1.908  16.860 -2.8871  3.3540 -1.4251
 6641TIP3    H241339   4.168   2.007  16.967 -2.2509  2.4207 -0.7932
 6642TIP3   OH241340   0.949   5.919  16.966  0.3866 -0.3058 -0.2443
 6642TIP3    H141341   0.937   5.928  16.871 -0.3077 -2.1827 -0.3734
 6642TIP3    H241342   1.015   5.851  16.975  0.4202 -0.1662  0.6279
 6643TIP3   OH241343   6.323   5.196  16.173  0.1949  0.1417  0.0337
 6643TIP3    H141344   6.400   5.141  16.162  1.2837  1.9222 -1.8862
 6643TIP3    H241345   6.328   5.260  16.102 -2.2511  1.2745  0.7568
 6644TIP3   OH241346   6.110   2.542  17.289  0.2027  0.3645  0.1694
 6644TIP3    H141347   6.177   2.524  17.355  0.1634  0.2615  0.1821
 6644TIP3    H241348   6.061   2.460  17.282 -0.5865  0.7518  0.9234
 6645TIP3   OH241349   4.123   0.638   0.743  0.4581 -0.5021  0.0165
 6645TIP3    H141350   4.111   0.592   0.825 -0.6346  0.4424  0.4226
 6645TIP3    H241351   4.175   0.716   0.766 -0.0128 -0.1355 -0.1358
 6646TIP3   OH241352   4.323   5.504   3.347 -0.5342  0.1714  0.3442
 6646TIP3    H141353   4.277   5.420   3.346  1.2776 -0.9530 -2.8606
 6646TIP3    H241354   4.395   5.491   3.409 -0.4894 -0.5208  0.1543
 6647TIP3   OH241355   5.495   3.642   5.673  0.1338 -0.2124 -0.5116
 6647TIP3    H141356   5.440   3.623   5.597 -0.5950  1.1315 -0.3476
 6647TIP3    H241357   5.486   3.737   5.686  0.2297 -0.4178  1.2565
 6648TIP3   OH241358   1.455   4.851   4.221  0.1037  0.4887 -0.1438
 6648TIP3    H141359   1.522   4.787   4.197  0.5022  0.5216  0.8323
 6648TIP3    H241360   1.387   4.800   4.265 -1.7741  0.0364 -3.2579
 6649TIP3   OH241361   5.152   3.586   4.747  0.0608 -0.2079  0.2363
 6649TIP3    H141362   5.180   3.621   4.832  1.3236  0.2455 -0.3462
 6649TIP3    H241363   5.090   3.650   4.714  1.8192  1.2161 -0.4997
 6650TIP3   OH241364   1.968   1.608  15.798  0.5144  0.0401 -0.7013
 6650TIP3    H141365   2.022   1.650  15.864 -1.0530  1.2080 -0.0838
 6650TIP3    H241366   1.901   1.674  15.777 -1.4218 -1.7682 -0.4825
 6651TIP3   OH241367   0.635   5.327  15.358 -0.2973  0.5136  0.0183
 6651TIP3    H141368   0.544   5.302  15.343 -0.9871  1.5911  1.9278
 6651TIP3    H241369   0.668   5.262  15.421  0.7746 -0.7476 -1.7630
 6652TIP3   OH241370   6.299   4.392  16.388 -0.0613  0.0394 -0.3784
 6652TIP3    H141371   6.304   4.470  16.334  0.9859 -0.6985 -1.4002
 6652TIP3    H241372   6.390   4.371  16.410 -0.3447 -0.6844  0.1829
 6653TIP3   OH241373   1.817   4.082  17.013  0.1669  0.1182  0.3604
 6653TIP3    H141374   1.768   4.020  16.959 -0.3192 -0.1341  1.0667
 6653TIP3    H241375   1.893   4.032  17.044 -0.0800 -0.0526  0.7056
 6654TIP3   OH241376   2.016   2.379  17.257 -0.1393  0.4836  0.0626
 6654TIP3    H141377   1.952   2.450  17.262  0.2782  0.8279  0.6200
 6654TIP3    H241378   2.069   2.389  17.336 -0.3737 -0.7448  0.3901
 6655TIP3   OH241379   2.670   4.846   2.901 -0.1081  0.5479 -0.5029
 6655TIP3    H141380   2.617   4.844   2.821 -0.7997 -1.1808 -0.0366
 6655TIP3    H241381   2.609   4.823   2.971  0.5472  1.7946  0.5194
 6656TIP3   OH241382   4.162   3.552   2.076 -0.2314  0.6949  0.1518
 6656TIP3    H141383   4.172   3.647   2.076 -4.2003  1.2714  1.0550
 6656TIP3    H241384   4.183   3.526   2.165 -0.2688  0.9051  0.2231
 6657TIP3   OH241385   3.947   4.513  13.029 -0.5548  0.0288 -0.1904
 6657TIP3    H141386   3.864   4.548  13.061  0.1134  1.4976 -0.0063
 6657TIP3    H241387   3.922   4.447  12.964 -1.8521  0.5521 -0.2414
 6658TIP3   OH241388   5.830   6.663   5.732  0.3176  0.0417  0.3836
 6658TIP3    H141389   5.747   6.626   5.762  0.2134 -0.6384 -0.6952
 6658TIP3    H241390   5.878   6.682   5.812 -0.5955 -0.2234  1.0057
 6659TIP3   OH241391   1.377   1.373   0.833 -0.0334  0.2174 -0.0226
 6659TIP3    H141392   1.393   1.279   0.821  2.2414  0.1347  2.6993
 6659TIP3    H241393   1.425   1.415   0.763  0.7583 -0.5992  0.0176
 6660TIP3   OH241394   0.651   5.937   4.283 -0.2292 -0.1229  0.0643
 6660TIP3    H141395   0.684   6.003   4.222 -0.3000 -0.6148 -0.5250
 6660TIP3    H241396   0.557   5.956   4.291 -0.1653  0.1118  0.2308
 6661TIP3   OH241397   2.968   1.794   4.151 -0.5616 -0.3481  0.4492
 6661TIP3    H141398   2.922   1.822   4.072 -0.5342  0.0108  0.5591
 6661TIP3    H241399   3.054   1.836   4.145 -0.1110 -1.2980  0.0713
 6662TIP3   OH241400   1.450   4.305   1.646 -0.5877 -0.1340 -0.2496
 6662TIP3    H141401   1.427   4.233   1.587  0.9314 -1.4511  0.6860
 6662TIP3    H241402   1.448   4.265   1.733  1.8932  0.4793  0.1524
 6663TIP3   OH241403   3.478   3.899   0.342  0.2854 -0.0447 -0.3221
 6663TIP3    H141404   3.398   3.863   0.378  0.4340  0.3194  0.3829
 6663TIP3    H241405   3.505   3.836   0.275 -0.8756  0.1012 -0.9480
 6664TIP3   OH241406   4.922   2.846   5.571  0.0201 -0.2555  0.9015
 6664TIP3    H141407   4.880   2.877   5.651 -0.5270  0.3012  0.4071
 6664TIP3    H241408   4.911   2.919   5.509  0.7866 -0.5225  0.4447
 6665TIP3   OH241409   4.483   6.539  10.789 -0.6398 -0.1692 -0.4220
 6665TIP3    H141410   4.411   6.483  10.760 -2.1115  1.1294  0.5814
 6665TIP3    H241411   4.505   6.592  10.712 -1.3731  0.0516 -0.4862
 6666TIP3   OH241412   2.613   0.975   5.316  0.0740  0.2772 -0.1339
 6666TIP3    H141413   2.663   1.027   5.253  1.1559 -0.0089  0.4657
 6666TIP3    H241414   2.649   0.999   5.401 -2.4756  1.9079  0.6115
 6667TIP3   OH241415   0.060   3.376   3.278 -0.0855 -0.3485 -0.1806
 6667TIP3    H141416   0.018   3.463   3.275 -0.2936 -0.4680 -0.8975
 6667TIP3    H241417   0.004   3.325   3.337 -0.7563 -0.3946 -0.8332
 6668TIP3   OH241418   3.638   1.778  16.230  0.6360 -0.7168 -0.0800
 6668TIP3    H141419   3.585   1.853  16.255 -0.6986 -1.9008  0.8678
 6668TIP3    H241420   3.688   1.807  16.154 -0.0299  1.0217  0.1131
 6669TIP3   OH241421   3.367   4.389   2.503  0.4768 -0.0623  0.3797
 6669TIP3    H141422   3.307   4.444   2.453  0.5266 -0.2769  0.0830
 6669TIP3    H241423   3.312   4.321   2.541  0.6211 -0.6114 -0.3888
 6670TIP3   OH241424   4.992   1.518   5.743  0.2900 -0.0594  0.0042
 6670TIP3    H141425   4.938   1.510   5.821  0.1602 -1.4920 -0.2085
 6670TIP3    H241426   4.994   1.612   5.725 -0.2727  0.2204  1.3016
 6671TIP3   OH241427   5.269   2.296   5.770 -0.1142  0.5627 -0.3414
 6671TIP3    H141428   5.190   2.325   5.724  0.1108  2.2027  0.2499
 6671TIP3    H241429   5.304   2.375   5.811  0.9303 -0.4400  0.7927
 6672TIP3   OH241430   3.450   2.543   5.722 -0.5771 -0.0633  0.3622
 6672TIP3    H141431   3.441   2.635   5.696 -1.1982  0.0116  0.8225
 6672TIP3    H241432   3.433   2.542   5.816 -1.6165 -0.7770  0.1948
 6673TIP3   OH241433   2.696   0.453   5.654  0.4295 -0.3000 -0.0191
 6673TIP3    H141434   2.768   0.516   5.646  1.1877 -1.2816 -1.2064
 6673TIP3    H241435   2.625   0.490   5.602  0.8764 -0.4101 -0.7169
 6674TIP3   OH241436   2.541   0.128   3.879  0.0918  0.0887  0.3242
 6674TIP3    H141437   2.582   0.106   3.796 -1.0356 -0.3454 -0.1485
 6674TIP3    H241438   2.531   0.044   3.924 -2.1443 -0.1543 -0.4907
 6675TIP3   OH241439   1.189   6.254   2.693 -0.2302 -0.3136 -0.5965
 6675TIP3    H141440   1.117   6.230   2.634  0.1641  1.2330 -1.7539
 6675TIP3    H241441   1.204   6.175   2.745 -1.9401 -1.0682 -1.1671
 6676TIP3   OH241442   3.152   1.428   0.115  0.6906  0.4902  0.2439
 6676TIP3    H141443   3.065   1.391   0.130  0.8215 -1.1628 -2.3387
 6676TIP3    H241444   3.147   1.517   0.149 -1.6761  0.1154  1.0476
 6677TIP3   OH241445   4.286   1.781   3.775 -0.0634  0.1241  0.6637
 6677TIP3    H141446   4.261   1.869   3.804 -0.1593  0.7037 -1.1040
 6677TIP3    H241447   4.206   1.730   3.781 -0.4313  0.6213  0.0177
 6678TIP3   OH241448   2.148   4.141  14.461  0.0470 -0.3034 -0.5465
 6678TIP3    H141449   2.070   4.085  14.461 -0.7044  0.6414 -2.4478
 6678TIP3    H241450   2.114   4.228  14.440  1.4863  0.3497 -0.2630
 6679TIP3   OH241451   3.700   1.311   4.134  0.1411  0.2648  0.2056
 6679TIP3    H141452   3.765   1.332   4.201  0.0400 -1.0146  0.7239
 6679TIP3    H241453   3.712   1.380   4.068  2.5827 -0.3713 -0.1281
 6680TIP3   OH241454   2.348   2.157  11.743 -0.4841  0.2004  0.0981
 6680TIP3    H141455   2.424   2.202  11.705  1.0473 -2.9561 -0.8487
 6680TIP3    H241456   2.378   2.129  11.830 -0.1627 -1.8686 -0.6360
 6681TIP3   OH241457   4.357   2.900   3.521  0.5708  0.0443  0.1981
 6681TIP3    H141458   4.295   2.827   3.529  2.1269 -1.3643 -0.0172
 6681TIP3    H241459   4.319   2.970   3.575 -0.8156 -1.0297  0.6766
 6682TIP3   OH241460   5.962   5.324   4.633  0.6953 -0.4523 -0.2949
 6682TIP3    H141461   5.867   5.328   4.639  0.5492  0.4620 -2.4903
 6682TIP3    H241462   5.980   5.291   4.545  2.4146 -0.3514 -0.0247
 6683TIP3   OH241463   3.477   1.840   3.971  0.1289 -0.0096  0.3443
 6683TIP3    H141464   3.447   1.754   3.943  0.3471 -0.1793  0.6290
 6683TIP3    H241465   3.552   1.859   3.914 -0.5819  0.4814 -0.4720
 6684TIP3   OH241466   0.943   2.587   2.699 -0.1858  0.1561 -0.4464
 6684TIP3    H141467   0.862   2.587   2.648  1.0412  2.9986 -2.6968
 6684TIP3    H241468   0.984   2.672   2.679  1.4151  0.6339  3.8244
 6685TIP3   OH241469   0.121   5.748  13.537 -0.5106 -0.0761 -0.1539
 6685TIP3    H141470   0.193   5.810  13.526 -0.2391 -0.5897 -1.5246
 6685TIP3    H241471   0.064   5.765  13.463 -1.0441 -0.6630  0.1137
 6686TIP3   OH241472   0.445   1.513  13.460  0.0634 -0.2207 -0.2279
 6686TIP3    H141473   0.408   1.428  13.482  1.5429 -1.1110 -1.0026
 6686TIP3    H241474   0.534   1.511  13.495 -0.1790  1.3866  0.5593
 6687TIP3   OH241475   2.565   4.777   6.078 -0.5675 -0.3652  0.6272
 6687TIP3    H141476   2.549   4.730   6.160  0.0562  1.6783  2.0157
 6687TIP3    H241477   2.624   4.848   6.104 -2.6118  2.0731 -1.0131
 6688TIP3   OH241478   4.054   6.386  13.372 -0.0127  0.0762  0.1671
 6688TIP3    H141479   3.994   6.364  13.302 -2.2836  1.3551  1.6027
 6688TIP3    H241480   4.064   6.481  13.367  0.7010  0.0525  0.8832
 6689TIP3   OH241481   3.682   6.566  16.105  0.4752 -0.3479  0.4156
 6689TIP3    H141482   3.702   6.597  16.193  3.3670 -0.5006 -0.1054
 6689TIP3    H241483   3.694   6.643  16.050 -0.1775 -0.5333  0.0047
 6690TIP3   OH241484   3.165   4.038  11.334 -0.1724 -0.2261  0.2915
 6690TIP3    H141485   3.102   4.076  11.395  0.3614  0.3550  0.4960
 6690TIP3    H241486   3.197   3.960  11.378 -1.1469 -0.8274 -0.0506
 6691TIP3   OH241487   0.795   1.276  15.188  0.1219 -0.0322 -0.4616
 6691TIP3    H141488   0.748   1.298  15.268  0.9121  0.5948 -0.1519
 6691TIP3    H241489   0.801   1.180  15.189 -1.6832 -0.1933 -0.8472
 6692TIP3   OH241490   4.697   3.444   2.970 -0.1908  0.0277 -0.0111
 6692TIP3    H141491   4.629   3.502   3.005 -0.6071 -0.2865 -0.3004
 6692TIP3    H241492   4.679   3.359   3.009  0.5439  0.1349  0.5700
 6693TIP3   OH241493   6.320   1.545  14.466 -0.2253  0.0734 -0.3410
 6693TIP3    H141494   6.391   1.601  14.436 -1.8063  2.6892  0.4262
 6693TIP3    H241495   6.307   1.481  14.396  2.9656 -0.6795 -0.3838
 6694TIP3   OH241496   1.199   2.645  17.322 -0.3753 -0.1858 -0.5401
 6694TIP3    H141497   1.254   2.708  17.274 -0.1497  0.0642  0.0294
 6694TIP3    H241498   1.152   2.597  17.254  0.0343  0.0723 -1.0128
 6695TIP3   OH241499   6.400   1.716  10.918  0.3469  0.2412 -0.1873
 6695TIP3    H141500   6.481   1.766  10.932  0.1503  0.2319  1.0922
 6695TIP3    H241501   6.391   1.711  10.823  1.2571  1.2103 -0.3415
 6696TIP3   OH241502   1.263   5.861  14.947  0.0112  0.0692 -0.2658
 6696TIP3    H141503   1.339   5.826  14.902  0.5656  0.9734 -0.0716
 6696TIP3    H241504   1.190   5.806  14.919  0.5818 -0.2495 -1.1676
 6697TIP3   OH241505   0.910   4.983  11.084 -0.0785  0.1761  0.0909
 6697TIP3    H141506   0.996   4.942  11.093  0.6175  0.9449 -2.2774
 6697TIP3    H241507   0.850   4.911  11.064  0.1646 -0.2576  0.8930
 6698TIP3   OH241508   3.769   4.975  12.282  0.2417  0.2272  0.6729
 6698TIP3    H141509   3.759   4.920  12.204 -0.1021  1.1890  0.0262
 6698TIP3    H241510   3.813   5.054  12.250 -0.0008  0.6732  1.4333
 6699TIP3   OH241511   2.268   1.562   4.507  0.2497  0.6869  0.1500
 6699TIP3    H141512   2.263   1.486   4.565  2.8606 -0.0664 -0.4554
 6699TIP3    H241513   2.288   1.524   4.421  1.1670  2.0276 -0.2481
 6700TIP3   OH241514   3.012   5.180   5.425  0.2890 -0.1077 -0.2032
 6700TIP3    H141515   2.937   5.193   5.367  0.0234 -1.8310 -0.3258
 6700TIP3    H241516   3.008   5.253   5.487 -1.9745 -0.5532  0.2785
 6701TIP3   OH241517   3.636   5.667   0.517 -0.2027  0.1927 -0.1188
 6701TIP3    H141518   3.667   5.631   0.600  0.8785 -0.7857 -0.8984
 6701TIP3    H241519   3.639   5.762   0.528 -0.5357  0.0696  1.1042
 6702TIP3   OH241520   3.997   5.032  16.296  0.6431 -0.4559  0.1100
 6702TIP3    H141521   4.026   4.966  16.233  1.1382 -1.0812  0.9676
 6702TIP3    H241522   4.046   5.013  16.376 -0.8061 -0.4210  1.0594
 6703TIP3   OH241523   2.521   3.012   5.802  0.1924  0.1821 -0.4912
 6703TIP3    H141524   2.604   2.975   5.831 -1.0268 -1.0433  1.6758
 6703TIP3    H241525   2.488   3.060   5.878 -2.1231 -1.3117 -0.4435
 6704TIP3   OH241526   5.862   4.816   1.719  0.1093  0.6561  0.2384
 6704TIP3    H141527   5.883   4.895   1.767  1.2705  1.5754 -1.6445
 6704TIP3    H241528   5.906   4.827   1.634 -2.0098 -0.7362 -1.1478
 6705TIP3   OH241529   6.324   2.928  12.789  0.5065 -0.2297  0.4188
 6705TIP3    H141530   6.277   2.850  12.758 -1.0238  2.2973 -4.6042
 6705TIP3    H241531   6.258   2.978  12.837  0.5289 -0.4812  0.7145
 6706TIP3   OH241532   0.438   2.340  11.459 -0.1753  0.0910  0.1221
 6706TIP3    H141533   0.360   2.289  11.439  0.4401 -0.5171 -0.7523
 6706TIP3    H241534   0.410   2.431  11.449 -1.0322 -0.0812  0.8087
 6707TIP3   OH241535   1.589   3.251  11.856 -0.4021 -0.2105 -0.0887
 6707TIP3    H141536   1.537   3.188  11.906 -0.3242  0.1094  0.4065
 6707TIP3    H241537   1.525   3.311  11.818 -0.3510  1.5139  2.3187
 6708TIP3   OH241538   0.542   5.279   4.632 -0.6322  0.0329 -0.7927
 6708TIP3    H141539   0.578   5.304   4.717 -0.1927  0.4986 -1.1095
 6708TIP3    H241540   0.593   5.330   4.569 -2.6870  1.7295 -1.1946
 6709TIP3   OH241541   6.112   0.145   3.709 -0.0971  0.3373 -0.0812
 6709TIP3    H141542   6.019   0.160   3.690 -0.2498 -0.7796 -0.2879
 6709TIP3    H241543   6.113   0.114   3.799  0.0225 -0.0906 -0.2274
 6710TIP3   OH241544   4.429   2.951   4.447 -0.0219 -0.2118  0.6655
 6710TIP3    H141545   4.356   2.891   4.438  0.2645 -0.4546 -0.1399
 6710TIP3    H241546   4.507   2.897   4.432  0.3008  0.1223  1.1103
 6711TIP3   OH241547   5.737   2.210   4.058  0.3307 -0.3333 -0.2250
 6711TIP3    H141548   5.739   2.182   3.966 -0.8203  3.2003 -1.4915
 6711TIP3    H241549   5.682   2.145   4.101 -1.7623 -0.4074 -2.7636
 6712TIP3   OH241550   3.691   3.136   1.193 -0.3443 -0.2134  0.4269
 6712TIP3    H141551   3.765   3.130   1.132 -0.2690  1.6590  0.2983
 6712TIP3    H241552   3.624   3.081   1.154 -0.1378  0.5963 -1.1386
 6713TIP3   OH241553   1.213   6.767   3.275 -0.0350  0.1161  0.1562
 6713TIP3    H141554   1.265   6.735   3.348  0.9508  1.7169  0.2119
 6713TIP3    H241555   1.273   6.824   3.226 -1.1039  0.2459 -1.0458
 6714TIP3   OH241556   3.810   4.839  15.420 -0.0867 -0.4566  0.1780
 6714TIP3    H141557   3.828   4.749  15.394  0.1748 -0.5318  0.6174
 6714TIP3    H241558   3.840   4.892  15.346 -1.7235 -0.8138 -0.8045
 6715TIP3   OH241559   0.046   4.565  12.155 -0.3605 -0.2809 -0.7624
 6715TIP3    H141560   0.101   4.486  12.154 -2.0514 -1.5274 -0.3311
 6715TIP3    H241561  -0.009   4.555  12.232 -1.8416  0.4416 -1.6823
 6716TIP3   OH241562   2.539   2.331  13.763 -0.4264  0.3658  0.0416
 6716TIP3    H141563   2.624   2.319  13.720 -1.3704  0.1297 -1.8423
 6716TIP3    H241564   2.475   2.309  13.696 -2.0026  0.8129  1.3465
 6717TIP3   OH241565   4.717   2.728   3.666 -0.1135  0.0527 -0.4703
 6717TIP3    H141566   4.774   2.787   3.618  1.7821 -0.3453  1.1369
 6717TIP3    H241567   4.667   2.682   3.599  0.3495  1.4926 -1.8633
 6718TIP3   OH241568   4.255   1.708  15.902  0.0432 -0.1272 -0.2299
 6718TIP3    H141569   4.222   1.770  15.966 -0.9559 -0.1697 -0.6810
 6718TIP3    H241570   4.350   1.710  15.913 -0.0172  0.9682  0.2232
 6719TIP3   OH241571   2.496   6.326  14.759  0.8312 -0.3652 -0.1830
 6719TIP3    H141572   2.462   6.408  14.721 -1.8609 -1.1193  0.3597
 6719TIP3    H241573   2.481   6.336  14.853 -0.2354 -1.7089 -0.1703
 6720TIP3   OH241574   0.330   0.486   5.123 -0.6064 -0.9479 -0.1781
 6720TIP3    H141575   0.367   0.473   5.036 -0.6377 -0.1032 -0.3169
 6720TIP3    H241576   0.350   0.576   5.145 -0.1511 -1.2991  0.9092
 6721TIP3   OH241577   0.696   1.588   0.379  0.1339  0.3471  0.0342
 6721TIP3    H141578   0.747   1.657   0.423  0.4770  0.1206 -0.0038
 6721TIP3    H241579   0.647   1.635   0.311  0.8478  0.4737 -0.4069
 6722TIP3   OH241580   0.895   0.450   5.314 -0.7506  0.5442  0.0337
 6722TIP3    H141581   0.895   0.480   5.224  0.7423 -2.0133 -0.9216
 6722TIP3    H241582   0.951   0.512   5.361 -1.0917  1.5795 -0.9148
 6723TIP3   OH241583   1.845   3.082  11.944  0.2570  0.4289 -1.1322
 6723TIP3    H141584   1.786   3.019  11.986  0.5177  0.2485 -1.0358
 6723TIP3    H241585   1.909   3.029  11.897  1.9469  0.5178  0.9028
 6724TIP3   OH241586   5.198   1.416  17.107  1.0780  0.7988  0.2303
 6724TIP3    H141587   5.163   1.350  17.047 -0.3388  0.8855  0.9055
 6724TIP3    H241588   5.227   1.487  17.050  1.1720  0.2549 -0.4182
 6725TIP3   OH241589   6.098   4.737   3.492  0.3907 -1.2222  0.6683
 6725TIP3    H141590   6.113   4.783   3.410  2.1939 -1.8730  0.5877
 6725TIP3    H241591   6.118   4.645   3.472  0.6800 -1.4146  1.7766
 6726TIP3   OH241592   2.675   6.720  11.889  0.2642  1.3900  0.5079
 6726TIP3    H141593   2.634   6.648  11.936 -0.5175  1.0090 -0.6985
 6726TIP3    H241594   2.769   6.703  11.894  0.0702 -0.0096 -0.2061
 6727TIP3   OH241595   0.360   4.683   4.126  0.0843  0.2013  0.2402
 6727TIP3    H141596   0.271   4.717   4.119  0.0842 -0.1136 -1.8705
 6727TIP3    H241597   0.364   4.611   4.063  2.0566  0.7698 -0.3717
 6728TIP3   OH241598   1.510   2.680  12.892 -0.1408  0.5623 -0.0272
 6728TIP3    H141599   1.563   2.625  12.949 -1.4026  0.3301  0.9733
 6728TIP3    H241600   1.534   2.653  12.803  2.1321  1.1901  0.3410
 6729TIP3   OH241601   5.673   6.373  11.970  0.2176  0.3345 -0.0149
 6729TIP3    H141602   5.757   6.331  11.951  0.4734  1.0319 -0.4348
 6729TIP3    H241603   5.611   6.331  11.909  0.3483  0.1244 -0.0020
 6730TIP3   OH241604   5.750   1.060  11.656 -0.2935  0.0146 -0.3860
 6730TIP3    H141605   5.745   1.055  11.560 -0.3011  1.2479 -0.4632
 6730TIP3    H241606   5.659   1.059  11.684 -0.2874 -0.5488 -0.3665
 6731TIP3   OH241607   4.640   1.523  15.646 -0.2841  0.0656 -0.0931
 6731TIP3    H141608   4.596   1.571  15.575 -0.1602  0.2319 -0.0587
 6731TIP3    H241609   4.574   1.460  15.676  0.2680 -1.3002 -1.5837
 6732TIP3   OH241610   0.430   4.290  16.068  0.1177 -0.3930 -0.4202
 6732TIP3    H141611   0.494   4.357  16.043  1.4826 -1.2676  0.5525
 6732TIP3    H241612   0.352   4.311  16.017  0.3901  2.0898  0.0545
 6733TIP3   OH241613   6.248   2.234   6.044 -0.4785 -0.0435  0.3032
 6733TIP3    H141614   6.332   2.272   6.018 -0.8137  1.4329  1.2296
 6733TIP3    H241615   6.184   2.302   6.022 -1.1696 -0.2719  1.5277
 6734TIP3   OH241616   6.612   4.809  10.819  0.1063 -0.4167 -0.6140
 6734TIP3    H141617   6.522   4.824  10.848 -0.0113 -1.5446 -0.3547
 6734TIP3    H241618   6.638   4.728  10.862  1.4540  0.1794 -0.2440
 6735TIP3   OH241619   1.369   3.643  11.182 -0.7285  0.7497 -0.5811
 6735TIP3    H141620   1.409   3.679  11.261 -0.4702 -1.7329  0.4971
 6735TIP3    H241621   1.276   3.637  11.204 -0.6102 -0.2397 -0.3304
 6736TIP3   OH241622   5.539   5.667   4.731  0.1935  0.6566 -0.0292
 6736TIP3    H141623   5.493   5.748   4.710 -0.4958  0.0406 -0.9640
 6736TIP3    H241624   5.503   5.640   4.816  0.1570  1.1306  0.1053
 6737TIP3   OH241625   4.861   1.535  12.045 -0.2860  0.0394  0.4616
 6737TIP3    H141626   4.786   1.591  12.024 -1.1841 -1.1030  0.4734
 6737TIP3    H241627   4.889   1.563  12.132 -0.0306  1.1624  0.0382
 6738TIP3   OH241628   2.804   2.830  11.241 -0.3360 -0.2175 -0.2952
 6738TIP3    H141629   2.863   2.901  11.266 -0.4821  0.3129 -1.3808
 6738TIP3    H241630   2.782   2.849  11.150 -2.3553 -0.2680  0.1343
 6739TIP3   OH241631   1.804   5.545   6.227  0.3845  0.5074 -0.4036
 6739TIP3    H141632   1.884   5.503   6.257 -0.7616 -0.6529  1.2011
 6739TIP3    H241633   1.760   5.479   6.173  0.5327  1.1670 -1.3591
 6740TIP3   OH241634   5.017   3.217  15.493 -0.0329  0.2622 -0.2165
 6740TIP3    H141635   5.094   3.263  15.458  1.5732 -0.2123  2.4128
 6740TIP3    H241636   5.011   3.247  15.584 -2.4050 -0.4788 -0.0705
 6741TIP3   OH241637   4.876   1.716  11.565 -0.0420 -0.1584 -0.1657
 6741TIP3    H141638   4.942   1.724  11.635  0.5159  0.4637 -0.7343
 6741TIP3    H241639   4.908   1.775  11.497 -2.7815  2.7137  0.7580
 6742TIP3   OH241640   3.712   3.966   2.912  0.0809  0.2864 -0.0203
 6742TIP3    H141641   3.643   3.917   2.955  1.0991  0.4868  1.9661
 6742TIP3    H241642   3.671   4.047   2.884 -0.4445  0.5352  1.4134
 6743TIP3   OH241643   5.093   3.239   1.846  0.2087 -0.1320  0.3663
 6743TIP3    H141644   5.120   3.310   1.787 -0.0769 -0.7827 -0.5579
 6743TIP3    H241645   5.088   3.281   1.932  2.4261  0.4306  0.2933
 6744TIP3   OH241646   3.051   6.098   5.551  0.1640  0.3212 -0.4874
 6744TIP3    H141647   2.986   6.062   5.491  1.1495 -0.8536 -0.8809
 6744TIP3    H241648   3.083   6.177   5.507 -0.1982  0.2928 -0.8056
 6745TIP3   OH241649   5.783   2.283   2.117 -0.7062  0.1730  0.6018
 6745TIP3    H141650   5.749   2.369   2.092 -0.5005  0.5011  1.4323
 6745TIP3    H241651   5.813   2.245   2.034  2.3620  2.2658  0.5575
 6746TIP3   OH241652   0.718   3.080  15.825  0.4321  0.2108  0.0752
 6746TIP3    H141653   0.734   3.174  15.832 -2.1469  0.7391 -0.2178
 6746TIP3    H241654   0.790   3.047  15.772  0.8315  2.1934 -0.6876
 6747TIP3   OH241655   2.209   0.938   4.521  0.3711 -0.6873  0.4573
 6747TIP3    H141656   2.291   0.930   4.569 -0.0055 -1.4349  0.9996
 6747TIP3    H241657   2.194   1.032   4.513  0.0965 -0.5130  2.4339
 6748TIP3   OH241658   5.780   4.418   4.169  0.1905  0.0250 -0.2770
 6748TIP3    H141659   5.707   4.375   4.125 -0.2400 -0.5222  0.9457
 6748TIP3    H241660   5.824   4.348   4.217 -0.9357  0.9961  2.3090
 6749TIP3   OH241661   2.793   1.163   1.464 -0.2872  0.4177 -0.5418
 6749TIP3    H141662   2.857   1.226   1.498  0.3463 -0.4481 -0.0885
 6749TIP3    H241663   2.835   1.078   1.474 -0.6800 -0.0096 -2.1498
 6750TIP3   OH241664   0.006   6.331   4.684  0.4574 -0.0410  0.3222
 6750TIP3    H141665  -0.055   6.309   4.754  1.8730 -0.9166  1.3227
 6750TIP3    H241666   0.043   6.247   4.657  1.4369  0.4989 -0.0585
 6751TIP3   OH241667   1.839   0.073  13.214  0.1129  0.6099  0.8270
 6751TIP3    H141668   1.744   0.077  13.226 -0.2430 -0.3588 -1.1527
 6751TIP3    H241669   1.876   0.096  13.299 -1.8892  0.9928  1.6405
 6752TIP3   OH241670   1.433   6.199   0.663  0.0736  0.1023 -0.3169
 6752TIP3    H141671   1.417   6.289   0.691 -0.4641 -0.1846  0.3263
 6752TIP3    H241672   1.515   6.174   0.706 -1.8133 -1.0648  2.9202
 6753TIP3   OH241673   5.482   1.898   5.701 -0.6068 -0.1250  0.0731
 6753TIP3    H141674   5.482   1.974   5.643 -0.7433  0.7293  1.1668
 6753TIP3    H241675   5.569   1.860   5.691 -0.5505  0.1458 -0.5142
 6754TIP3   OH241676   6.116   0.621  14.099  0.2029 -0.0060 -0.7250
 6754TIP3    H141677   6.059   0.695  14.081  1.4365  0.6857 -2.0775
 6754TIP3    H241678   6.168   0.648  14.174  0.0703  0.1599 -0.6932
 6755TIP3   OH241679   3.560   0.457  13.241 -0.7149  0.0387  0.4160
 6755TIP3    H141680   3.576   0.400  13.165  1.6962  1.8525 -0.5521
 6755TIP3    H241681   3.471   0.490  13.227 -0.9670 -1.0186 -0.6888
 6756TIP3   OH241682   4.857   0.249  16.235  0.0525  0.1350 -0.0072
 6756TIP3    H141683   4.905   0.326  16.205 -0.3629  0.3896 -0.0161
 6756TIP3    H241684   4.913   0.175  16.209 -0.1266  0.3705 -1.0893
 6757TIP3   OH241685   5.426   2.421  14.941  0.2033  0.5910  0.9943
 6757TIP3    H141686   5.396   2.355  15.004  1.2721 -0.1509  0.7551
 6757TIP3    H241687   5.388   2.394  14.858  1.5655 -0.4212  0.6665
 6758TIP3   OH241688   6.261   5.479  17.295 -0.7323 -0.4907 -0.2765
 6758TIP3    H141689   6.216   5.399  17.322 -1.5254 -0.3345 -1.0697
 6758TIP3    H241690   6.213   5.550  17.338  1.3025 -0.5059  2.2181
 6759TIP3   OH241691   3.439   3.253   3.154 -0.7971  0.3625  0.3571
 6759TIP3    H141692   3.352   3.244   3.117 -0.9117 -0.3953  0.7853
 6759TIP3    H241693   3.429   3.228   3.246 -0.6408  2.7663  1.1060
 6760TIP3   OH241694   1.605   0.694  11.220 -0.1536 -0.5890  0.3077
 6760TIP3    H141695   1.634   0.731  11.136 -0.6862  1.8389  1.0974
 6760TIP3    H241696   1.685   0.686  11.271  0.0787 -1.4092 -0.1587
 6761TIP3   OH241697   1.559   2.129  16.603  0.3823  0.0904  0.1968
 6761TIP3    H141698   1.609   2.145  16.683  1.0419 -1.5912  0.1660
 6761TIP3    H241699   1.613   2.165  16.533  0.6053  0.0547  0.3506
 6762TIP3   OH241700   2.610   0.444  13.071  0.0196  0.3169 -0.3147
 6762TIP3    H141701   2.543   0.423  13.136 -0.5862  0.7581 -0.7859
 6762TIP3    H241702   2.593   0.535  13.048  1.5429  0.8329  0.4380
 6763TIP3   OH241703   6.390   2.693   0.893 -0.0205  0.1125  0.2548
 6763TIP3    H141704   6.459   2.723   0.953  0.0285 -0.9980  0.7802
 6763TIP3    H241705   6.438   2.654   0.820 -0.0616  2.1189 -0.9247
 6764TIP3   OH241706   3.899   3.717   5.176  0.3209 -0.5772  0.1505
 6764TIP3    H141707   3.837   3.731   5.248 -0.8531 -1.5962 -0.6260
 6764TIP3    H241708   3.869   3.777   5.107  1.4091  0.3551  0.4459
 6765TIP3   OH241709   3.625   1.959  15.220 -0.2692 -0.2797 -0.2939
 6765TIP3    H141710   3.552   1.969  15.159  0.3965  1.2185 -0.8865
 6765TIP3    H241711   3.689   1.907  15.172  0.1148  0.6136 -0.7705
 6766TIP3   OH241712   5.669   6.600   5.235 -0.1549 -0.0504 -0.3767
 6766TIP3    H141713   5.656   6.694   5.222  0.3392  0.1145  0.2132
 6766TIP3    H241714   5.760   6.593   5.265  0.3271 -0.8829 -1.9656
 6767TIP3   OH241715   4.921   5.621   4.271  0.1448 -0.0528 -0.3870
 6767TIP3    H141716   4.952   5.557   4.335  0.4406  0.8999  0.4402
 6767TIP3    H241717   4.839   5.653   4.307 -1.5293 -2.0095 -2.2023
 6768TIP3   OH241718   1.980   0.428  13.432  0.6972 -0.1216  0.0649
 6768TIP3    H141719   2.053   0.375  13.464 -0.1117 -1.1851  0.2029
 6768TIP3    H241720   1.997   0.438  13.339  1.2282 -0.0129  0.1671
 6769TIP3   OH241721   0.110   5.575   0.416 -0.6831 -0.0616  0.2737
 6769TIP3    H141722   0.116   5.635   0.341 -1.9371 -0.5366 -0.2480
 6769TIP3    H241723   0.199   5.569   0.450  0.1830 -0.7497 -1.9289
 6770TIP3   OH241724   3.160   2.912  14.033  0.5155  0.3595 -0.4392
 6770TIP3    H141725   3.117   2.871  13.958  0.7583  0.8974 -0.8731
 6770TIP3    H241726   3.138   3.005  14.026  2.0279  0.7168 -0.8788
 6771TIP3   OH241727   1.298   3.145   0.571  0.5187 -0.2650  0.3152
 6771TIP3    H141728   1.337   3.215   0.520 -1.1973  1.8817  1.7808
 6771TIP3    H241729   1.278   3.077   0.507  0.9968  1.1328 -1.3796
 6772TIP3   OH241730   3.005   1.466  15.396 -0.3016 -0.5035  0.8370
 6772TIP3    H141731   2.962   1.500  15.317  0.4004  0.1741  0.7350
 6772TIP3    H241732   3.085   1.517  15.404  0.3485 -1.5359  1.1968
 6773TIP3   OH241733   2.305   2.363   5.148 -0.1647  0.0999  0.0834
 6773TIP3    H141734   2.265   2.448   5.168  0.1234  0.1800  0.3257
 6773TIP3    H241735   2.355   2.378   5.068  2.3216  0.9712  1.6617
 6774TIP3   OH241736   1.060   6.418  10.430 -0.3677  0.4898 -0.5568
 6774TIP3    H141737   1.019   6.450  10.511 -0.9359 -0.3770 -0.4890
 6774TIP3    H241738   1.154   6.418  10.450 -0.2408  2.8485 -0.8374
 6775TIP3   OH241739   1.845   0.978   4.610 -0.1508  0.1153  0.3645
 6775TIP3    H141740   1.823   0.895   4.568  1.3888  0.4263 -1.1531
 6775TIP3    H241741   1.786   1.042   4.570  0.5126  0.2011 -0.5107
 6776TIP3   OH241742   2.217   5.732  15.834  0.5659 -0.1783 -0.0244
 6776TIP3    H141743   2.234   5.657  15.776  0.1734  1.3480 -2.2330
 6776TIP3    H241744   2.302   5.775  15.842  0.2865  0.5885 -0.9644
 6777TIP3   OH241745   2.592   2.053  14.425  0.0039 -0.5162 -0.0305
 6777TIP3    H141746   2.680   2.025  14.402 -0.1947 -0.8557 -0.3923
 6777TIP3    H241747   2.557   1.983  14.480 -0.1146 -0.4789 -0.0578
 6778TIP3   OH241748   6.281   6.118  16.833  1.1011 -0.5325  0.1473
 6778TIP3    H141749   6.309   6.188  16.774  0.6051 -2.6234 -2.7806
 6778TIP3    H241750   6.363   6.076  16.860  1.2598 -0.6910 -0.5640
 6779TIP3   OH241751   0.427   1.676   1.124  0.1987  0.2394  0.7300
 6779TIP3    H141752   0.355   1.654   1.184 -1.0927  0.0974 -0.8100
 6779TIP3    H241753   0.384   1.723   1.052  0.9317 -3.1141 -2.1505
 6780TIP3   OH241754   5.843   5.498  12.261 -0.1757  0.1820  0.4974
 6780TIP3    H141755   5.832   5.585  12.222 -1.6083  0.1207  0.6857
 6780TIP3    H241756   5.909   5.455  12.207 -1.3348  0.4832 -1.2524
 6781TIP3   OH241757   3.420   4.717   0.476 -0.2097 -0.1030 -0.1746
 6781TIP3    H141758   3.514   4.727   0.459 -0.3843 -1.3120 -2.2343
 6781TIP3    H241759   3.415   4.639   0.532  0.0504  0.7158  1.0364
 6782TIP3   OH241760   3.499   3.619  10.474  0.6731  0.2116 -0.4445
 6782TIP3    H141761   3.514   3.525  10.467  2.3065  0.3405  0.6804
 6782TIP3    H241762   3.575   3.651  10.523 -1.3573  1.6819  1.9372
 6783TIP3   OH241763   1.969   2.518  16.428  0.1330 -0.0339 -0.3449
 6783TIP3    H141764   2.022   2.461  16.372  0.4254 -1.3695  1.2148
 6783TIP3    H241765   2.030   2.548  16.496 -0.4823  0.5728 -0.0487
 6784TIP3   OH241766   4.696   0.836  14.466 -0.3990 -0.0952 -0.2425
 6784TIP3    H141767   4.604   0.847  14.491 -0.9799  0.7756 -2.4959
 6784TIP3    H241768   4.695   0.766  14.401  0.2247  1.1453 -1.6366
 6785TIP3   OH241769   6.506   2.213   3.990  0.2713 -0.0378  0.0424
 6785TIP3    H141770   6.582   2.154   3.986 -0.5986 -1.2168  0.4119
 6785TIP3    H241771   6.543   2.300   3.974  1.6801 -0.5995  0.0585
 6786TIP3   OH241772   1.676   6.380  13.002 -0.6534 -0.4879  0.0936
 6786TIP3    H141773   1.677   6.289  12.972 -0.3377 -0.5315  0.2379
 6786TIP3    H241774   1.595   6.416  12.965 -0.4606 -0.6469 -0.5040
 6787TIP3   OH241775   0.864   1.752   0.848 -0.7200 -0.1966  0.1969
 6787TIP3    H141776   0.953   1.751   0.813 -1.6619 -0.4758 -2.3788
 6787TIP3    H241777   0.856   1.838   0.891  1.0272 -0.5272  1.2984
 6788TIP3   OH241778   4.956   4.478  14.708  0.1458  0.4276 -0.0370
 6788TIP3    H141779   4.994   4.499  14.793 -0.7015 -2.2787  1.1286
 6788TIP3    H241780   5.004   4.400  14.680 -1.7684 -0.6521 -0.4421
 6789TIP3   OH241781   2.079   3.863   0.302  0.1134 -0.3323  0.1823
 6789TIP3    H141782   2.152   3.894   0.356 -0.2171 -1.1404  1.1268
 6789TIP3    H241783   2.026   3.810   0.362 -1.2207  0.1866 -0.4965
 6790TIP3   OH241784   2.595   3.366   1.247 -0.1637 -0.5288 -0.3883
 6790TIP3    H141785   2.682   3.356   1.210 -0.0046 -0.7538  0.0433
 6790TIP3    H241786   2.536   3.335   1.179  0.0574  0.1546 -0.9043
 6791TIP3   OH241787   4.277   6.600   1.884  0.2181 -0.4027 -0.9593
 6791TIP3    H141788   4.211   6.666   1.865 -0.8224 -1.3494 -0.7765
 6791TIP3    H241789   4.360   6.644   1.869 -0.0711  2.6556  4.0265
 6792TIP3   OH241790   3.987   4.023   2.909 -0.5954 -0.6404 -0.2465
 6792TIP3    H141791   3.895   4.006   2.888 -0.6243  0.6119 -1.2503
 6792TIP3    H241792   3.986   4.103   2.960 -0.0112 -0.1044 -1.0399
 6793TIP3   OH241793   0.981   0.907  16.521  0.1098 -0.3396 -0.4767
 6793TIP3    H141794   0.979   0.863  16.437  2.6633 -0.3999 -0.6037
 6793TIP3    H241795   0.998   0.999  16.500  0.8913 -0.3743 -0.0652
 6794TIP3   OH241796   2.747   3.725  16.600 -0.1059 -0.0656 -0.0875
 6794TIP3    H141797   2.702   3.804  16.570  0.8030  0.1928 -0.8135
 6794TIP3    H241798   2.794   3.693  16.523  0.8967 -0.3614  0.6290
 6795TIP3   OH241799   5.243   4.579   6.316 -0.0126  0.4880 -0.2113
 6795TIP3    H141800   5.238   4.493   6.358  0.7130  0.7480  0.4455
 6795TIP3    H241801   5.278   4.561   6.229  0.2745  0.1189 -0.0255
 6796TIP3   OH241802   2.160   3.938  12.745 -0.2583 -0.1947  0.2142
 6796TIP3    H141803   2.132   3.857  12.703 -1.7353  0.5689 -0.3582
 6796TIP3    H241804   2.114   4.007  12.697  1.5447  1.0561  0.2076
 6797TIP3   OH241805   3.091   6.340  17.125 -0.7454  0.0054  0.0637
 6797TIP3    H141806   3.146   6.296  17.061  0.2321  1.5120 -0.1739
 6797TIP3    H241807   3.088   6.431  17.095 -0.6685  0.6390  1.8856
 6798TIP3   OH241808   1.334   6.720   2.847  0.1761 -0.7079 -0.0183
 6798TIP3    H141809   1.362   6.716   2.939  0.4790 -1.9283 -0.1489
 6798TIP3    H241810   1.362   6.806   2.817 -0.6316  0.0418  1.2483
 6799TIP3   OH241811   3.726   1.512   3.136 -0.4257  0.0247  0.5371
 6799TIP3    H141812   3.695   1.448   3.072 -0.3437  0.2248  0.2955
 6799TIP3    H241813   3.772   1.460   3.201  0.8479 -0.0395 -0.3779
 6800TIP3   OH241814   1.536   5.821   5.990  0.1583  0.3788  0.8471
 6800TIP3    H141815   1.572   5.750   5.937 -0.3648  0.1800  0.7498
 6800TIP3    H241816   1.521   5.781   6.075  0.9600  0.6878  1.1459
 6801TIP3   OH241817   6.205   4.483   1.317 -0.1346 -0.2186 -0.0141
 6801TIP3    H141818   6.240   4.561   1.360  0.3023 -0.2423 -0.3175
 6801TIP3    H241819   6.113   4.480   1.343 -0.0644  0.1976  0.2877
 6802TIP3   OH241820   0.796   1.084  15.647 -0.1453 -0.5059 -0.3788
 6802TIP3    H141821   0.874   1.126  15.613 -1.2919 -0.2153 -2.8958
 6802TIP3    H241822   0.730   1.154  15.650 -0.8381 -1.1440 -0.2254
 6803TIP3   OH241823   6.368   4.128   2.339 -0.2879  0.1331 -0.1919
 6803TIP3    H141824   6.387   4.221   2.336 -0.4901  0.2372  1.0011
 6803TIP3    H241825   6.319   4.116   2.421 -4.6209 -0.2502 -2.5659
 6804TIP3   OH241826   1.811   2.866  12.983 -0.1513 -0.1313  0.6950
 6804TIP3    H141827   1.731   2.901  12.945 -0.5253 -0.7322  0.9141
 6804TIP3    H241828   1.785   2.837  13.071  0.4190  0.1226  0.9534
 6805TIP3   OH241829   4.124   4.194   5.461 -0.3368  0.3422  0.2964
 6805TIP3    H141830   4.191   4.227   5.402 -2.9391  1.8347 -2.0440
 6805TIP3    H241831   4.150   4.103   5.478  0.8625  0.0017 -2.7252
 6806TIP3   OH241832   4.479   4.914   2.547 -0.1796  0.1963 -0.1725
 6806TIP3    H141833   4.421   4.971   2.598  0.0283  0.2564 -0.0031
 6806TIP3    H241834   4.422   4.876   2.480 -0.1884  1.1042 -0.7008
 6807TIP3   OH241835   5.758   6.264  15.777  0.0014 -0.1608 -0.1023
 6807TIP3    H141836   5.823   6.196  15.793  0.9434  0.9514  1.1147
 6807TIP3    H241837   5.745   6.305  15.863 -1.0259  0.7533 -0.6650
 6808TIP3   OH241838   5.404   6.112  13.765 -0.7477 -0.0815  0.0781
 6808TIP3    H141839   5.351   6.032  13.774  0.8158 -0.9889  1.9805
 6808TIP3    H241840   5.394   6.155  13.850  0.7890  0.2072  0.1263
 6809TIP3   OH241841   3.355   1.613   5.291  0.2992  0.2290 -0.0161
 6809TIP3    H141842   3.377   1.554   5.219 -1.8547 -2.2119  1.1493
 6809TIP3    H241843   3.275   1.658   5.263 -0.6405 -0.8499  0.8268
 6810TIP3   OH241844   0.951   5.781   1.129 -0.1238 -0.3266  0.4695
 6810TIP3    H141845   0.946   5.854   1.068  2.5537 -0.5349 -0.0885
 6810TIP3    H241846   1.018   5.806   1.192 -0.8926 -1.3047  1.7318
 6811TIP3   OH241847   1.885   5.276   0.945 -0.2963  0.5320 -0.6612
 6811TIP3    H141848   1.914   5.311   1.030  1.0799 -1.2302 -0.3445
 6811TIP3    H241849   1.885   5.352   0.887 -0.2999  1.5957  0.6599
 6812TIP3   OH241850   0.530   0.148   1.152 -0.5470  0.6924 -0.4858
 6812TIP3    H141851   0.534   0.170   1.059 -1.5893  0.8840 -0.4968
 6812TIP3    H241852   0.510   0.230   1.196 -1.7123  0.3038 -0.2627
 6813TIP3   OH241853   6.273   1.937  11.609  0.4041 -0.4335 -0.1788
 6813TIP3    H141854   6.323   1.928  11.528  0.2538  1.3522 -0.5162
 6813TIP3    H241855   6.296   2.024  11.643  0.9450 -1.3771  2.0650
 6814TIP3   OH241856   3.547   4.972   4.728 -0.3081  0.0610  0.0740
 6814TIP3    H141857   3.593   4.888   4.732  0.7431  0.6248  0.3940
 6814TIP3    H241858   3.615   5.036   4.750 -1.0480  1.0060 -0.3712
 6815TIP3   OH241859   0.900   3.942  16.615  0.4887  0.1178 -0.4741
 6815TIP3    H141860   0.950   3.978  16.541  1.4797 -0.3040 -0.0224
 6815TIP3    H241861   0.927   3.995  16.690  0.3058 -0.1677 -0.2098
 6816TIP3   OH241862   1.848   1.816   1.010  0.0877  0.6836 -0.0734
 6816TIP3    H141863   1.851   1.840   0.917 -1.7477 -0.2016 -0.4159
 6816TIP3    H241864   1.760   1.780   1.022  0.7246 -0.3826  1.7362
 6817TIP3   OH241865   1.457   5.787   2.736  0.1497  0.3990 -0.1577
 6817TIP3    H141866   1.403   5.719   2.776  0.9421 -0.9403 -1.2341
 6817TIP3    H241867   1.547   5.755   2.748  0.5211  1.1093 -0.9555
 6818TIP3   OH241868   4.106   4.510   0.300  0.1171 -0.5630 -0.3502
 6818TIP3    H141869   4.196   4.480   0.315 -0.0428 -0.8563  0.0372
 6818TIP3    H241870   4.113   4.605   0.294 -0.1291 -0.0494  4.3310
 6819TIP3   OH241871   5.683   6.259   0.002  0.0394 -0.0913 -0.7976
 6819TIP3    H141872   5.709   6.180  -0.045  0.0248 -0.9500  0.5656
 6819TIP3    H241873   5.766   6.298   0.031  0.0068 -0.2315 -0.5105
 6820TIP3   OH241874   1.142   0.946   5.490  0.1115  0.1500 -0.0748
 6820TIP3    H141875   1.081   0.960   5.562 -0.8834  1.2420 -1.0851
 6820TIP3    H241876   1.228   0.944   5.531 -0.4618  0.4023  1.1793
 6821TIP3   OH241877   2.800   0.157  11.604 -0.2602  0.7011 -0.2526
 6821TIP3    H141878   2.789   0.244  11.566  0.9584  0.6505 -0.7743
 6821TIP3    H241879   2.721   0.109  11.578 -0.6910  1.4903 -0.4173
 6822TIP3   OH241880   3.195   4.585  15.297  0.3141  0.6491  0.1233
 6822TIP3    H141881   3.160   4.504  15.261 -0.8203  0.3423  1.8240
 6822TIP3    H241882   3.187   4.649  15.225  0.0983 -0.4258 -0.8296
 6823TIP3   OH241883   0.149   3.536  12.970 -0.2587  0.1629 -0.8394
 6823TIP3    H141884   0.200   3.592  13.029  0.9569 -1.7969  0.0773
 6823TIP3    H241885   0.092   3.486  13.028  0.0968 -0.9381 -1.4217
 6824TIP3   OH241886   6.127   4.906  12.861 -0.5046 -0.1170  0.2464
 6824TIP3    H141887   6.033   4.893  12.846 -0.7820  0.9986  0.8931
 6824TIP3    H241888   6.132   4.986  12.914  0.7153 -1.0776  1.6654
 6825TIP3   OH241889   6.498   5.350  13.392 -0.3845  0.1079  0.1222
 6825TIP3    H141890   6.537   5.386  13.312  0.1829 -0.9863 -0.1136
 6825TIP3    H241891   6.464   5.265  13.366  0.5962 -0.6477  1.2292
 6826TIP3   OH241892   2.682   0.983  15.225  0.5274  0.2040  0.4050
 6826TIP3    H141893   2.755   0.945  15.176 -1.0106 -1.0970 -0.9746
 6826TIP3    H241894   2.614   0.997  15.160 -0.8099  0.4904  1.8094
 6827TIP3   OH241895   1.615   2.306  12.086 -0.0751 -0.1239  0.8425
 6827TIP3    H141896   1.585   2.252  12.013 -0.6387 -0.2898  1.1837
 6827TIP3    H241897   1.652   2.243  12.148  3.1263  0.2400 -0.5067
 6828TIP3   OH241898   6.504   5.318   3.324 -0.4536 -0.3587  0.6659
 6828TIP3    H141899   6.592   5.312   3.288 -1.0627 -0.7534 -0.8517
 6828TIP3    H241900   6.476   5.226   3.334 -1.0326 -0.2507  0.1673
 6829TIP3   OH241901   6.258   1.233  14.815 -0.2317  0.0811  0.3835
 6829TIP3    H141902   6.193   1.233  14.744 -0.2191  1.2133  0.3444
 6829TIP3    H241903   6.226   1.168  14.877 -2.1418  1.4778  0.9763
 6830TIP3   OH241904   4.221   2.774  16.696  0.3110 -0.4630  0.4063
 6830TIP3    H141905   4.157   2.703  16.705 -0.8742 -0.0542 -3.1647
 6830TIP3    H241906   4.300   2.732  16.662  0.0872 -0.2829 -0.3502
 6831TIP3   OH241907   6.659   1.311   0.818  0.5220 -0.1600 -0.6164
 6831TIP3    H141908   6.730   1.249   0.801 -0.2833 -0.9281 -1.3545
 6831TIP3    H241909   6.698   1.379   0.873  1.3825 -1.4528  0.4389
 6832TIP3   OH241910   5.514   5.220   5.298  0.1027 -0.3230  0.4792
 6832TIP3    H141911   5.534   5.207   5.391  1.2230  1.0047  0.4446
 6832TIP3    H241912   5.451   5.292   5.297  1.6492  1.0786  0.1311
 6833TIP3   OH241913   5.932   1.525   3.822  0.1092 -0.0455  0.3109
 6833TIP3    H141914   5.844   1.499   3.849 -0.1452  2.7678  2.6428
 6833TIP3    H241915   5.924   1.615   3.793  2.1781  0.2620  0.4970
 6834TIP3   OH241916   2.990   0.322  12.226 -0.0936 -0.1795  0.1351
 6834TIP3    H141917   2.957   0.325  12.316 -0.6132  1.6799 -0.0757
 6834TIP3    H241918   3.056   0.391  12.223  0.4149 -0.6971 -0.7384
 6835TIP3   OH241919   5.163   4.318   0.137  1.0529 -0.0355  0.1034
 6835TIP3    H141920   5.156   4.412   0.121 -1.8728 -0.0980  0.5697
 6835TIP3    H241921   5.127   4.306   0.225 -1.3026 -1.8368 -0.9988
 6836TIP3   OH241922   2.132   1.068  12.973  0.5266  0.7075  0.3532
 6836TIP3    H141923   2.185   1.148  12.978 -1.3129  1.8917  2.0458
 6836TIP3    H241924   2.050   1.096  12.932  0.4209 -0.6888 -0.4694
 6837TIP3   OH241925   2.666   0.589   5.154  0.1736  0.1407 -0.4394
 6837TIP3    H141926   2.718   0.515   5.121  0.7239  0.2929  0.0717
 6837TIP3    H241927   2.663   0.650   5.080 -1.6415 -1.0551 -1.4247
 6838TIP3   OH241928   4.714   2.770   5.221  0.1607  0.4953 -0.1364
 6838TIP3    H141929   4.645   2.818   5.175 -0.0107  0.7976  0.4295
 6838TIP3    H241930   4.685   2.679   5.220 -0.5604  0.7093  0.6431
 6839TIP3   OH241931   5.578   3.650  14.621  0.6755  0.3049 -0.4594
 6839TIP3    H141932   5.539   3.578  14.571  0.3477  0.5222 -0.5284
 6839TIP3    H241933   5.630   3.607  14.689  1.5449  0.0011 -1.2924
 6840TIP3   OH241934   0.178   1.495  16.682 -0.1654 -0.2264 -0.3497
 6840TIP3    H141935   0.105   1.548  16.714 -0.6498 -0.8559 -0.3881
 6840TIP3    H241936   0.221   1.463  16.761  0.7894  1.0851 -0.3101
 6841TIP3   OH241937   4.260   1.473  12.832  0.2855 -0.5531  0.0353
 6841TIP3    H141938   4.293   1.542  12.889 -1.2091  0.0248  0.2378
 6841TIP3    H241939   4.273   1.506  12.743 -1.1952  0.3784  0.1479
 6842TIP3   OH241940   0.968   2.555  10.960 -0.3446 -0.4453 -0.2336
 6842TIP3    H141941   0.902   2.548  10.891 -0.2938 -2.1783 -0.1534
 6842TIP3    H241942   0.918   2.548  11.042 -0.4256  1.7410 -0.0129
 6843TIP3   OH241943   3.664   1.935  15.836  0.1236 -0.0447  0.0548
 6843TIP3    H141944   3.606   2.008  15.812 -0.0234  0.6847  2.3320
 6843TIP3    H241945   3.605   1.871  15.877  0.8237  0.7022  2.3894
 6844TIP3   OH241946   0.720   2.846  12.918  0.1229 -0.0445 -0.6653
 6844TIP3    H141947   0.733   2.891  12.835  1.5434 -0.5940 -0.7596
 6844TIP3    H241948   0.694   2.757  12.893 -0.9869  0.2100 -0.4868
 6845TIP3   OH241949   2.744   0.741  11.543  0.1593  0.7702 -0.3565
 6845TIP3    H141950   2.750   0.717  11.636 -3.3424 -1.1914 -0.4682
 6845TIP3    H241951   2.676   0.808  11.540 -0.8031 -0.2226 -1.6212
 6846TIP3   OH241952   4.459   5.274   1.984 -0.2809 -0.3840 -0.2941
 6846TIP3    H141953   4.426   5.186   1.969 -1.3581  0.0428 -0.5455
 6846TIP3    H241954   4.381   5.330   1.975  0.3259  0.5508  0.1819
 6847TIP3   OH241955   0.067   2.599   1.429 -0.2566 -0.0965  0.2966
 6847TIP3    H141956   0.070   2.618   1.335 -0.7416 -1.0554  0.0774
 6847TIP3    H241957   0.058   2.504   1.434  3.0111 -0.4796  1.3605
 6848TIP3   OH241958   6.159   3.527  16.882  0.1550  0.1440 -0.3205
 6848TIP3    H141959   6.150   3.455  16.819  0.1900 -0.4886  0.3802
 6848TIP3    H241960   6.168   3.483  16.967 -0.6770  0.9909  0.2271
 6849TIP3   OH241961   5.500   3.475  11.204 -0.6318  0.2479 -0.0171
 6849TIP3    H141962   5.447   3.415  11.256 -1.3166  1.3478  0.6017
 6849TIP3    H241963   5.438   3.518  11.146 -0.1424  0.3298 -0.4886
 6850TIP3   OH241964   5.842   6.347  16.375  0.1542  0.0973 -0.5844
 6850TIP3    H141965   5.915   6.344  16.437 -1.4897 -1.3218  1.4480
 6850TIP3    H241966   5.807   6.436  16.383 -0.4263 -0.2522  1.0776
 6851TIP3   OH241967   4.529   6.708  14.596 -0.5828 -0.0079  0.2544
 6851TIP3    H141968   4.518   6.618  14.565  0.4474  0.2217 -0.8667
 6851TIP3    H241969   4.616   6.709  14.634 -1.3554  0.0422  2.1343
 6852TIP3   OH241970   4.510   1.810   6.048  0.2067 -0.3378 -0.3267
 6852TIP3    H141971   4.454   1.786   6.122 -0.6315 -1.1707 -1.2012
 6852TIP3    H241972   4.599   1.809   6.084 -0.1879 -0.6512  0.6775
 6853TIP3   OH241973   6.055   4.347   3.043 -0.2258  0.0156 -0.2480
 6853TIP3    H141974   6.144   4.314   3.038  0.2442  1.2193 -0.2107
 6853TIP3    H241975   6.038   4.383   2.956  0.8302  3.3825  0.7861
 6854TIP3   OH241976   1.425   2.625  15.883  0.0436 -0.0533  0.0459
 6854TIP3    H141977   1.456   2.630  15.792 -2.4502  1.0168 -0.8129
 6854TIP3    H241978   1.377   2.543  15.887 -1.0717  0.5860 -0.0297
 6855TIP3   OH241979   3.601   2.699  11.353 -0.3812  0.1168 -0.0896
 6855TIP3    H141980   3.580   2.777  11.301  2.1163  0.7181 -0.3390
 6855TIP3    H241981   3.651   2.643  11.294 -1.6873 -1.4884  0.2491
 6856TIP3   OH241982   2.230   1.396  16.327  0.5236 -0.2530 -0.3419
 6856TIP3    H141983   2.268   1.345  16.399 -1.2365 -0.2652  0.6529
 6856TIP3    H241984   2.148   1.430  16.363 -0.8761 -0.9872 -2.6226
 6857TIP3   OH241985   2.472   3.600   4.002  0.4097 -0.4349 -0.1443
 6857TIP3    H141986   2.562   3.618   3.976  0.1090  2.7822  0.5348
 6857TIP3    H241987   2.419   3.639   3.932 -0.4093  0.0902  0.7374
 6858TIP3   OH241988   0.492   3.612  10.500  0.7724  0.0044 -0.1088
 6858TIP3    H141989   0.577   3.591  10.463  1.1814 -2.4834  1.9256
 6858TIP3    H241990   0.437   3.536  10.479  0.4688 -0.5962  2.4452
 6859TIP3   OH241991   4.082   1.413  15.765  0.1568 -0.2002  0.2974
 6859TIP3    H141992   3.987   1.410  15.775  0.1342  0.6279  0.3498
 6859TIP3    H241993   4.115   1.354  15.832 -0.3832 -2.0370 -0.9652
 6860TIP3   OH241994   6.326   4.103   4.844  0.2875 -0.1472  0.1080
 6860TIP3    H141995   6.400   4.144   4.800  0.9912 -1.2190  0.2514
 6860TIP3    H241996   6.358   4.016   4.868 -0.4559 -0.0347  1.6666
 6861TIP3   OH241997   3.037   3.879  14.464 -0.1249  0.0760 -0.4715
 6861TIP3    H141998   2.955   3.839  14.495  0.5990 -1.5899 -0.6368
 6861TIP3    H241999   3.105   3.815  14.486  1.6188  2.6111  2.2799
 6862TIP3   OH242000   2.004   3.477   3.012  0.3487 -0.2227  0.0710
 6862TIP3    H142001   2.035   3.454   2.925 -0.3137 -0.6577 -0.0645
 6862TIP3    H242002   2.008   3.395   3.062  0.5364 -0.0227  0.3866
 6863TIP3   OH242003   3.569   3.294  10.496 -0.0337 -0.0284 -0.1089
 6863TIP3    H142004   3.656   3.287  10.534  0.0195 -0.0834 -0.2406
 6863TIP3    H242005   3.536   3.204  10.493 -0.0408 -0.0237 -0.1836
 6864TIP3   OH242006   3.662   5.440  12.306 -0.4947 -0.3828  0.2325
 6864TIP3    H142007   3.678   5.466  12.216  0.1601 -0.4070  0.3363
 6864TIP3    H242008   3.603   5.365  12.300  1.0342 -1.6199 -0.2865
 6865TIP3   OH242009   5.330   1.348  15.885 -0.1020 -0.0270 -0.3908
 6865TIP3    H142010   5.416   1.385  15.901  0.0581 -0.7344  0.4394
 6865TIP3    H242011   5.272   1.424  15.879  0.3153  0.3864  0.6860
 6866TIP3   OH242012   3.283   0.562   1.827 -0.3510 -0.3421  1.1444
 6866TIP3    H142013   3.211   0.593   1.881  0.8620  2.0109  1.5514
 6866TIP3    H242014   3.353   0.626   1.841  1.4293 -1.8952 -0.0988
 6867TIP3   OH242015   1.946   2.812   3.778  0.0131  0.3811  0.5513
 6867TIP3    H142016   1.901   2.776   3.855  0.8015 -0.7517  0.4931
 6867TIP3    H242017   1.875   2.838   3.719 -0.6299  1.7750  1.8573
 6868TIP3   OH242018   6.016   0.956  16.948 -0.0314 -0.4811 -0.2508
 6868TIP3    H142019   6.099   0.921  16.983  0.0377  0.5796  0.7155
 6868TIP3    H242020   6.029   0.957  16.853  0.9521 -0.6000 -0.1356
 6869TIP3   OH242021   5.419   0.015  11.849  0.5345  0.3739 -0.4283
 6869TIP3    H142022   5.401   0.078  11.918 -0.5237  0.2259 -0.5541
 6869TIP3    H242023   5.485  -0.044  11.886  0.7393  0.9129  0.0693
 6870TIP3   OH242024   0.254   4.083  16.189 -0.2639  0.5798 -0.1788
 6870TIP3    H142025   0.257   4.013  16.124 -1.6553 -1.3564  1.7265
 6870TIP3    H242026   0.293   4.159  16.144 -0.5115 -0.8324 -2.9798
 6871TIP3   OH242027   2.869   3.011  14.576  0.1148  0.0464 -0.3626
 6871TIP3    H142028   2.940   2.951  14.554 -0.7929 -1.1023 -0.2440
 6871TIP3    H242029   2.886   3.038  14.666  1.1448  0.8843 -0.7879
 6872TIP3   OH242030   6.745   0.385   4.355  0.0041 -0.1756 -0.2745
 6872TIP3    H142031   6.835   0.353   4.355  0.3087  0.5426  1.6793
 6872TIP3    H242032   6.692   0.310   4.331  1.0917 -0.6842 -1.1616
 6873TIP3   OH242033   2.499   1.361   4.402  0.0626  0.0942  0.2614
 6873TIP3    H142034   2.536   1.448   4.384  0.4401 -0.3937 -1.5629
 6873TIP3    H242035   2.576   1.304   4.407 -0.2966 -0.5732 -1.3966
 6874TIP3   OH242036   3.881   6.446   4.179 -0.7310 -0.3196 -0.1105
 6874TIP3    H142037   3.860   6.523   4.126 -2.6536  0.2440  1.3334
 6874TIP3    H242038   3.956   6.406   4.135  1.0783  2.9507 -0.3623
 6875TIP3   OH242039   3.691   1.742  14.666 -0.0351  0.6828 -0.0691
 6875TIP3    H142040   3.619   1.678  14.664  0.3449 -0.0967  3.5284
 6875TIP3    H242041   3.650   1.822  14.698  0.2373  1.0694 -0.6797
 6876TIP3   OH242042   5.277   0.257   0.495 -0.3966 -0.2037  0.5790
 6876TIP3    H142043   5.197   0.220   0.459  0.6305 -0.9147 -1.1011
 6876TIP3    H242044   5.314   0.309   0.424  0.1589  0.8998  1.6403
 6877TIP3   OH242045   5.798   3.398  14.186  0.5454 -0.2074 -0.2833
 6877TIP3    H142046   5.868   3.377  14.125 -0.8904 -2.9842 -1.1143
 6877TIP3    H242047   5.824   3.354  14.267 -0.1177 -1.0612 -0.5304
 6878TIP3   OH242048   5.402   6.360   0.722 -0.0174 -0.0122  0.4568
 6878TIP3    H142049   5.454   6.292   0.680  1.5135  1.3375  0.0452
 6878TIP3    H242050   5.410   6.343   0.815  1.5562  0.3961  0.4232
 6879TIP3   OH242051   2.683   4.437  12.188 -0.3942 -0.0322  0.1647
 6879TIP3    H142052   2.691   4.522  12.147  0.0077  0.4739  1.2599
 6879TIP3    H242053   2.635   4.384  12.125  1.5114  0.2440 -1.6172
 6880TIP3   OH242054   4.552   0.521   3.998  0.3473  0.3669 -0.0902
 6880TIP3    H142055   4.645   0.532   3.977  0.0613  1.3591 -0.9185
 6880TIP3    H242056   4.550   0.452   4.064  1.7106  0.6435  0.2621
 6881TIP3   OH242057   2.795   1.103   3.309 -0.0393 -0.5265  0.7973
 6881TIP3    H142058   2.708   1.113   3.349 -2.2242 -0.5782 -3.4102
 6881TIP3    H242059   2.836   1.188   3.322 -1.1368 -0.1236  1.9382
 6882TIP3   OH242060   4.002   0.068  17.139 -0.5180 -0.4244  0.0333
 6882TIP3    H142061   3.946   0.060  17.062 -1.1459 -0.9468  0.5340
 6882TIP3    H242062   3.999  -0.018  17.180 -0.0867 -0.1880  0.5755
 6883TIP3   OH242063   4.396   2.702   0.262  0.0132  0.1789 -0.5097
 6883TIP3    H142064   4.472   2.716   0.205  0.8466  2.5690  1.0529
 6883TIP3    H242065   4.335   2.772   0.238 -1.7243 -1.6193 -1.6419
 6884TIP3   OH242066   6.308   4.813   0.230  0.1771  0.5715  0.1737
 6884TIP3    H142067   6.347   4.728   0.247  0.9799  0.2383 -2.7634
 6884TIP3    H242068   6.213   4.797   0.236  0.2723 -0.8289 -1.3259
 6885TIP3   OH242069   5.339   6.565   3.185  0.2185  0.4077  0.4464
 6885TIP3    H142070   5.301   6.534   3.268 -1.3363 -0.6561 -0.6124
 6885TIP3    H242071   5.373   6.486   3.143 -2.3518  0.2640 -1.5740
 6886TIP3   OH242072   3.139   2.401  15.208  0.3439 -0.1224 -0.0748
 6886TIP3    H142073   3.226   2.388  15.245  0.5882 -0.7720 -0.8448
 6886TIP3    H242074   3.134   2.494  15.188  0.5392  0.0706  0.7604
 6887TIP3   OH242075   3.169   2.598  14.616  0.2067  0.0647  0.1061
 6887TIP3    H142076   3.173   2.504  14.595 -0.3419  0.6699 -3.1615
 6887TIP3    H242077   3.259   2.628  14.609  0.2223  0.0014  0.0344
 6888TIP3   OH242078   1.340   0.656  11.323 -0.1564 -0.5782  0.3460
 6888TIP3    H142079   1.290   0.718  11.375  0.0442 -0.6555  0.6356
 6888TIP3    H242080   1.421   0.702  11.302  0.5789 -1.1851  1.6819
 6889TIP3   OH242081   5.466   2.637   1.558 -0.0961  0.3774 -0.8087
 6889TIP3    H142082   5.498   2.586   1.484  2.9112 -2.4571  2.0906
 6889TIP3    H242083   5.380   2.599   1.578 -0.1341 -0.0407 -1.7489
 6890TIP3   OH242084   6.762   0.955   6.551 -0.1435  0.4668 -0.1450
 6890TIP3    H142085   6.731   0.923   6.466 -0.1281  1.6577 -0.6188
 6890TIP3    H242086   6.857   0.950   6.545 -0.1536  0.1636 -0.0438
 6891TIP3   OH242087   0.113   4.966   5.822 -0.2013 -0.3667 -0.2647
 6891TIP3    H142088   0.168   4.944   5.746  0.4560 -0.4141  0.2153
 6891TIP3    H242089   0.037   4.908   5.814  0.3277 -1.0645 -0.3605
 6892TIP3   OH242090   4.450   2.314  12.959 -0.0090  0.2211  0.2203
 6892TIP3    H142091   4.413   2.226  12.949  2.0179 -0.4953 -1.7087
 6892TIP3    H242092   4.432   2.358  12.876  0.6481  0.9716  0.4602
 6893TIP3   OH242093   4.671   4.559  13.744 -0.1218  0.6536 -0.0174
 6893TIP3    H142094   4.611   4.634  13.744 -0.4380  0.4047  0.9232
 6893TIP3    H242095   4.708   4.559  13.655 -1.2674  0.9989 -0.5094
 6894TIP3   OH242096   5.868   4.831  13.216 -0.0718  0.0086  0.2898
 6894TIP3    H142097   5.909   4.782  13.145  0.8719  0.3932  0.5531
 6894TIP3    H242098   5.814   4.896  13.171  0.3838  0.1369 -0.0820
 6895TIP3   OH242099   2.119   2.719  13.574 -0.3931 -0.2626 -0.2011
 6895TIP3    H142100   2.057   2.764  13.515 -1.5767 -1.0601  0.3981
 6895TIP3    H242101   2.152   2.646  13.522 -0.1417  0.0219 -0.4424
 6896TIP3   OH242102   2.805   6.662   3.326 -0.2850  0.0723  0.0885
 6896TIP3    H142103   2.724   6.613   3.317 -1.0312  0.9779  1.4989
 6896TIP3    H242104   2.852   6.647   3.243 -2.4548  0.5569 -1.3073
 6897TIP3   OH242105   1.407   0.925  16.573 -0.3761  0.0125  0.1849
 6897TIP3    H142106   1.485   0.956  16.619 -0.8964  0.5278  0.7401
 6897TIP3    H242107   1.364   1.005  16.543 -0.6062 -0.2768 -0.2576
 6898TIP3   OH242108   5.993   4.818   0.264 -0.0363  0.2393  0.2133
 6898TIP3    H142109   5.926   4.770   0.314  1.0757 -0.2679  1.2691
 6898TIP3    H242110   5.950   4.839   0.181 -1.2889 -0.6355  0.6031
 6899TIP3   OH242111   4.598   2.179   6.137  0.4234 -0.5947  0.0076
 6899TIP3    H142112   4.680   2.131   6.124  0.8164 -0.4029  1.5569
 6899TIP3    H242113   4.626   2.269   6.153 -0.3031  0.2658 -2.9604
 6900TIP3   OH242114   6.768   3.852  16.401 -0.0662 -0.1683  0.1752
 6900TIP3    H142115   6.787   3.789  16.331 -0.2877  0.0538 -0.0869
 6900TIP3    H242116   6.777   3.801  16.482  1.7693 -0.0451  0.0927
 6901TIP3   OH242117   3.386   4.819   2.789  0.2704  0.1862 -0.0964
 6901TIP3    H142118   3.299   4.840   2.757  0.5736  3.1405  0.7414
 6901TIP3    H242119   3.378   4.821   2.884  1.0445 -0.6015  0.0016
 6902TIP3   OH242120   5.092   3.169   4.852 -0.1427  0.2236 -0.4453
 6902TIP3    H142121   5.045   3.125   4.781 -0.1574 -0.5880  0.0515
 6902TIP3    H242122   5.175   3.195   4.813 -0.2548  0.0154 -0.8314
 6903TIP3   OH242123   2.566   4.803  16.180 -0.6586  0.2489 -0.1134
 6903TIP3    H142124   2.552   4.896  16.199 -2.8006 -0.1968  0.8095
 6903TIP3    H242125   2.601   4.767  16.261  0.4750  0.2785 -0.5723
 6904TIP3   OH242126   1.433   3.187   2.272  0.4795  0.2934 -0.1058
 6904TIP3    H142127   1.518   3.182   2.317  1.3919 -1.5134 -1.9202
 6904TIP3    H242128   1.455   3.188   2.179 -1.3930  3.3257 -0.6671
 6905TIP3   OH242129   0.715   2.432   4.122 -0.8607  0.0990  0.4093
 6905TIP3    H142130   0.647   2.404   4.061 -1.2843 -1.0317  1.3488
 6905TIP3    H242131   0.747   2.514   4.087 -1.4525 -0.2630 -1.0409
 6906TIP3   OH242132   2.771   1.424  13.504 -0.0994 -0.0540 -0.5752
 6906TIP3    H142133   2.771   1.386  13.592 -1.7889 -1.8251 -1.2599
 6906TIP3    H242134   2.703   1.491  13.507  0.0746  0.1174 -0.4460
 6907TIP3   OH242135   5.276   3.445   2.323  0.0895 -0.0948  0.3878
 6907TIP3    H142136   5.322   3.363   2.305  1.3446  0.5281  0.6175
 6907TIP3    H242137   5.346   3.509   2.338 -0.8375  0.6336  1.9463
 6908TIP3   OH242138   6.730   5.069   5.305  0.4402 -0.1441 -0.1393
 6908TIP3    H142139   6.650   5.120   5.322  0.8829  0.4456  0.2274
 6908TIP3    H242140   6.703   4.978   5.315 -1.0502 -0.2306 -3.5028
 6909TIP3   OH242141   1.286   5.692  15.173 -0.2345 -0.3821 -0.4874
 6909TIP3    H142142   1.292   5.756  15.102  0.0266  1.1519  0.8638
 6909TIP3    H242143   1.368   5.641  15.167  0.7782  1.1312 -0.0212
 6910TIP3   OH242144   3.936   5.195  12.197  0.1963  0.3893  0.7539
 6910TIP3    H142145   3.976   5.240  12.123  0.5056 -1.4034 -0.2216
 6910TIP3    H242146   3.909   5.265  12.256  2.3908  1.7654  0.2214
 6911TIP3   OH242147   1.293   4.071  13.357 -0.2289  0.1582  0.2549
 6911TIP3    H142148   1.269   4.045  13.268 -1.4329  1.7635  0.0674
 6911TIP3    H242149   1.239   4.015  13.413 -0.8212  0.3854 -0.0763
 6912TIP3   OH242150   0.560   2.332   5.077 -0.0013  0.1867 -0.4720
 6912TIP3    H142151   0.655   2.348   5.082  0.0163 -0.2090  0.8337
 6912TIP3    H242152   0.533   2.322   5.168 -1.0822 -0.9502 -0.8913
 6913TIP3   OH242153   4.354   4.399   0.363 -0.1552 -0.2869  0.1024
 6913TIP3    H142154   4.357   4.439   0.449  1.1904 -1.9624  0.9023
 6913TIP3    H242155   4.437   4.422   0.323  0.0042 -1.0304 -0.0059
 6914TIP3   OH242156   4.199   6.012  14.938  0.0101 -0.9094  0.2634
 6914TIP3    H142157   4.284   5.971  14.949  2.7363  3.1145 -2.8634
 6914TIP3    H242158   4.176   5.995  14.846 -1.2060  0.3477  0.3078
 6915TIP3   OH242159   3.737   4.280   6.348 -0.6553 -0.3319  0.4559
 6915TIP3    H142160   3.760   4.286   6.256  1.1177  0.6679  0.9055
 6915TIP3    H242161   3.708   4.190   6.361  0.1289 -0.7890 -0.8489
 6916TIP3   OH242162   1.499   0.285  15.907 -0.0976  0.2767 -0.0884
 6916TIP3    H142163   1.486   0.344  15.982 -0.1609 -1.8024  1.6408
 6916TIP3    H242164   1.525   0.201  15.946 -0.2723 -0.9514 -2.4007
 6917TIP3   OH242165   5.217   3.597  13.664  0.1097 -0.4193  0.4606
 6917TIP3    H142166   5.127   3.623  13.682 -0.0086 -0.9125  0.5969
 6917TIP3    H242167   5.218   3.502  13.677  0.6085 -0.4412  0.2944
 6918TIP3   OH242168   0.408   3.260   3.460 -0.5589  0.0100 -0.8677
 6918TIP3    H142169   0.398   3.346   3.419 -1.6484  0.6693  0.6654
 6918TIP3    H242170   0.355   3.266   3.540 -2.5301 -2.8310 -1.8026
 6919TIP3   OH242171   5.480   4.598   1.041 -0.8178 -0.0542  0.3345
 6919TIP3    H142172   5.450   4.589   1.132 -1.5038 -0.1196  0.1102
 6919TIP3    H242173   5.443   4.522   0.997 -0.6364  0.0749 -0.0378
 6920TIP3   OH242174   5.919   1.931   1.016  0.6690 -0.1165 -0.1635
 6920TIP3    H142175   5.884   1.843   1.031  0.3487  0.2391  1.3537
 6920TIP3    H242176   5.872   1.963   0.940  0.4042 -1.0523 -0.4089
 6921TIP3   OH242177   4.535   2.425  14.552  0.1735  0.3913  0.3149
 6921TIP3    H142178   4.584   2.343  14.551 -1.8687 -0.9038 -0.0016
 6921TIP3    H242179   4.569   2.474  14.478  1.9457  0.1825  0.9421
 6922TIP3   OH242180   6.492   0.673   0.256 -0.2133 -0.0832  0.3282
 6922TIP3    H142181   6.549   0.739   0.296  2.3194 -1.1615 -1.2275
 6922TIP3    H242182   6.441   0.638   0.328  2.3258 -0.1909  2.2005
 6923TIP3   OH242183   1.776   1.966  13.210  0.2027  0.6581 -0.2966
 6923TIP3    H142184   1.700   1.910  13.197 -1.2422  2.8373 -2.0644
 6923TIP3    H242185   1.837   1.941  13.141 -0.4329  1.1952 -1.0737
 6924TIP3   OH242186   5.546   1.570  16.864  0.0755 -0.1009  0.6944
 6924TIP3    H142187   5.532   1.479  16.841  0.3637 -0.1223  0.6045
 6924TIP3    H242188   5.559   1.569  16.959  0.0154 -0.1446  0.7025
 6925TIP3   OH242189   6.549   1.440  12.708 -0.0331  0.2770  0.2416
 6925TIP3    H142190   6.616   1.374  12.689  1.1266  2.2864 -3.5444
 6925TIP3    H242191   6.472   1.410  12.661 -0.2038  0.5470  0.3491
 6926TIP3   OH242192   6.676   3.851   2.844 -0.0875  0.0037 -0.0660
 6926TIP3    H142193   6.664   3.882   2.754  0.5539  0.7450  0.0987
 6926TIP3    H242194   6.661   3.929   2.898  0.1865 -0.2897  0.4360
 6927TIP3   OH242195   4.104   3.094  13.364  0.8675  0.1182 -0.4832
 6927TIP3    H142196   4.024   3.050  13.335  1.7574 -2.2732  0.4355
 6927TIP3    H242197   4.174   3.050  13.316  1.8839  0.0304  1.0264
 6928TIP3   OH242198   6.254   5.781   2.228  0.4846  0.3210 -0.4688
 6928TIP3    H142199   6.245   5.715   2.160  2.5726  1.1616 -1.6360
 6928TIP3    H242200   6.338   5.762   2.270  0.0315  0.8557  0.7503
 6929TIP3   OH242201   2.435   0.997  16.774  0.7302  0.4237  0.5729
 6929TIP3    H142202   2.500   1.067  16.773  1.0319  0.1743  1.5360
 6929TIP3    H242203   2.475   0.927  16.826  0.2815 -0.3216 -0.0562
 6930TIP3   OH242204   2.567   0.814  15.438  0.2556 -0.5447  0.1066
 6930TIP3    H142205   2.509   0.880  15.476  0.5831  0.0635 -0.4379
 6930TIP3    H242206   2.638   0.865  15.398  1.2342 -1.2713  0.8643
 6931TIP3   OH242207   0.340   1.172  11.040 -0.1340  0.0966  0.0652
 6931TIP3    H142208   0.424   1.213  11.061 -0.1113  0.2461 -0.3199
 6931TIP3    H242209   0.361   1.079  11.029  0.5777  0.5594 -3.2086
 6932TIP3   OH242210   2.185   2.084   3.074  0.6213 -0.2879 -0.4830
 6932TIP3    H142211   2.179   2.142   3.150  0.7398  0.8210 -1.2993
 6932TIP3    H242212   2.106   2.103   3.024  1.8190  0.9814 -1.9905
 6933TIP3   OH242213   2.681   6.722  12.661  0.4923 -0.4653 -0.3433
 6933TIP3    H142214   2.605   6.677  12.696  0.1361 -0.3535 -0.9654
 6933TIP3    H242215   2.754   6.693  12.716 -0.0969 -0.0929  0.6535
 6934TIP3   OH242216   1.829   5.673   2.476  0.2477 -0.5656  0.6182
 6934TIP3    H142217   1.913   5.637   2.447 -0.3700 -0.5598 -1.2400
 6934TIP3    H242218   1.808   5.741   2.412 -1.1841 -0.5538  1.0682
 6935TIP3   OH242219   2.385   0.969   1.341  0.0095 -0.1216 -0.0974
 6935TIP3    H142220   2.444   1.009   1.404 -0.6864 -1.1779  1.2966
 6935TIP3    H242221   2.311   1.030   1.336 -1.0521 -1.1280  2.0204
 6936TIP3   OH242222   0.055   2.630   5.234  0.2047 -0.8696  0.1211
 6936TIP3    H142223   0.136   2.682   5.231 -0.5895  0.4127 -0.0154
 6936TIP3    H242224   0.029   2.631   5.326 -0.4975  0.1085 -0.0726
 6937TIP3   OH242225   1.429   1.190  12.991 -0.1645  0.3453  0.7430
 6937TIP3    H142226   1.438   1.098  12.966 -2.8240  0.0828  0.4864
 6937TIP3    H242227   1.376   1.187  13.071  0.6525  1.6341  1.3568
 6938TIP3   OH242228   1.359   4.720  11.700 -0.0201 -0.5676 -0.2433
 6938TIP3    H142229   1.325   4.679  11.780  0.7513  0.7552  0.8085
 6938TIP3    H242230   1.281   4.735  11.646 -0.5814 -1.2963  0.3406
 6939TIP3   OH242231   4.430   3.625  14.177  0.2807 -0.2171 -0.8451
 6939TIP3    H142232   4.390   3.539  14.164  1.0570 -0.2622 -3.8780
 6939TIP3    H242233   4.378   3.667  14.246 -0.6326 -2.7641  0.1192
 6940TIP3   OH242234   5.885   2.840   1.424  0.5751 -0.0040  0.4677
 6940TIP3    H142235   5.925   2.857   1.509  1.5942  0.1714 -0.0354
 6940TIP3    H242236   5.867   2.926   1.388 -0.0722 -0.0811  0.6053
 6941TIP3   OH242237   1.155   5.446  12.899  0.2269 -0.6015 -0.4506
 6941TIP3    H142238   1.229   5.386  12.889  1.1296  0.0277  1.7240
 6941TIP3    H242239   1.096   5.401  12.959  0.6804  0.3897  0.8076
 6942TIP3   OH242240   6.322   4.669  14.961 -0.2002 -0.0886  0.6012
 6942TIP3    H142241   6.370   4.747  14.934 -1.2689 -0.5778 -3.3216
 6942TIP3    H242242   6.230   4.692  14.950 -0.7422 -0.8663  2.8666
 6943TIP3   OH242243   1.986   4.343   5.151 -0.7841 -0.1484  0.4207
 6943TIP3    H142244   1.891   4.350   5.147 -0.8911 -1.3443  0.4188
 6943TIP3    H242245   2.017   4.432   5.167 -1.8679  0.3425 -0.1663
 6944TIP3   OH242246   3.109   0.647  15.037 -0.3904 -0.2499 -0.2618
 6944TIP3    H142247   3.040   0.694  15.085  0.4720 -0.4381  1.2209
 6944TIP3    H242248   3.085   0.555  15.045 -0.7782 -0.2272 -1.0780
 6945TIP3   OH242249   4.301   4.520   3.645 -0.3234 -0.5802  0.1639
 6945TIP3    H142250   4.347   4.448   3.687  1.5685  0.5833  0.2097
 6945TIP3    H242251   4.218   4.526   3.692  0.8793 -0.6127  2.4201
 6946TIP3   OH242252   4.955   0.932   2.247  0.0430  0.0884  0.1639
 6946TIP3    H142253   4.912   0.968   2.325  2.1775 -0.0168  1.4498
 6946TIP3    H242254   4.984   1.010   2.199  0.0702  0.1439  0.2682
 6947TIP3   OH242255   0.139   2.976   4.790 -0.4728 -0.5619  0.2162
 6947TIP3    H142256   0.066   2.921   4.760 -1.8851  0.1314  2.1627
 6947TIP3    H242257   0.217   2.925   4.772 -1.6391 -2.6279  0.7040
 6948TIP3   OH242258   2.673   0.917  14.787 -0.1369 -0.0287  0.0304
 6948TIP3    H142259   2.582   0.915  14.816 -0.1154  0.2037  0.1190
 6948TIP3    H242260   2.679   0.848  14.721  0.0045 -1.1029  1.1396
 6949TIP3   OH242261   2.833   1.587   2.407  0.0588 -0.0801 -0.1987
 6949TIP3    H142262   2.885   1.661   2.439  0.5614 -1.0495  1.2737
 6949TIP3    H242263   2.893   1.537   2.353 -0.4548  0.8844 -1.7346
 6950TIP3   OH242264   3.726   0.460  12.486 -0.6534 -0.0034  0.8583
 6950TIP3    H142265   3.818   0.434  12.482 -1.6135 -4.3340 -4.5607
 6950TIP3    H242266   3.713   0.516  12.410 -2.3088  2.3307  2.6902
 6951TIP3   OH242267   0.289   5.067  13.780 -0.2181 -0.3852 -0.2840
 6951TIP3    H142268   0.253   5.119  13.708 -0.5512 -2.2762 -1.5356
 6951TIP3    H242269   0.258   5.112  13.859 -1.8115  0.4128 -1.3029
 6952TIP3   OH242270   2.751   6.281   0.102  0.1650  0.1463  0.2573
 6952TIP3    H142271   2.747   6.302   0.009 -2.7756  1.0547  0.4835
 6952TIP3    H242272   2.800   6.198   0.106  0.2673  0.0279 -2.0850
 6953TIP3   OH242273   1.244   4.589   2.722 -0.1645 -0.0975  0.2348
 6953TIP3    H142274   1.253   4.501   2.759 -1.1592 -0.1449  0.3891
 6953TIP3    H242275   1.209   4.642   2.794 -0.2993  0.2446 -0.0780
 6954TIP3   OH242276   5.172   0.079  14.548 -0.5566 -0.7023  0.0298
 6954TIP3    H142277   5.130   0.161  14.522 -1.8605 -1.6202 -0.8742
 6954TIP3    H242278   5.106   0.035  14.602 -0.2899 -1.6090 -0.3644
 6955TIP3   OH242279   5.849   4.999   5.344 -0.0126 -0.4016 -0.7460
 6955TIP3    H142280   5.845   4.982   5.438  0.7218  0.5589 -0.5207
 6955TIP3    H242281   5.863   4.913   5.304 -2.1659 -1.0791 -0.1360
 6956TIP3   OH242282   6.441   5.817  12.140 -0.0034  0.3185  0.9150
 6956TIP3    H142283   6.406   5.904  12.158  1.3207  0.7544  1.4446
 6956TIP3    H242284   6.531   5.832  12.113  0.3997 -0.9181  1.4874
 6957TIP3   OH242285   4.427   1.892  14.088  0.6930  0.3485 -0.6139
 6957TIP3    H142286   4.352   1.944  14.116 -0.3711 -1.1790 -0.5694
 6957TIP3    H242287   4.417   1.883  13.994  3.0974  3.6015 -1.3784
 6958TIP3   OH242288   0.344   0.733   3.043 -0.1786 -0.8847  0.7159
 6958TIP3    H142289   0.393   0.694   2.970 -2.2377 -0.0121 -1.2771
 6958TIP3    H242290   0.401   0.801   3.078 -0.0323  0.4250 -1.8209
 6959TIP3   OH242291   1.263   0.129  15.765  0.6158  0.0127 -0.5905
 6959TIP3    H142292   1.330   0.187  15.802 -0.0368 -0.4888  1.5483
 6959TIP3    H242293   1.285   0.042  15.797 -1.0675 -0.1538  0.2583
 6960TIP3   OH242294   6.129   4.857  16.248 -0.4161  0.1353  0.6448
 6960TIP3    H142295   6.156   4.850  16.157 -1.0462 -0.7128  0.5127
 6960TIP3    H242296   6.068   4.785  16.261  0.2311 -0.2200  1.9453
 6961TIP3   OH242297   0.640   6.697   4.879 -0.1483  0.5939  0.1303
 6961TIP3    H142298   0.603   6.774   4.923 -0.0434  1.0100 -0.5040
 6961TIP3    H242299   0.650   6.632   4.949 -0.0825  1.2107  0.7044
 6962TIP3   OH242300   5.350   0.934   2.884  0.4016 -0.6035 -0.2510
 6962TIP3    H142301   5.443   0.913   2.886  0.7566  0.7933  2.8951
 6962TIP3    H242302   5.345   1.014   2.831  0.7547 -1.3982 -1.5274
 6963TIP3   OH242303   5.188   5.068  16.042 -0.0296  0.3044 -0.4280
 6963TIP3    H142304   5.107   5.067  15.993  0.9033 -0.1725 -2.0145
 6963TIP3    H242305   5.243   5.132  15.997  0.7960 -0.0310  0.0672
 6964TIP3   OH242306   2.513   5.022   2.289  0.2232 -0.3070 -0.4627
 6964TIP3    H142307   2.488   5.099   2.340  1.7945 -0.5520  0.7676
 6964TIP3    H242308   2.474   4.948   2.335 -0.1323 -0.3610 -0.8475
 6965TIP3   OH242309   3.167   4.582   1.337  0.4324 -0.4247  0.0519
 6965TIP3    H142310   3.097   4.542   1.286  0.7148  0.1072 -0.7557
 6965TIP3    H242311   3.245   4.531   1.315  0.8758  0.7948 -1.2891
 6966TIP3   OH242312   6.601   2.955  13.674 -0.2618  0.2188 -0.5243
 6966TIP3    H142313   6.623   2.893  13.743 -1.0720  0.5106 -0.0017
 6966TIP3    H242314   6.610   3.041  13.714  0.8016  0.4719 -1.2309
 6967TIP3   OH242315   0.449   5.335   5.166 -0.7465 -0.4527 -0.0109
 6967TIP3    H142316   0.406   5.322   5.250 -0.4807 -1.3851 -0.0095
 6967TIP3    H242317   0.385   5.304   5.102 -0.3161 -1.3175 -0.0413
 6968TIP3   OH242318   5.021   2.150   3.079 -0.6316 -0.2727  0.1093
 6968TIP3    H142319   5.008   2.162   3.173 -2.4487 -0.1365 -0.1278
 6968TIP3    H242320   5.104   2.102   3.073  0.2083  0.8693  1.6922
 6969TIP3   OH242321   5.841   5.222   0.210  0.4431 -0.6930  0.3955
 6969TIP3    H142322   5.781   5.282   0.254  0.5949  0.3521 -0.7450
 6969TIP3    H242323   5.796   5.138   0.211 -0.5059 -0.2005  0.6114
 6970TIP3   OH242324   2.329   1.749   3.322 -0.3102  0.6874  0.4860
 6970TIP3    H142325   2.268   1.768   3.251  0.3899  1.1896  0.0066
 6970TIP3    H242326   2.304   1.809   3.392  0.1605  1.4786 -0.0190
 6971TIP3   OH242327   0.175   5.544  12.249 -0.2759  0.1216 -0.0794
 6971TIP3    H142328   0.162   5.547  12.344  0.4129  1.6754 -0.0065
 6971TIP3    H242329   0.155   5.453  12.225  2.8961 -1.3444  2.0553
 6972TIP3   OH242330   4.153   6.197   4.552 -0.3969  0.1135  0.6354
 6972TIP3    H142331   4.099   6.119   4.540  0.8603 -0.6810 -0.2196
 6972TIP3    H242332   4.097   6.270   4.525 -0.3822 -0.8685 -2.4990
 6973TIP3   OH242333   3.356   1.215   1.149  0.4357  0.1663 -0.2905
 6973TIP3    H142334   3.335   1.127   1.180 -0.6616  0.0813 -1.1916
 6973TIP3    H242335   3.450   1.214   1.133  0.3582 -0.9905 -0.7353
 6974TIP3   OH242336   0.732   1.235   4.692  0.4737 -0.3052  0.2976
 6974TIP3    H142337   0.754   1.222   4.600 -1.7753 -4.1872  0.0721
 6974TIP3    H242338   0.772   1.161   4.738  0.7133  0.9891  2.3458
 6975TIP3   OH242339   6.209   4.665   1.888 -0.2072 -0.3842  0.2808
 6975TIP3    H142340   6.295   4.622   1.887  0.0074  0.0413 -0.3776
 6975TIP3    H242341   6.154   4.607   1.941  0.3191 -0.9857  0.1884
 6976TIP3   OH242342   2.756   0.981  13.964 -0.2452  0.0370  0.8618
 6976TIP3    H142343   2.834   1.036  13.958  0.5024 -1.0646  0.0793
 6976TIP3    H242344   2.684   1.039  13.940  0.6535  0.4168 -1.1780
 6977TIP3   OH242345   2.214   2.954   5.641 -0.6152 -0.0723  0.0304
 6977TIP3    H142346   2.259   3.039   5.648 -0.8457  0.0035  0.7271
 6977TIP3    H242347   2.122   2.977   5.627 -0.5892 -0.2153 -0.3726
 6978TIP3   OH242348   5.913   2.034   0.183  0.3723  0.5946  0.2403
 6978TIP3    H142349   5.829   2.058   0.221  0.4477 -0.4325  1.0849
 6978TIP3    H242350   5.896   2.028   0.089 -0.6064 -0.0352  0.4477
 6979TIP3   OH242351   1.432   6.287   5.425 -0.3492 -0.1839  0.5318
 6979TIP3    H142352   1.425   6.351   5.354 -0.5320  0.6264  1.2572
 6979TIP3    H242353   1.400   6.334   5.502  0.4614 -0.8252  1.2777
 6980TIP3   OH242354   1.391   2.684   6.693  0.0808 -0.3220  0.7005
 6980TIP3    H142355   1.452   2.746   6.733 -0.6413 -0.6508  2.3686
 6980TIP3    H242356   1.309   2.697   6.740 -0.4571 -1.6095  0.1703
 6981TIP3   OH242357   5.589   5.065  14.740  0.1625  0.3390 -0.5483
 6981TIP3    H142358   5.561   4.979  14.711  2.1631 -0.6604  0.2709
 6981TIP3    H242359   5.545   5.079  14.824  0.1191 -0.0507 -0.5079
 6982TIP3   OH242360   1.821   5.637  15.251 -0.0850 -0.3536 -0.1169
 6982TIP3    H142361   1.730   5.612  15.232 -0.6643  1.4802 -0.0076
 6982TIP3    H242362   1.848   5.685  15.173  0.8412 -0.9705 -0.1818
 6983TIP3   OH242363   0.722   5.092  16.340  0.5941  0.5334  0.4384
 6983TIP3    H142364   0.702   5.129  16.426  0.8812  1.8038 -0.0328
 6983TIP3    H242365   0.645   5.040  16.318  0.3027  0.6082  1.2322
 6984TIP3   OH242366   4.344   0.041   1.642 -0.2214  0.1586  0.3393
 6984TIP3    H142367   4.280   0.040   1.571 -0.0172 -0.0473  0.1585
 6984TIP3    H242368   4.291   0.056   1.721 -0.4624  0.2600  0.1631
 6985TIP3   OH242369   1.766   6.208  12.632  0.1762 -0.0558 -0.0521
 6985TIP3    H142370   1.742   6.289  12.586  1.2286  0.1467 -0.2662
 6985TIP3    H242371   1.861   6.204  12.625  0.1858 -0.9977  0.5024
 6986TIP3   OH242372   3.787   6.709   5.965 -0.0950  0.4632  0.2590
 6986TIP3    H142373   3.724   6.711   6.037 -0.1385  0.3981  0.2234
 6986TIP3    H242374   3.869   6.684   6.006 -0.5438 -1.6280 -0.0132
 6987TIP3   OH242375   4.949   4.574   1.698  0.6471  0.5157 -0.2074
 6987TIP3    H142376   4.991   4.625   1.629  0.2365  0.6162 -0.3866
 6987TIP3    H242377   5.010   4.503   1.716  1.2306  1.0804  0.0616
 6988TIP3   OH242378   0.662   4.250   3.577  0.2540  0.0281  0.5692
 6988TIP3    H142379   0.581   4.229   3.530 -1.0015  0.3769  2.4482
 6988TIP3    H242380   0.678   4.342   3.558  1.3090 -0.4810 -1.2901
 6989TIP3   OH242381   3.821   6.282  14.469  0.8833  0.1267 -0.3820
 6989TIP3    H142382   3.854   6.258  14.555  2.4181 -0.2184 -1.0463
 6989TIP3    H242383   3.741   6.332  14.488 -0.3368 -2.1796  1.1630
 6990TIP3   OH242384   0.298   3.856   5.330  0.0974 -0.1694  0.2860
 6990TIP3    H142385   0.345   3.902   5.260  1.0433  0.8572  1.5581
 6990TIP3    H242386   0.326   3.765   5.321  2.6437  0.4447  1.1687
 6991TIP3   OH242387   1.313   1.673  15.076 -0.0036  0.4859  0.0579
 6991TIP3    H142388   1.251   1.704  15.009  0.3125 -0.8348 -0.8871
 6991TIP3    H242389   1.399   1.685  15.035  0.1112 -2.1185 -0.6143
 6992TIP3   OH242390   4.779   0.514  13.326 -0.0959  0.0913  0.5592
 6992TIP3    H142391   4.847   0.511  13.393 -0.5608  1.7268  1.1386
 6992TIP3    H242392   4.797   0.438  13.271  1.4743 -0.1829  1.3894
 6993TIP3   OH242393   3.606   4.154  12.308 -0.6765 -0.3532 -0.1557
 6993TIP3    H142394   3.567   4.067  12.305 -0.8389 -0.3681  1.3528
 6993TIP3    H242395   3.552   4.202  12.371 -0.1571  0.6199 -0.4276
 6994TIP3   OH242396   4.432   4.610   3.342  0.2203 -0.2054 -0.2496
 6994TIP3    H142397   4.346   4.615   3.299  0.4909  0.5549 -0.7244
 6994TIP3    H242398   4.412   4.592   3.434 -0.3812 -1.5298 -0.6153
 6995TIP3   OH242399   3.838   4.264   5.522 -0.0099  0.1372 -0.2793
 6995TIP3    H142400   3.820   4.287   5.613  0.4168  2.8020 -0.7860
 6995TIP3    H242401   3.934   4.265   5.516 -0.0124 -0.8169 -0.5926
 6996TIP3   OH242402   4.859   4.893   2.859  0.1877  0.1284  0.4240
 6996TIP3    H142403   4.896   4.902   2.771  1.3128 -1.2381  0.7467
 6996TIP3    H242404   4.931   4.914   2.918  0.4221 -2.1712  1.0461
 6997TIP3   OH242405   4.308   6.329  12.821 -0.4728 -0.8754 -0.1619
 6997TIP3    H142406   4.269   6.299  12.739  0.8735  0.4197 -1.3363
 6997TIP3    H242407   4.394   6.286  12.824 -0.6933 -1.2734  0.8207
 6998TIP3   OH242408   2.494   3.490   0.566 -0.1903  0.0756 -0.0593
 6998TIP3    H142409   2.449   3.566   0.529 -0.4633  0.1071  0.3266
 6998TIP3    H242410   2.536   3.448   0.491 -0.2918  0.4350 -0.3216
 6999TIP3   OH242411   3.678   3.806  16.223  0.1634  0.5626 -0.0180
 6999TIP3    H142412   3.719   3.811  16.309  0.1578 -0.2611  0.0382
 6999TIP3    H242413   3.750   3.819  16.162  0.2490  0.6670  0.1041
 7000TIP3   OH242414   2.699   0.685  15.198 -0.1673  0.3298 -0.8929
 7000TIP3    H142415   2.734   0.602  15.165 -0.2073 -0.2944  0.5819
 7000TIP3    H242416   2.765   0.716  15.261 -1.0828  0.4051  0.0530
 7001TIP3   OH242417   5.022   1.789   2.217 -0.3451  0.4969  0.1545
 7001TIP3    H142418   5.003   1.698   2.192  0.8972  0.2270  0.1418
 7001TIP3    H242419   4.981   1.799   2.303  2.7105 -1.3341  2.0229
 7002TIP3   OH242420   2.346   5.799  11.677  0.0158  0.1799 -0.0375
 7002TIP3    H142421   2.313   5.888  11.676 -1.6318 -0.3935 -0.5512
 7002TIP3    H242422   2.267   5.744  11.682  0.8550 -1.2916 -1.7720
 7003TIP3   OH242423   0.743   2.816   0.522 -0.1349  0.4820 -0.0875
 7003TIP3    H142424   0.726   2.827   0.615 -3.8884 -0.0236 -0.5331
 7003TIP3    H242425   0.782   2.729   0.514  0.0686  0.4696  0.9971
 7004TIP3   OH242426   0.459   2.114  14.817 -0.0479 -0.2123  0.3174
 7004TIP3    H142427   0.395   2.109  14.888 -0.3956  0.5908  0.0696
 7004TIP3    H242428   0.469   2.024  14.787 -1.1382 -0.3371  0.2955
 7005TIP3   OH242429   4.900   0.069   6.201 -0.3940  0.1109  0.5377
 7005TIP3    H142430   4.990   0.085   6.173 -0.0222 -0.8039  1.1494
 7005TIP3    H242431   4.847   0.103   6.129  0.3770  1.8266  0.7357
 7006TIP3   OH242432   3.890   2.145  14.174 -0.3020  0.2213 -1.0238
 7006TIP3    H142433   3.919   2.108  14.258 -2.1994 -0.8171 -0.7667
 7006TIP3    H242434   3.820   2.206  14.198 -1.4719 -0.7377 -1.8788
 7007TIP3   OH242435   3.960   1.966   1.822 -0.1611  0.0802 -0.0338
 7007TIP3    H142436   3.920   2.045   1.859 -0.6628 -0.3635  0.3933
 7007TIP3    H242437   3.887   1.916   1.787  0.3798  0.8424 -2.3949
 7008TIP3   OH242438   2.024   2.324   6.044 -0.1045  0.2943 -0.2779
 7008TIP3    H142439   1.987   2.379   6.112 -0.6174  0.0025 -0.3164
 7008TIP3    H242440   2.082   2.263   6.090  2.1748  2.2024 -0.4264
 7009TIP3   OH242441   6.082   3.384  15.532 -0.1715 -0.2392 -0.0800
 7009TIP3    H142442   6.168   3.346  15.550 -0.1634 -0.6797 -0.9794
 7009TIP3    H242443   6.101   3.473  15.502 -0.0050 -0.3906 -0.4387
 7010TIP3   OH242444   3.568   6.675   0.142 -0.0129 -0.3872  0.5809
 7010TIP3    H142445   3.508   6.668   0.068  0.4176  0.8136  0.1055
 7010TIP3    H242446   3.592   6.767   0.146  3.0571 -1.0481 -0.2299
 7011TIP3   OH242447   2.156   4.458   2.639 -0.2895  0.0331  0.3881
 7011TIP3    H142448   2.242   4.448   2.680 -0.1340  1.3301  0.4139
 7011TIP3    H242449   2.172   4.443   2.546 -0.6270 -2.8341  0.6917
 7012TIP3   OH242450   2.932   1.163   6.684 -0.9463  0.4804  0.1969
 7012TIP3    H142451   2.974   1.239   6.644 -0.5165 -0.2109 -0.7104
 7012TIP3    H242452   2.968   1.088   6.636 -1.1488 -0.3136  1.2588
 7013TIP3   OH242453   3.270   2.850   2.421  0.6074  0.1051  0.2264
 7013TIP3    H142454   3.315   2.930   2.450 -3.0646  2.4553  0.1799
 7013TIP3    H242455   3.314   2.779   2.468  2.6089  2.4015  2.1068
 7014TIP3   OH242456   0.962   6.092  14.355  0.4839  0.4413  0.0391
 7014TIP3    H142457   0.990   6.002  14.375  2.5408  0.7044 -1.2790
 7014TIP3    H242458   0.909   6.118  14.430 -2.6972 -2.8187 -0.7854
 7015TIP3   OH242459   3.815   6.508  15.133 -0.0269 -0.3371 -0.0352
 7015TIP3    H142460   3.858   6.527  15.050  1.4694  1.2091  1.0218
 7015TIP3    H242461   3.744   6.572  15.138  0.2622 -0.0324  0.1530
 7016TIP3   OH242462   5.004   2.261   1.481  0.1267  0.2718  0.8158
 7016TIP3    H142463   4.961   2.176   1.492  0.9681 -0.2085  0.5067
 7016TIP3    H242464   5.096   2.244   1.501  0.0241  1.5303  2.6031
 7017TIP3   OH242465   6.029   2.362   2.889 -0.0980 -0.2377 -0.9617
 7017TIP3    H142466   6.103   2.422   2.883  0.0342 -0.3229 -0.2434
 7017TIP3    H242467   5.959   2.414   2.928 -0.9792  0.3464 -3.1979
 7018TIP3   OH242468   4.301   1.757   1.695 -0.1646  0.2243  0.2329
 7018TIP3    H142469   4.243   1.680   1.691 -0.7524  0.6632  0.1355
 7018TIP3    H242470   4.276   1.810   1.619  1.7209 -0.5024 -0.9716
 7019TIP3   OH242471   0.886   2.152   2.557 -0.5428 -0.1042 -0.3439
 7019TIP3    H142472   0.951   2.083   2.541 -1.2522 -1.8551  3.4028
 7019TIP3    H242473   0.822   2.142   2.486  0.9027 -1.2877 -1.5443
 7020TIP3   OH242474   1.031   1.325  13.321 -0.1087  0.0879 -0.3004
 7020TIP3    H142475   1.009   1.284  13.237 -0.6041  3.2674 -1.8864
 7020TIP3    H242476   0.948   1.332  13.367 -0.1109 -0.1751 -0.2639
 7021TIP3   OH242477   5.807   4.462  13.486  0.3784  0.0142  0.4035
 7021TIP3    H142478   5.826   4.415  13.567  2.3625  1.8611  1.1033
 7021TIP3    H242479   5.762   4.542  13.515 -1.1115 -0.4281 -0.5704
 7022TIP3   OH242480   1.793   5.029  16.595  0.2777  0.5144 -0.4621
 7022TIP3    H142481   1.702   5.049  16.573 -0.3581 -1.5779  0.0887
 7022TIP3    H242482   1.797   5.038  16.690  0.4971  0.0386 -0.4241
 7023TIP3   OH242483   0.737   0.669  12.576 -0.2046  0.2225  0.5941
 7023TIP3    H142484   0.799   0.641  12.509 -1.6179  1.5129 -1.3690
 7023TIP3    H242485   0.788   0.724  12.635  0.6505  0.8864 -0.7168
 7024TIP3   OH242486   5.568   2.052   3.089 -0.0994  0.1206  0.7693
 7024TIP3    H142487   5.625   2.016   3.157  0.9895 -0.6798 -0.5312
 7024TIP3    H242488   5.567   1.986   3.021 -2.8703 -0.0420  0.8551
 7025TIP3   OH242489   5.317   4.329   3.167 -0.6509  0.4353  0.3383
 7025TIP3    H142490   5.283   4.372   3.246 -0.4889  2.5935 -0.6938
 7025TIP3    H242491   5.326   4.400   3.104  1.0436 -0.9245 -1.0236
 7026TIP3   OH242492   2.324   1.527   2.436 -0.0330  0.5544  0.4158
 7026TIP3    H142493   2.296   1.465   2.369  1.1990  1.5688 -1.1115
 7026TIP3    H242494   2.265   1.511   2.510 -0.4877 -1.6035 -0.3514
 7027TIP3   OH242495   5.295   4.778   0.197 -0.2809  0.1502  0.1442
 7027TIP3    H142496   5.342   4.708   0.241  0.3563  0.7828  0.5051
 7027TIP3    H242497   5.215   4.789   0.248 -0.8063 -0.8806 -0.4255
 7028TIP3   OH242498   5.684   2.171  11.671  0.5133 -0.7841  0.0202
 7028TIP3    H142499   5.633   2.219  11.736 -1.3170 -1.9744 -0.4641
 7028TIP3    H242500   5.752   2.232  11.643 -0.3529  0.6886  1.0411
 7029TIP3   OH242501   3.262   3.076   5.564 -0.8265  0.1997  0.5717
 7029TIP3    H142502   3.237   3.079   5.472  0.4456  1.7827  0.2266
 7029TIP3    H242503   3.229   3.158   5.600 -1.6810 -0.5870  1.6556
 7030TIP3   OH242504   6.277   3.061  16.156 -0.1282 -0.4306  0.0565
 7030TIP3    H142505   6.361   3.087  16.196  0.0549 -0.1711 -0.4850
 7030TIP3    H242506   6.264   2.971  16.185  0.2964 -0.4449  0.2186
 7031TIP3   OH242507   4.890   6.598   5.510 -0.2640  0.1412 -0.1506
 7031TIP3    H142508   4.917   6.573   5.422  0.0406  0.2482 -0.0869
 7031TIP3    H242509   4.815   6.656   5.496 -1.7903 -1.7725 -0.2679
 7032TIP3   OH242510   6.753   3.957  14.285 -1.0649  0.1416 -0.3562
 7032TIP3    H142511   6.712   3.931  14.202 -0.2496  0.4700 -0.8642
 7032TIP3    H242512   6.784   3.875  14.323 -1.4892 -0.0160 -0.3382
 7033TIP3   OH242513   6.684   2.126  16.705 -0.1597  0.5633  0.0648
 7033TIP3    H142514   6.767   2.084  16.687  0.1567  0.2672  2.0464
 7033TIP3    H242515   6.690   2.156  16.796 -1.9783  1.0875  0.0712
 7034TIP3   OH242516   5.184   5.735   1.411  0.8485  0.0328  0.5258
 7034TIP3    H142517   5.212   5.747   1.501 -2.1224  0.5812  1.4795
 7034TIP3    H242518   5.137   5.652   1.411  0.6453  0.1373 -0.4960
 7035TIP3   OH242519   6.147   1.896   3.595  0.1785 -0.9296  0.3476
 7035TIP3    H142520   6.064   1.907   3.641  0.4667 -0.0789  0.6744
 7035TIP3    H242521   6.199   1.840   3.652  0.3793 -0.2249  0.8637
 7036TIP3   OH242522   5.991   2.438  15.075 -0.3193 -0.3111  0.9683
 7036TIP3    H142523   5.974   2.532  15.070  1.0994 -0.0049  1.4195
 7036TIP3    H242524   5.904   2.398  15.087 -1.0634  0.8311 -0.2909
 7037TIP3   OH242525   2.569   2.862  16.399 -0.0884 -0.1048  0.2307
 7037TIP3    H142526   2.474   2.859  16.391  0.0123 -1.5309 -0.9228
 7037TIP3    H242527   2.589   2.806  16.474 -0.2332  1.9416  1.8850
 7038TIP3   OH242528   1.866   1.334  14.925  0.5621 -0.0382  0.0660
 7038TIP3    H142529   1.893   1.382  14.846 -1.3330 -0.6768 -1.0321
 7038TIP3    H242530   1.834   1.402  14.984 -0.6251  0.2339 -0.8521
 7039TIP3   OH242531   0.803   6.358   3.411 -0.2585 -0.4935 -0.1944
 7039TIP3    H142532   0.758   6.307   3.344  0.5938 -1.4218 -0.0820
 7039TIP3    H242533   0.768   6.326   3.494 -0.1408 -0.4909 -0.1430
 7040TIP3   OH242534   2.597   4.881   0.879  0.1597  0.6709 -0.0433
 7040TIP3    H142535   2.645   4.846   0.804 -0.5695  1.5766 -0.9578
 7040TIP3    H242536   2.647   4.958   0.906 -0.0815  0.8832 -0.1965
 7041TIP3   OH242537   2.852   0.123   0.283  0.1479 -0.2793 -0.5044
 7041TIP3    H142538   2.775   0.066   0.282 -0.0251 -0.0880  0.5799
 7041TIP3    H242539   2.924   0.064   0.304 -0.0909 -0.0513  1.0222
 7042TIP3   OH242540   3.439   4.952  13.440  0.0925  0.2994  0.5743
 7042TIP3    H142541   3.398   4.896  13.374 -1.0031  1.1584  0.4931
 7042TIP3    H242542   3.529   4.919  13.447  0.0140 -0.2741 -0.7998
 7043TIP3   OH242543   3.854   1.384   1.579  0.1718  0.4589  0.2023
 7043TIP3    H142544   3.851   1.392   1.674  1.7993  0.0634  0.3251
 7043TIP3    H242545   3.762   1.384   1.552 -0.3571 -0.2480  1.8409
 7044TIP3   OH242546   4.314   6.673  16.499 -0.2982  0.7294  0.8194
 7044TIP3    H142547   4.293   6.765  16.515 -1.6835  0.4068  0.9926
 7044TIP3    H242548   4.233   6.626  16.520  0.4008 -0.5340  0.7696
 7045TIP3   OH242549   6.729   4.604   1.190  0.0458  0.5013 -0.0540
 7045TIP3    H142550   6.675   4.672   1.231 -1.1723  0.6180 -1.7536
 7045TIP3    H242551   6.807   4.651   1.161 -1.1826  1.4270 -2.0183
 7046TIP3   OH242552   3.680   3.158  15.285  0.1362 -0.5872 -0.0563
 7046TIP3    H142553   3.712   3.215  15.355 -1.6153 -0.4994  0.7205
 7046TIP3    H242554   3.704   3.204  15.204  1.5307 -0.3310  0.4685
 7047TIP3   OH242555   4.817   0.302  15.353  0.3329 -0.6094  0.2718
 7047TIP3    H142556   4.730   0.341  15.359  0.7466  0.4792 -0.4975
 7047TIP3    H242557   4.825   0.276  15.261  1.3380  0.5795 -0.0037
 7048TIP3   OH242558   2.468   3.033   3.843  0.1547  0.2426 -0.4102
 7048TIP3    H142559   2.509   3.040   3.930  0.0912  0.8342 -0.4273
 7048TIP3    H242560   2.506   2.953   3.806 -0.5114 -0.5398  0.5254
 7049TIP3   OH242561   2.809   4.078  15.678  0.4095  0.2158  0.2599
 7049TIP3    H142562   2.793   4.037  15.763  0.8363 -0.6287 -0.0536
 7049TIP3    H242563   2.733   4.054  15.625  0.8244 -0.5001 -0.0325
 7050TIP3   OH242564   3.644   2.634   3.576 -0.4244  0.2988  0.1892
 7050TIP3    H142565   3.724   2.686   3.570  0.3753 -0.8135  0.9021
 7050TIP3    H242566   3.632   2.618   3.669  0.7785 -2.8650 -0.0801
 7051TIP3   OH242567   6.497   3.043  11.576  0.0702  0.2936 -0.1637
 7051TIP3    H142568   6.483   2.979  11.645 -0.9708  0.9118  0.2249
 7051TIP3    H242569   6.409   3.077  11.556  0.5654  1.4461 -0.5012
 7052TIP3   OH242570   5.094   0.646   6.084 -0.3547  0.2937 -0.1049
 7052TIP3    H142571   5.166   0.624   6.025 -0.0931  0.2504  0.2284
 7052TIP3    H242572   5.127   0.720   6.135 -1.2009  1.4657 -1.1741
 7053TIP3   OH242573   6.367   3.883  14.703  0.7010  0.4374  0.0100
 7053TIP3    H142574   6.316   3.935  14.641 -0.3317 -0.3639  0.1562
 7053TIP3    H242575   6.443   3.853  14.654 -0.0310 -0.0716 -0.8503
 7054TIP3   OH242576   0.994   5.645  17.180 -0.2628 -0.1396 -0.5393
 7054TIP3    H142577   1.017   5.702  17.253  0.4628 -0.3205 -0.6183
 7054TIP3    H242578   1.064   5.657  17.117 -1.4954  0.9495 -1.7654
 7055TIP3   OH242579   3.016   3.536   5.784 -0.0599 -0.3264  0.1270
 7055TIP3    H142580   3.040   3.509   5.873  1.2443  1.1991  0.2843
 7055TIP3    H242581   2.933   3.583   5.796  0.0161 -0.2842  0.5258
 7056TIP3   OH242582   4.275   5.098   3.538  0.3989 -0.0009  0.2862
 7056TIP3    H142583   4.324   5.164   3.489  0.3802  0.9759  1.5374
 7056TIP3    H242584   4.337   5.065   3.602 -0.4236  1.0323  1.6906
 7057TIP3   OH242585   1.395   0.994  11.126 -0.1205 -0.1344 -1.2017
 7057TIP3    H142586   1.424   1.053  11.195 -0.8042  0.5483 -1.4869
 7057TIP3    H242587   1.457   1.008  11.054  0.8252 -1.1288 -0.6096
 7058TIP3   OH242588   6.021   0.407  16.614 -0.0853 -0.6206  0.1092
 7058TIP3    H142589   6.077   0.333  16.593 -0.2728 -0.5773 -0.5422
 7058TIP3    H242590   6.011   0.454  16.532 -0.1193  0.0271  0.4749
 7059TIP3   OH242591   1.525   1.567   4.027  0.3682  0.4664 -0.1449
 7059TIP3    H142592   1.521   1.645   3.972 -1.4842  0.5810  0.0809
 7059TIP3    H242593   1.528   1.494   3.965 -0.2754  0.6451 -0.3940
 7060TIP3   OH242594   2.337   6.588   3.113  0.3137  0.7084 -0.1591
 7060TIP3    H142595   2.315   6.495   3.112 -1.3105  1.0077  1.5581
 7060TIP3    H242596   2.416   6.595   3.059  0.0949 -1.5419 -0.8761
 7061TIP3   OH242597   6.577   1.851   2.801  0.4757 -0.2316  0.2649
 7061TIP3    H142598   6.636   1.888   2.867  0.5684 -1.2645  0.7865
 7061TIP3    H242599   6.526   1.786   2.849  0.6347 -1.1020 -0.7197
 7062TIP3   OH242600   6.295   5.332   3.911 -0.1859  0.2139 -0.2895
 7062TIP3    H142601   6.295   5.384   3.992  0.8139  3.1546 -1.9921
 7062TIP3    H242602   6.326   5.246   3.938  1.4619  1.4710  2.2712
 7063TIP3   OH242603   6.166   5.656  12.768 -0.4302 -0.3440 -0.0471
 7063TIP3    H142604   6.089   5.690  12.723  0.6018 -0.2639 -1.8645
 7063TIP3    H242605   6.198   5.586  12.711  1.4483  0.3494  0.0857
 7064TIP3   OH242606   4.268   3.817   2.049  0.2974 -0.3492 -0.1723
 7064TIP3    H142607   4.182   3.856   2.064  1.1158  1.3434  0.3612
 7064TIP3    H242608   4.289   3.838   1.958  0.4566 -0.1020 -0.0801
 7065TIP3   OH242609   6.493   4.639  13.972  0.3104  0.6660  0.5248
 7065TIP3    H142610   6.475   4.733  13.962  0.0255  0.7392  1.5288
 7065TIP3    H242611   6.466   4.620  14.062 -0.7777 -0.6476 -0.0401
 7066TIP3   OH242612   4.026   1.714  13.391  0.0522 -0.1420 -0.3156
 7066TIP3    H142613   4.090   1.757  13.334  0.3852  2.4646  1.8522
 7066TIP3    H242614   4.062   1.722  13.479 -2.7731  0.5703  0.8989
 7067TIP3   OH242615   2.662   2.855   5.240 -0.5986 -0.3956  0.2246
 7067TIP3    H142616   2.754   2.856   5.214 -0.5098 -0.8977  0.5027
 7067TIP3    H242617   2.665   2.851   5.336 -0.8882 -1.9795  0.1925
 7068TIP3   OH242618   3.222   0.974  15.684 -0.1142 -0.0624 -0.0328
 7068TIP3    H142619   3.255   1.059  15.655  0.0385 -0.3060 -0.5873
 7068TIP3    H242620   3.127   0.984  15.686 -0.0767  0.2554  0.3443
 7069TIP3   OH242621   3.175   1.574  15.853 -0.3266  0.3270 -0.0842
 7069TIP3    H142622   3.203   1.511  15.918 -1.0720  0.0082 -0.0710
 7069TIP3    H242623   3.213   1.543  15.771 -0.5450 -0.0395 -0.0460
 7070TIP3   OH242624   5.789   0.957  10.951  0.0921 -0.8154 -0.3341
 7070TIP3    H142625   5.728   0.933  10.881  0.7629  1.6148 -1.9165
 7070TIP3    H242626   5.862   1.001  10.905  1.0915 -0.0834  1.8039
 7071TIP3   OH242627   5.282   0.882   3.665  0.2327  0.6304  0.4883
 7071TIP3    H142628   5.222   0.808   3.671 -0.5777  1.2561  0.2909
 7071TIP3    H242629   5.346   0.867   3.735 -0.2870  0.0757  0.8512
 7072TIP3   OH242630   0.279   5.298  16.805 -0.1977  0.7404 -0.4800
 7072TIP3    H142631   0.200   5.344  16.834 -1.9333 -1.1933 -1.7562
 7072TIP3    H242632   0.257   5.205  16.816  1.6921  0.1358 -1.4208
 7073TIP3   OH242633   2.908   5.255   3.356 -0.3137 -0.0666  0.2610
 7073TIP3    H142634   2.834   5.203   3.388  0.2551  0.0897  1.9166
 7073TIP3    H242635   2.949   5.289   3.435  1.3205  0.1466 -0.6429
 7074TIP3   OH242636   0.794   4.454   5.546  0.0796 -0.9987  0.7106
 7074TIP3    H142637   0.866   4.494   5.594 -0.0876  0.3040 -0.0679
 7074TIP3    H242638   0.827   4.444   5.457 -0.2253 -1.6906  0.6686
 7075TIP3   OH242639   5.836   0.384   2.672  0.1680  0.0515 -0.7627
 7075TIP3    H142640   5.871   0.296   2.682  0.0509  0.0305 -0.5292
 7075TIP3    H242641   5.912   0.438   2.651  0.1429 -0.2140 -1.5777
 7076TIP3   OH242642   1.298   6.448  13.395  0.1366  0.2994  0.3743
 7076TIP3    H142643   1.276   6.539  13.377  0.1934 -0.1020 -2.0731
 7076TIP3    H242644   1.223   6.414  13.443 -2.2328  0.4417 -2.8497
 7077TIP3   OH242645   3.915   6.139  15.840  0.5865  0.8137 -0.0261
 7077TIP3    H142646   3.940   6.062  15.890 -1.7772  0.0207  0.0376
 7077TIP3    H242647   3.820   6.144  15.849 -0.2540 -0.0912 -5.3001
 7078TIP3   OH242648   1.892   5.853   2.095 -0.3172  0.0152 -0.0164
 7078TIP3    H142649   1.836   5.893   2.028  1.2654 -1.2240 -2.2248
 7078TIP3    H242650   1.844   5.865   2.177 -1.9225  2.4569 -1.1965
 7079TIP3   OH242651   4.901   6.221  16.043 -0.3640 -0.6363 -0.2119
 7079TIP3    H142652   4.940   6.299  16.004 -1.6684 -0.0621 -0.4019
 7079TIP3    H242653   4.886   6.244  16.134 -2.3357 -0.0086 -0.6511
 7080TIP3   OH242654   4.403   6.364  13.883 -0.0928 -0.3042 -0.3018
 7080TIP3    H142655   4.425   6.448  13.923  0.1977 -1.3838  1.9979
 7080TIP3    H242656   4.351   6.320  13.950 -2.9264 -0.7892 -2.6494
 7081TIP3   OH242657   3.585   4.449   4.530 -0.2280  0.7313  0.2054
 7081TIP3    H142658   3.657   4.467   4.469  0.9761 -2.5695  0.4673
 7081TIP3    H242659   3.628   4.436   4.615 -1.3899  0.7174  0.8112
 7082TIP3   OH242660   1.107   5.757  11.417 -0.0676  0.6612 -0.4697
 7082TIP3    H142661   1.160   5.762  11.497  0.8891  0.2247 -1.0664
 7082TIP3    H242662   1.029   5.809  11.437  0.6273  1.4058  0.3839
 7083TIP3   OH242663   4.688   2.718  13.216  0.2179  0.1799 -0.1488
 7083TIP3    H142664   4.594   2.710  13.235 -0.0922 -0.1825 -1.6971
 7083TIP3    H242665   4.726   2.750  13.298 -0.9761 -1.3960  1.0974
 7084TIP3   OH242666   2.873   2.263   5.050 -0.1152  0.5719  0.1280
 7084TIP3    H142667   2.856   2.327   4.981  0.1574  0.8349  0.3050
 7084TIP3    H242668   2.869   2.178   5.006 -0.2996  0.7192 -0.1402
 7085TIP3   OH242669   5.589   2.082   3.823  0.8550 -0.1080  0.0916
 7085TIP3    H142670   5.535   2.154   3.856  1.1499  1.0261 -1.7865
 7085TIP3    H242671   5.528   2.026   3.776  0.5400 -1.4232  1.9366
 7086TIP3   OH242672   2.060   0.756  12.409 -0.3779  0.2795 -0.3011
 7086TIP3    H142673   2.144   0.762  12.364 -0.1046  0.0575  0.1721
 7086TIP3    H242674   2.029   0.847  12.415  0.9639  0.6849  1.6304
 7087TIP3   OH242675   3.773   3.229   5.562 -0.4773  0.3758  0.6358
 7087TIP3    H142676   3.838   3.224   5.633  1.0815  0.3407 -0.7224
 7087TIP3    H242677   3.826   3.232   5.482 -2.1964 -1.8975 -0.6829
 7088TIP3   OH242678   4.299   4.202  17.268 -0.2212  0.2385  0.0336
 7088TIP3    H142679   4.218   4.232  17.308  0.7256 -0.0287  2.3329
 7088TIP3    H242680   4.272   4.161  17.186 -2.0694  2.5640 -0.5998
 7089TIP3   OH242681   3.981   0.862  11.489  0.0057 -0.4174  0.4700
 7089TIP3    H142682   4.009   0.798  11.424 -1.7432 -0.2316 -0.5136
 7089TIP3    H242683   4.035   0.843  11.566  1.2318 -1.4613 -0.6019
 7090TIP3   OH242684   2.160   6.161   3.783 -0.2738  0.2082 -0.0501
 7090TIP3    H142685   2.233   6.195   3.835  1.3495 -0.4922 -1.7327
 7090TIP3    H242686   2.136   6.079   3.826 -1.3816  1.3266  1.5862
 7091TIP3   OH242687   2.060   5.250   3.148 -0.0263  0.5661 -0.0009
 7091TIP3    H142688   2.088   5.164   3.115 -0.2505  0.4866  0.0123
 7091TIP3    H242689   1.994   5.279   3.086 -1.2677 -0.0904  0.9584
 7092TIP3   OH242690   0.459   3.356   4.029 -0.5662 -0.3059 -0.4585
 7092TIP3    H142691   0.378   3.306   4.019 -0.7551 -0.4280  1.3018
 7092TIP3    H242692   0.432   3.439   4.067 -0.0709  0.5401 -1.8789
 7093TIP3   OH242693   0.752   5.490   3.639 -0.1875  0.1793 -0.1142
 7093TIP3    H142694   0.833   5.514   3.684  0.1118 -2.4763  1.0118
 7093TIP3    H242695   0.684   5.502   3.705 -0.2503 -0.3935 -0.0653
 7094TIP3   OH242696   3.499   2.214  15.257  0.2230  0.5292  0.1714
 7094TIP3    H142697   3.532   2.126  15.242 -1.5323 -0.1260 -0.1804
 7094TIP3    H242698   3.546   2.269  15.194 -0.9168 -0.7345 -1.9304
 7095TIP3   OH242699   0.614   1.854  13.784 -0.6604 -0.4497  0.1028
 7095TIP3    H142700   0.604   1.891  13.696 -2.6580 -0.3808  0.3021
 7095TIP3    H242701   0.578   1.765  13.777  0.3041 -0.8887  0.5797
 7096TIP3   OH242702   2.461   0.371   2.289  0.3476  0.0406  0.1049
 7096TIP3    H142703   2.511   0.439   2.244 -0.5843  0.6085 -0.1153
 7096TIP3    H242704   2.506   0.289   2.267  0.9831  0.4965 -0.3360
 7097TIP3   OH242705   6.240   5.320   4.192 -0.0404 -0.2943 -0.6813
 7097TIP3    H142706   6.285   5.237   4.176  2.2754  0.1039  2.7643
 7097TIP3    H242707   6.156   5.295   4.230  0.3071 -1.0904 -0.4190
 7098TIP3   OH242708   1.439   4.561  16.557  0.1188  0.1437  0.2168
 7098TIP3    H142709   1.460   4.508  16.480  0.4187  1.0207 -0.3299
 7098TIP3    H242710   1.448   4.652  16.526  0.9832  0.5206  1.4910
 7099TIP3   OH242711   0.068   3.424   1.985  0.2092  0.2443  0.0587
 7099TIP3    H142712   0.159   3.401   2.002  0.1409  0.0553  0.1728
 7099TIP3    H242713   0.026   3.420   2.071 -0.1433 -0.7370 -0.1492
 7100TIP3   OH242714   1.100   5.098   1.847 -0.0600 -0.0719 -0.2389
 7100TIP3    H142715   1.169   5.139   1.898 -0.2575 -0.2503  0.1694
 7100TIP3    H242716   1.058   5.171   1.801  1.0470 -0.0580 -1.3079
 7101TIP3   OH242717   4.712   1.985   2.819  0.1174 -0.1231  0.3461
 7101TIP3    H142718   4.751   2.072   2.831 -0.9262  0.5133 -0.7329
 7101TIP3    H242719   4.744   1.935   2.894  2.5693  0.4944 -0.1867
 7102TIP3   OH242720   2.132   3.626   1.085  0.1109  0.1599  0.2624
 7102TIP3    H142721   2.227   3.623   1.071 -0.1378  0.9279 -1.9867
 7102TIP3    H242722   2.095   3.573   1.015 -1.1792  1.2792  0.0359
 7103TIP3   OH242723   0.272   2.058  15.785 -0.2588  0.3319 -0.0198
 7103TIP3    H142724   0.222   2.140  15.783 -0.8542 -0.0114  0.2833
 7103TIP3    H242725   0.205   1.990  15.789  0.2404 -0.1130  1.3569
 7104TIP3   OH242726   3.104   6.585  12.425  0.4265 -0.3743  0.4014
 7104TIP3    H142727   3.030   6.603  12.367  1.3326 -0.5220 -0.8299
 7104TIP3    H242728   3.132   6.496  12.401  2.0072  0.2796 -0.2850
 7105TIP3   OH242729   5.057   5.389  15.785 -0.1772 -0.6845  0.2238
 7105TIP3    H142730   5.097   5.472  15.760  2.7880 -2.6762 -2.5079
 7105TIP3    H242731   5.131   5.333  15.810 -2.1037 -2.3758  2.6867
 7106TIP3   OH242732   5.927   0.822  16.168  0.1158  0.0672 -0.1251
 7106TIP3    H142733   5.939   0.791  16.078  1.2197  2.4168 -0.8599
 7106TIP3    H242734   6.008   0.869  16.188 -0.3295  0.0475  1.9204
 7107TIP3   OH242735   4.654   4.150  15.642  0.8952  0.5087 -0.6170
 7107TIP3    H142736   4.650   4.055  15.641  1.2551  0.4775  0.3738
 7107TIP3    H242737   4.680   4.173  15.731 -1.7806  1.6454 -0.0431
 7108TIP3   OH242738   3.356   5.470   2.031 -0.1194 -0.3242  0.3957
 7108TIP3    H142739   3.330   5.536   2.094 -1.0382 -2.0005  1.8475
 7108TIP3    H242740   3.289   5.473   1.962  0.2016  0.6627  0.1191
 7109TIP3   OH242741   0.905   0.344   1.117  0.2579  0.0677 -0.2491
 7109TIP3    H142742   0.981   0.400   1.103 -0.7271  1.0901 -1.8660
 7109TIP3    H242743   0.836   0.403   1.148  0.2872 -0.9795  2.0237
 7110TIP3   OH242744   2.008   0.787   1.270  0.2181 -0.3941 -0.1228
 7110TIP3    H142745   2.063   0.769   1.194 -0.9525 -1.6089 -0.7388
 7110TIP3    H242746   1.940   0.845   1.237  1.0697  1.0823  0.6250
 7111TIP3   OH242747   2.053   4.534  11.181  0.0942 -0.0301  0.3463
 7111TIP3    H142748   2.080   4.517  11.090 -1.3789 -2.0120  0.2054
 7111TIP3    H242749   2.104   4.472  11.233  1.4820  1.6095  1.0126
 7112TIP3   OH242750   0.988   1.781   2.253  0.0372  0.1888 -0.1883
 7112TIP3    H142751   0.962   1.778   2.161 -0.8510  0.2042  0.0512
 7112TIP3    H242752   1.077   1.744   2.254  1.1341  2.5708 -1.3924
 7113TIP3   OH242753   1.086   0.193   0.055 -0.1549  0.2352 -0.0236
 7113TIP3    H142754   1.130   0.193  -0.030 -0.4783  0.8319 -0.1979
 7113TIP3    H242755   1.097   0.104   0.088  0.4746  0.1580 -0.4282
 7114TIP3   OH242756   1.733   6.302   2.964 -0.5223 -0.4971 -0.5579
 7114TIP3    H142757   1.805   6.263   3.013 -1.1732  0.1445  0.9752
 7114TIP3    H242758   1.776   6.347   2.890  0.7492  0.6065  0.7893
 7115TIP3   OH242759   6.266   2.705   2.190  0.6225  0.3499  0.3308
 7115TIP3    H142760   6.253   2.761   2.114  1.4588  0.6074  0.3677
 7115TIP3    H242761   6.319   2.632   2.158 -1.0660 -0.8401  0.1118
 7116TIP3   OH242762   6.451   2.763  13.545 -0.4927  0.2814 -0.1855
 7116TIP3    H142763   6.526   2.816  13.573 -1.1637  2.8020 -2.6391
 7116TIP3    H242764   6.375   2.805  13.585 -0.7723 -1.1643  0.8475
 7117TIP3   OH242765   1.833   3.819   3.004  0.1107 -0.2942  0.8303
 7117TIP3    H142766   1.823   3.898   2.952  0.2856 -0.5111  0.4614
 7117TIP3    H242767   1.888   3.762   2.950  0.8140 -0.2845  1.5214
 7118TIP3   OH242768   5.247   1.649  16.932 -0.1803  0.4967 -0.1159
 7118TIP3    H142769   5.205   1.673  16.849  1.0792  1.2313 -0.5538
 7118TIP3    H242770   5.339   1.668  16.919  0.0779  0.3578  1.3779
 7119TIP3   OH242771   4.161   1.525   5.250  0.2488  0.3841 -0.2871
 7119TIP3    H142772   4.220   1.450   5.252 -0.9179 -0.5568  0.0460
 7119TIP3    H242773   4.176   1.570   5.334 -1.1154 -1.1670  0.8475
 7120TIP3   OH242774   5.596   5.714   0.124 -0.3439  0.4318 -0.6275
 7120TIP3    H142775   5.524   5.756   0.078 -1.7338  0.2321  1.2404
 7120TIP3    H242776   5.601   5.760   0.208  1.7373  0.4415 -0.7075
 7121TIP3   OH242777   1.067   5.350   0.952  0.0752 -0.1093  0.0818
 7121TIP3    H142778   1.103   5.438   0.966  0.7841 -0.5161  0.8122
 7121TIP3    H242779   0.990   5.346   1.009 -1.4558  0.8932 -1.7479
 7122TIP3   OH242780   3.756   1.008  10.759 -0.1674 -0.3663  0.2452
 7122TIP3    H142781   3.782   0.978  10.673 -0.6441  0.5156 -0.2231
 7122TIP3    H242782   3.815   1.081  10.778 -1.4369  0.8502 -0.2989
 7123TIP3   OH242783   5.509   5.958  16.285  0.8700  1.0213  0.0735
 7123TIP3    H142784   5.522   5.948  16.380 -1.7656  0.9555  0.5075
 7123TIP3    H242785   5.512   6.053  16.271  0.3900  1.0883  0.3947
 7124TIP3   OH242786   1.181   1.457  10.343 -0.1140 -0.7143  0.0182
 7124TIP3    H142787   1.202   1.489  10.431 -0.9844 -1.8071  0.6548
 7124TIP3    H242788   1.266   1.448  10.299  0.4572 -1.4828  1.2311
 7125TIP3   OH242789   3.312   3.797  13.452  0.0725 -0.4862  0.3628
 7125TIP3    H142790   3.366   3.724  13.484 -0.2318  0.5537  3.6756
 7125TIP3    H242791   3.375   3.862  13.422  0.6822 -0.0509  2.4039
 7126TIP3   OH242792   6.513   4.682   4.286 -0.1280 -0.0846  0.4925
 7126TIP3    H142793   6.464   4.611   4.328 -1.3487  1.0868  1.0888
 7126TIP3    H242794   6.555   4.729   4.358 -0.9835  1.0134  0.2864
 7127TIP3   OH242795   2.225   6.540  11.818  0.4534  0.0097  0.3963
 7127TIP3    H142796   2.223   6.450  11.853 -0.5154 -0.3417 -0.5032
 7127TIP3    H242797   2.210   6.529  11.724 -0.0492  1.1443  0.3314
 7128TIP3   OH242798   3.371   3.313   2.510 -0.3134 -0.1659  0.4329
 7128TIP3    H142799   3.426   3.383   2.544  3.3628 -2.9368  0.7561
 7128TIP3    H242800   3.337   3.347   2.427  1.7116  1.8424  0.3542
 7129TIP3   OH242801   0.770   4.625   0.430  0.0168  0.4145  0.2560
 7129TIP3    H142802   0.849   4.660   0.389  0.8569 -0.4058  1.1218
 7129TIP3    H242803   0.709   4.699   0.432  0.7055  1.0220 -0.5419
 7130TIP3   OH242804   5.854   6.641  17.280  0.1312 -0.1283  0.1906
 7130TIP3    H142805   5.896   6.725  17.262 -1.6026  1.0187  1.2268
 7130TIP3    H242806   5.795   6.627  17.206  0.1337 -0.2330  0.2075
 7131TIP3   OH242807   1.862   3.036  15.292  0.4048  0.3063  0.3452
 7131TIP3    H142808   1.887   3.070  15.378 -1.7111  1.9263  0.4023
 7131TIP3    H242809   1.847   3.114  15.238 -0.9322 -0.6151 -0.6929
 7132TIP3   OH242810   3.850   5.149  12.618 -0.0195 -0.2480  0.3108
 7132TIP3    H142811   3.843   5.055  12.601 -2.3236  0.3261 -2.5052
 7132TIP3    H242812   3.766   5.173  12.656 -0.4271  1.0583 -1.3323
 7133TIP3   OH242813   4.643   5.304   4.837  0.0353 -0.4146  0.3304
 7133TIP3    H142814   4.628   5.213   4.862  0.2521 -0.0020  2.0511
 7133TIP3    H242815   4.727   5.327   4.876 -1.0190  1.1552  1.8009
 7134TIP3   OH242816   6.478   1.806   4.072 -0.1428 -0.1729  0.1837
 7134TIP3    H142817   6.432   1.872   4.124 -0.0493 -0.8677  1.1585
 7134TIP3    H242818   6.452   1.722   4.110 -2.2269 -0.9331 -2.5778
 7135TIP3   OH242819   0.517   2.925   3.712 -0.3457 -0.6392  0.1889
 7135TIP3    H142820   0.604   2.887   3.717 -0.3685 -0.6621  0.4127
 7135TIP3    H242821   0.494   2.920   3.619 -1.1669 -2.9907  0.4554
 7136TIP3   OH242822   4.630   3.616   3.826  0.2420 -0.3324  0.3069
 7136TIP3    H142823   4.623   3.678   3.753 -0.8139  0.4889  1.0754
 7136TIP3    H242824   4.541   3.581   3.837  0.1467  0.3064  1.8149
 7137TIP3   OH242825   3.861   0.158   3.833  1.5857 -0.8634 -0.0209
 7137TIP3    H142826   3.849   0.093   3.903 -1.8195  0.0088  0.3898
 7137TIP3    H242827   3.864   0.107   3.753 -0.9748 -1.6607  0.3028
 7138TIP3   OH242828   1.271   0.320  13.697  0.1002 -0.2610  0.5437
 7138TIP3    H142829   1.227   0.385  13.642 -1.4059 -0.9934  0.8284
 7138TIP3    H242830   1.325   0.269  13.636  2.5413  2.1514  0.5157
 7139TIP3   OH242831   6.490   0.588   4.387  0.3894  0.0025  0.0724
 7139TIP3    H142832   6.526   0.603   4.475 -0.1113  0.0935  0.2638
 7139TIP3    H242833   6.498   0.493   4.374  1.9597  0.1824 -0.4444
 7140TIP3   OH242834   5.869   6.425   3.223 -0.4319 -0.0695  0.1744
 7140TIP3    H142835   5.806   6.475   3.275 -1.3210  0.3457 -1.2159
 7140TIP3    H242836   5.942   6.485   3.209 -1.2009  0.6602 -0.9260
 7141TIP3   OH242837   1.580   6.051  12.250 -0.1090  0.0684 -0.0021
 7141TIP3    H142838   1.518   6.110  12.293 -0.0585 -1.1482  1.8576
 7141TIP3    H242839   1.620   6.104  12.182 -4.4758  0.4540 -2.6785
 7142TIP3   OH242840   1.466   0.438   2.532  0.2989  0.2367  0.4682
 7142TIP3    H142841   1.505   0.420   2.617  3.1831  0.1653 -0.7709
 7142TIP3    H242842   1.467   0.354   2.486 -3.0537 -0.1996  0.9042
 7143TIP3   OH242843   4.790   4.832  12.764 -0.4716  0.1872  0.1998
 7143TIP3    H142844   4.790   4.836  12.859 -0.3679  0.0649  0.2049
 7143TIP3    H242845   4.878   4.805  12.740 -1.2442 -2.5914  0.1950
 7144TIP3   OH242846   3.453   4.391  14.360 -0.5905  0.1938  0.0634
 7144TIP3    H142847   3.535   4.433  14.386 -0.6107 -0.5637  1.4046
 7144TIP3    H242848   3.479   4.308  14.321 -0.7614 -0.9612  2.2834
 7145TIP3   OH242849   5.648   6.168  16.454  0.5069 -0.7289 -0.2126
 7145TIP3    H142850   5.572   6.218  16.422  0.0842 -0.6844  0.8116
 7145TIP3    H242851   5.722   6.226  16.441 -0.0443  0.4201  1.4396
 7146TIP3   OH242852   0.751   6.153  14.147  0.0887  0.1093  0.1728
 7146TIP3    H142853   0.818   6.148  14.215 -1.2451 -0.6118  1.4953
 7146TIP3    H242854   0.736   6.247  14.134  1.2698  0.2755 -0.0908
 7147TIP3   OH242855   4.335   5.963  16.515  0.3268 -0.1470  0.0396
 7147TIP3    H142856   4.273   5.977  16.586  0.2208 -0.2711 -0.0289
 7147TIP3    H242857   4.289   5.905  16.454  0.9517 -1.2456  0.5737
 7148TIP3   OH242858   5.515   2.980   1.184 -0.1355  0.5397  0.6283
 7148TIP3    H142859   5.519   2.889   1.211  0.8854 -0.0846 -1.4444
 7148TIP3    H242860   5.423   2.993   1.157  0.0916 -0.4274 -0.7143
 7149TIP3   OH242861   5.286   0.732  13.586 -0.2894 -0.0004 -0.0225
 7149TIP3    H142862   5.381   0.733  13.600 -0.2445  0.3917 -0.3593
 7149TIP3    H242863   5.251   0.788  13.656 -0.2234  0.3620 -0.2815
 7150TIP3   OH242864   1.480   4.512   4.651  0.1633 -0.0498  0.1476
 7150TIP3    H142865   1.480   4.548   4.740 -0.1718  0.8199 -0.1926
 7150TIP3    H242866   1.559   4.549   4.611  0.6132 -0.8783  0.2411
 7151TIP3   OH242867   3.308   3.573   4.876 -0.2150  0.0553 -0.4219
 7151TIP3    H142868   3.284   3.488   4.913 -0.4435 -0.1007 -0.9199
 7151TIP3    H242869   3.235   3.596   4.818 -0.6914  1.1154  0.5434
 7152TIP3   OH242870   2.481   4.781   5.684 -0.1840  0.8371 -0.1576
 7152TIP3    H142871   2.502   4.746   5.597  0.6830  1.4708 -0.2090
 7152TIP3    H242872   2.434   4.862   5.666 -2.1358 -0.1873 -0.0365
 7153TIP3   OH242873   3.565   3.763  16.635 -0.1129 -0.1792  0.2117
 7153TIP3    H142874   3.648   3.790  16.596  1.2986 -1.6355  1.9828
 7153TIP3    H242875   3.512   3.843  16.637  1.0614  0.6921 -1.3701
 7154TIP3   OH242876   0.232   6.568   2.529  0.2331  0.4025  1.0936
 7154TIP3    H142877   0.213   6.654   2.491 -0.1028 -0.9899 -2.1604
 7154TIP3    H242878   0.328   6.566   2.535  0.2253  1.2104  1.8975
 7155TIP3   OH242879   4.555   5.082   4.957  0.2000 -0.3931 -0.0403
 7155TIP3    H142880   4.500   5.073   5.034 -2.0858  0.2383 -1.4958
 7155TIP3    H242881   4.543   4.999   4.910  2.3794 -1.1911  0.7194
 7156TIP3   OH242882   6.567   4.017  14.064 -1.0348 -0.2527  0.0549
 7156TIP3    H142883   6.601   3.939  14.021 -0.1729 -1.0127  2.0169
 7156TIP3    H242884   6.579   4.087  13.999  1.4298 -1.0908 -0.4998
 7157TIP3   OH242885   1.964   2.693  11.362  0.2333 -0.6650 -0.2573
 7157TIP3    H142886   2.042   2.692  11.417 -0.0671 -0.5566  0.1744
 7157TIP3    H242887   1.973   2.771  11.307 -0.2902  0.2019  0.8487
 7158TIP3   OH242888   3.634   0.868  12.970  0.3498 -0.7892  0.1968
 7158TIP3    H142889   3.592   0.922  13.036  1.0313  2.2401 -1.6326
 7158TIP3    H242890   3.687   0.806  13.019 -1.7959 -0.9708  2.4536
 7159TIP3   OH242891   4.590   0.563  16.239  0.0042  0.1983  0.1620
 7159TIP3    H142892   4.588   0.539  16.146  0.7181  3.8050 -0.9655
 7159TIP3    H242893   4.662   0.512  16.276  1.6040  0.7316 -2.0212
 7160TIP3   OH242894   3.139   5.919   2.796  0.2092 -0.3329 -0.4329
 7160TIP3    H142895   3.149   5.837   2.748  1.2399  0.3738 -1.4568
 7160TIP3    H242896   3.228   5.951   2.809 -0.0982 -0.0265  1.1542
 7161TIP3   OH242897   5.956   5.189   1.313 -0.3253  0.3148 -0.2457
 7161TIP3    H142898   6.018   5.199   1.241  0.7466 -0.9277  0.4327
 7161TIP3    H242899   5.906   5.110   1.291 -0.5940  0.4283 -0.0461
 7162TIP3   OH242900   2.138   5.486  14.340  0.3901  0.1440  0.2901
 7162TIP3    H142901   2.184   5.518  14.418 -0.1457 -1.7489  1.4478
 7162TIP3    H242902   2.059   5.541  14.335  1.1016  1.1922  0.2521
 7163TIP3   OH242903   4.914   3.803   6.073  0.2384  0.1319 -0.3569
 7163TIP3    H142904   4.970   3.759   6.137  1.6882  1.1773 -0.8500
 7163TIP3    H242905   4.950   3.778   5.988  1.6491  2.7865 -0.6561
 7164TIP3   OH242906   3.560   3.586   2.923 -0.0866 -0.3178 -0.5113
 7164TIP3    H142907   3.653   3.607   2.931  0.3124 -2.1330  0.3250
 7164TIP3    H242908   3.530   3.578   3.014 -0.5044 -1.8386 -0.7577
 7165TIP3   OH242909   2.867   6.608   5.360  0.5431 -0.2618 -0.2695
 7165TIP3    H142910   2.882   6.654   5.442 -0.8429  0.1650 -0.2432
 7165TIP3    H242911   2.866   6.515   5.385 -1.6013 -0.0790  0.5266
 7166TIP3   OH242912   6.242   5.597   6.054 -0.5458 -0.1982 -0.8307
 7166TIP3    H142913   6.323   5.622   6.010 -0.4231  0.6585 -0.1571
 7166TIP3    H242914   6.261   5.608   6.148 -2.2059  2.7279 -0.6983
 7167TIP3   OH242915   4.559   5.276   5.603 -0.4433 -0.1840  0.0712
 7167TIP3    H142916   4.586   5.203   5.547 -0.2030 -0.4586  0.5377
 7167TIP3    H242917   4.571   5.243   5.692 -1.5631 -0.0317  0.2958
 7168TIP3   OH242918   4.221   3.068  15.009 -0.5082 -0.3202  0.3606
 7168TIP3    H142919   4.128   3.050  14.990 -0.2096 -1.7915  0.2263
 7168TIP3    H242920   4.240   3.017  15.087  0.2511 -0.1936  0.2608
 7169TIP3   OH242921   6.456   1.568   2.644  0.7049  0.3556 -0.3660
 7169TIP3    H142922   6.415   1.592   2.727 -0.6572 -0.3974 -0.7794
 7169TIP3    H242923   6.454   1.648   2.591  1.1061  0.7006  0.1333
 7170TIP3   OH242924   3.326   5.585   4.915 -0.3889 -0.8339  0.9580
 7170TIP3    H142925   3.251   5.540   4.875 -1.3451 -0.1265  1.9077
 7170TIP3    H242926   3.357   5.525   4.983  0.9118 -1.8060 -0.4249
 7171TIP3   OH242927   4.996   6.236   3.852  0.6979  0.2589 -0.3451
 7171TIP3    H142928   4.986   6.141   3.863 -1.5114  0.4823  0.0111
 7171TIP3    H242929   5.066   6.260   3.913  0.6803 -1.0199  0.2153
 7172TIP3   OH242930   5.263   4.967   1.293 -0.4633 -0.3537 -0.9042
 7172TIP3    H142931   5.296   4.985   1.205  0.8377 -0.3980 -0.4463
 7172TIP3    H242932   5.321   4.899   1.328 -1.4559 -0.9085 -0.3033
 7173TIP3   OH242933   5.917   6.080   3.661 -0.0611 -0.6350 -0.2911
 7173TIP3    H142934   5.985   6.023   3.626 -0.2764 -0.7260 -0.5655
 7173TIP3    H242935   5.938   6.167   3.625  0.4148 -0.4838  0.3340
 7174TIP3   OH242936   2.449   2.814  12.852 -0.3284  0.8193 -0.2290
 7174TIP3    H142937   2.431   2.899  12.813  0.2373  1.5025  0.9353
 7174TIP3    H242938   2.544   2.806  12.851 -0.3600  0.3406 -0.0286
 7175TIP3   OH242939   2.539   5.649  12.436  0.3309 -0.1669 -0.2334
 7175TIP3    H142940   2.572   5.737  12.419  0.4786  0.4876  2.7657
 7175TIP3    H242941   2.599   5.591  12.389  2.1427  1.2344  0.2238
 7176TIP3   OH242942   1.434   0.011   4.387  0.1998 -0.4401  0.5081
 7176TIP3    H142943   1.473  -0.009   4.472 -1.6504 -3.1102  0.8582
 7176TIP3    H242944   1.499  -0.019   4.324 -0.0300 -2.2446  1.0617
 7177TIP3   OH242945   1.418   5.800   3.781  0.4028 -0.6337 -0.2588
 7177TIP3    H142946   1.436   5.828   3.692  1.2767  2.1883  0.6966
 7177TIP3    H242947   1.494   5.746   3.804  0.2590 -1.2287 -1.1311
 7178TIP3   OH242948   6.544   1.605  16.245 -0.0962  0.4833  0.8008
 7178TIP3    H142949   6.559   1.593  16.339 -2.2511  0.4001  1.1827
 7178TIP3    H242950   6.477   1.672  16.240  2.4373  3.1127 -0.8673
 7179TIP3   OH242951   5.253   4.629   2.104 -0.1552 -0.4132 -0.0679
 7179TIP3    H142952   5.257   4.536   2.123 -1.3273 -0.0219  2.5132
 7179TIP3    H242953   5.160   4.647   2.088 -0.2442  0.5735  1.3356
 7180TIP3   OH242954   2.854   4.768   4.261  0.2426 -0.1786 -0.1116
 7180TIP3    H142955   2.844   4.677   4.289  1.0205 -0.0956  0.4838
 7180TIP3    H242956   2.891   4.813   4.338 -0.1198  0.6379 -0.4005
 7181TIP3   OH242957   1.494   6.517   5.859 -0.2921  0.0400  0.3505
 7181TIP3    H142958   1.562   6.475   5.912  0.7967  3.1379  1.6333
 7181TIP3    H242959   1.424   6.538   5.922 -0.6469  0.4572 -0.1754
 7182TIP3   OH242960   0.150   0.637  11.508 -0.1443 -0.1643 -0.2175
 7182TIP3    H142961   0.218   0.688  11.463  0.9332 -1.1550  0.2367
 7182TIP3    H242962   0.142   0.679  11.593 -0.1303 -0.0159 -0.2893
 7183TIP3   OH242963   4.922   2.014  15.872  0.1473 -0.4524 -0.0121
 7183TIP3    H142964   4.972   1.944  15.830  1.2803  0.5835 -0.4668
 7183TIP3    H242965   4.976   2.092  15.860 -0.9592  0.4569  0.7051
 7184TIP3   OH242966   6.566   1.777   0.704  0.2860 -0.3707 -0.6979
 7184TIP3    H142967   6.592   1.807   0.791 -1.4561 -0.8450  0.0255
 7184TIP3    H242968   6.499   1.839   0.676  1.1165  0.0186 -1.9045
 7185TIP3   OH242969   5.730   4.969   0.607 -0.1184  0.2064  0.1351
 7185TIP3    H142970   5.654   4.997   0.659  0.2166 -0.6556  1.1370
 7185TIP3    H242971   5.789   5.044   0.609 -0.8481  0.8166 -0.4944
 7186TIP3   OH242972   2.894   1.291   4.570 -0.1306 -0.0277 -0.3215
 7186TIP3    H142973   2.894   1.204   4.611 -2.1349  0.7057  1.4452
 7186TIP3    H242974   2.967   1.337   4.611  1.5853 -1.0845 -1.9872
 7187TIP3   OH242975   1.542   2.193  17.305 -0.2797 -0.0230  0.4009
 7187TIP3    H142976   1.447   2.190  17.302 -0.4299  1.1836  2.4573
 7187TIP3    H242977   1.562   2.269  17.359  1.9036  1.0160 -1.6521
 7188TIP3   OH242978   6.421   5.764   3.296  0.0385 -0.0313  0.4805
 7188TIP3    H142979   6.429   5.813   3.377  0.1796  1.5366 -0.4386
 7188TIP3    H242980   6.379   5.825   3.235 -3.0094 -2.1682  0.2199
 7189TIP3   OH242981   3.614   5.304   4.711 -0.0344 -0.3058  0.3615
 7189TIP3    H142982   3.552   5.377   4.710  1.3176  0.8671 -0.7532
 7189TIP3    H242983   3.602   5.261   4.626  0.1432 -0.5690  0.4668
 7190TIP3   OH242984   3.256   2.702   5.356  0.0813 -0.7164  0.3894
 7190TIP3    H142985   3.351   2.697   5.342  0.3853  0.2400  1.8768
 7190TIP3    H242986   3.219   2.703   5.268  1.3560 -2.3166 -0.2263
 7191TIP3   OH242987   2.616   2.985  13.845 -0.1916  0.0865 -0.0414
 7191TIP3    H142988   2.688   2.986  13.781 -0.5177 -0.0107 -0.4135
 7191TIP3    H242989   2.610   3.076  13.876 -1.0183  0.4655 -1.2681
 7192TIP3   OH242990   4.284   6.488   5.185 -0.0707 -0.3199 -0.0408
 7192TIP3    H142991   4.194   6.477   5.213 -0.1578  0.8681  0.2329
 7192TIP3    H242992   4.297   6.424   5.115 -1.1128 -0.5033 -0.0701
 7193TIP3   OH242993   1.223   0.734  11.026 -0.4793 -0.0897 -0.0858
 7193TIP3    H142994   1.256   0.793  11.094  1.4667 -1.1378 -0.0656
 7193TIP3    H242995   1.249   0.647  11.054 -1.2210 -0.7378 -1.2963
 7194TIP3   OH242996   3.622   4.717   4.111  0.1926 -0.3767 -0.3545
 7194TIP3    H142997   3.701   4.668   4.131  1.9038  1.3800 -2.3794
 7194TIP3    H242998   3.613   4.712   4.015  0.2604  2.8277 -0.6365
 7195TIP3   OH242999   0.057   1.010   2.527 -0.4940 -0.1801 -0.0315
 7195TIP3    H143000  -0.002   0.987   2.599 -0.8861  1.3829  0.1725
 7195TIP3    H243001   0.078   1.102   2.541  0.4385 -0.1867 -1.2185
 7196TIP3   OH243002   2.334   0.151  16.240  0.0999 -0.6142 -0.1649
 7196TIP3    H143003   2.240   0.137  16.232 -0.4620  1.4577  1.8912
 7196TIP3    H243004   2.355   0.216  16.173 -0.0166 -0.6870 -0.2724
 7197TIP3   OH243005   6.071   2.087  17.037 -0.2560  0.2226  0.2196
 7197TIP3    H143006   6.017   2.101  16.959 -1.2631  0.2773  0.9080
 7197TIP3    H243007   6.032   2.143  17.104 -0.0471 -0.6091  1.0554
 7198TIP3   OH243008   3.098   1.174   4.003  0.4774  0.4104 -0.1114
 7198TIP3    H143009   3.140   1.235   3.942 -1.0956  0.6208 -1.0203
 7198TIP3    H243010   3.047   1.230   4.061  0.6431  0.0826  0.3587
 7199TIP3   OH243011   3.603   4.602  15.418 -0.2138 -0.4450 -0.2889
 7199TIP3    H143012   3.609   4.535  15.486  2.2537  0.1999  0.2604
 7199TIP3    H243013   3.594   4.554  15.337 -1.1117 -1.3095  0.2985
 7200TIP3   OH243014   0.389   3.997   3.275 -0.2017 -0.3151  0.2499
 7200TIP3    H143015   0.431   4.056   3.338 -1.5671  0.4076  0.5323
 7200TIP3    H243016   0.311   4.044   3.246 -0.0845 -1.0219 -1.3243
 7201TIP3   OH243017   3.479   1.580   2.849  0.8505 -0.3650  0.1864
 7201TIP3    H143018   3.561   1.584   2.802  0.5007 -0.5751 -0.4557
 7201TIP3    H243019   3.425   1.519   2.798  0.1878  0.0184  0.4176
 7202TIP3   OH243020   6.177   3.012  16.584 -0.0272  0.0882  0.0682
 7202TIP3    H143021   6.186   3.063  16.503  2.1282  1.1080  0.8856
 7202TIP3    H243022   6.250   2.951  16.581  1.1301  1.2841  1.9832
 7203TIP3   OH243023   4.507   5.413  11.813 -0.1631 -0.4891 -0.6510
 7203TIP3    H143024   4.560   5.447  11.741 -0.4904 -1.5660 -1.4233
 7203TIP3    H243025   4.548   5.330  11.836 -0.9908 -0.9040 -0.6584
 7204TIP3   OH243026   1.719   1.104  13.498  0.1197 -0.0005  0.1511
 7204TIP3    H143027   1.644   1.080  13.552  0.0212 -1.4469 -0.5719
 7204TIP3    H243028   1.712   1.199  13.487 -1.1025  0.0046  0.8166
 7205TIP3   OH243029   1.858   1.043   6.110  0.1982  0.5296  0.0375
 7205TIP3    H143030   1.856   1.121   6.166  2.1645  1.5078 -1.1553
 7205TIP3    H243031   1.914   0.981   6.157  2.1190  1.4743 -0.9225
 7206TIP3   OH243032   3.275   5.125  13.053 -0.0184  0.2051 -0.6373
 7206TIP3    H143033   3.255   5.142  13.145  2.4908  0.0987 -0.0099
 7206TIP3    H243034   3.271   5.030  13.044  0.0545  0.1951 -0.5598
 7207TIP3   OH243035   4.302   0.181   0.867 -0.1155 -0.4280 -0.4003
 7207TIP3    H143036   4.283   0.090   0.890  0.6246 -0.0251  2.1416
 7207TIP3    H243037   4.393   0.180   0.837 -0.8808 -0.8514 -2.9268
 7208TIP3   OH243038   4.521   1.052   3.819  0.0624  0.3260 -0.5626
 7208TIP3    H143039   4.545   1.096   3.900 -1.5278  0.0689  0.0694
 7208TIP3    H243040   4.553   0.962   3.830 -0.5736  0.1615 -0.0035
 7209TIP3   OH243041   3.623   5.519   2.158 -0.5045 -0.3255  0.0934
 7209TIP3    H143042   3.529   5.506   2.166 -0.6848  1.3686  1.2416
 7209TIP3    H243043   3.636   5.548   2.067 -1.0730 -0.6362 -0.0893
 7210TIP3   OH243044   2.624   2.535  11.904  0.2530 -0.4495 -0.0125
 7210TIP3    H143045   2.647   2.442  11.901  0.2648 -0.4386 -1.7904
 7210TIP3    H243046   2.705   2.581  11.885  0.5145  0.0223  2.0523
 7211TIP3   OH243047   4.213   2.520   3.758 -0.1917 -0.0224  1.0724
 7211TIP3    H143048   4.244   2.600   3.800  1.9996 -0.5165  0.5020
 7211TIP3    H243049   4.224   2.452   3.824 -0.5435 -0.1307  1.0223
 7212TIP3   OH243050   2.649   3.354  14.110 -0.1887  0.4699  0.3525
 7212TIP3    H143051   2.613   3.319  14.029  1.5932 -0.2799 -0.1784
 7212TIP3    H243052   2.575   3.357  14.171 -0.9667 -1.8255 -0.3773
 7213TIP3   OH243053   3.560   4.247   2.931 -0.2308  0.2228  0.2442
 7213TIP3    H143054   3.467   4.235   2.952 -0.6075  0.2960 -1.3039
 7213TIP3    H243055   3.562   4.329   2.882  0.6248  0.1006  0.0741
 7214TIP3   OH243056   0.603   4.585  12.162  0.0389  0.0365  1.1317
 7214TIP3    H143057   0.560   4.609  12.080  1.1723 -1.3182  0.1021
 7214TIP3    H243058   0.538   4.534  12.209 -0.3901  0.2625  0.7955
 7215TIP3   OH243059   4.178   4.699   2.013 -0.2428  0.4773 -0.4478
 7215TIP3    H143060   4.136   4.668   1.932 -0.8644  0.8787 -0.2869
 7215TIP3    H243061   4.105   4.730   2.067  0.3246  2.0058 -0.5129
 7216TIP3   OH243062   4.683   5.094   6.452 -0.1334 -0.4569  0.1152
 7216TIP3    H143063   4.590   5.106   6.472 -0.1498 -1.2216  0.5517
 7216TIP3    H243064   4.716   5.182   6.439 -0.6613 -0.0918  1.1348
 7217TIP3   OH243065   0.877   0.012  12.641  0.3928  0.0811 -0.0555
 7217TIP3    H143066   0.936  -0.060  12.616 -0.4003  0.0794 -2.1432
 7217TIP3    H243067   0.885   0.074  12.569  0.5441  1.7998  1.3938
 7218TIP3   OH243068   2.481   1.454  15.173  0.4037 -0.3907  0.1360
 7218TIP3    H143069   2.431   1.379  15.141  1.1506 -0.7930 -0.1158
 7218TIP3    H243070   2.473   1.449  15.269 -0.7259  0.0435  0.0807
 7219TIP3   OH243071   4.210   0.009   2.388  0.2012 -0.6431 -0.5285
 7219TIP3    H143072   4.268   0.049   2.453  0.2007 -2.2193  0.4850
 7219TIP3    H243073   4.173   0.084   2.341  0.3643  0.5407  1.1302
 7220TIP3   OH243074   0.560   4.575   4.665 -0.6606  0.3276  0.1803
 7220TIP3    H143075   0.525   4.640   4.604 -0.3636 -0.1521 -0.5005
 7220TIP3    H243076   0.655   4.579   4.654 -0.5746  0.5584  0.9418
 7221TIP3   OH243077   1.538   2.774   5.443 -0.2689  0.7625 -0.5978
 7221TIP3    H143078   1.576   2.841   5.386  0.2157  1.0104  0.0098
 7221TIP3    H243079   1.445   2.774   5.422 -0.1612  1.1426 -1.0879
 7222TIP3   OH243080   6.277   3.234  12.436  0.3317 -0.4109 -0.3151
 7222TIP3    H143081   6.183   3.253  12.432  0.4369  1.0699  2.1858
 7222TIP3    H243082   6.319   3.311  12.398  0.5966 -1.1706 -1.6525
 7223TIP3   OH243083   4.019   4.593   3.839 -0.0173 -0.8004 -0.3453
 7223TIP3    H143084   4.023   4.502   3.866  1.0654 -0.8307 -0.5322
 7223TIP3    H243085   3.932   4.623   3.865  0.4423 -1.2296  1.8130
 7224TIP3   OH243086   1.733   3.762   4.031 -0.6171 -0.4596  0.0222
 7224TIP3    H143087   1.721   3.719   4.115  0.0911  0.4819  0.6230
 7224TIP3    H243088   1.820   3.736   4.002  0.3228  1.4138  0.9540
 7225TIP3   OH243089   4.702   6.541  15.090  0.1721 -0.0367 -0.3414
 7225TIP3    H143090   4.754   6.465  15.064  0.5196 -0.2905  0.9819
 7225TIP3    H243091   4.643   6.507  15.157 -0.5960  0.5898 -0.6901
 7226TIP3   OH243092   3.084   2.548  11.951  0.1148  0.2242 -0.2704
 7226TIP3    H143093   3.042   2.462  11.947 -0.7509  0.6685 -2.3782
 7226TIP3    H243094   3.020   2.607  11.911  1.4838  1.4971 -0.6712
 7227TIP3   OH243095   6.409   6.120   4.307  0.2172 -0.2984  0.0067
 7227TIP3    H143096   6.349   6.103   4.379  1.6895 -1.2684  1.0522
 7227TIP3    H243097   6.457   6.199   4.332  0.2349 -0.2252 -0.2478
 7228TIP3   OH243098   5.487   1.834   3.338 -0.0919 -0.1475 -0.0942
 7228TIP3    H143099   5.529   1.766   3.390 -1.1191  0.2730  1.3594
 7228TIP3    H243100   5.481   1.797   3.250  0.7980 -1.2859  0.2998
 7229TIP3   OH243101   2.619   3.288   6.133  0.3085 -0.6012 -0.2203
 7229TIP3    H143102   2.565   3.292   6.054 -0.7858  2.6037  0.5463
 7229TIP3    H243103   2.709   3.299   6.101 -0.0800  0.1541 -1.0854
 7230TIP3   OH243104   3.120   4.150   3.420 -0.1126  0.8558  0.0439
 7230TIP3    H143105   3.183   4.162   3.349 -0.6889  0.7067 -0.5015
 7230TIP3    H243106   3.059   4.222   3.411  0.1124  1.1466  0.7317
 7231TIP3   OH243107   4.883   4.361   5.783  0.0126  0.1122  0.2078
 7231TIP3    H143108   4.945   4.303   5.827  2.0451  0.7646 -1.6029
 7231TIP3    H243109   4.902   4.447   5.821  1.6057  0.6343 -1.5892
 7232TIP3   OH243110   5.129   4.734   4.968 -0.1961  0.3279  0.2797
 7232TIP3    H143111   5.153   4.705   4.880  0.6874  2.1634 -0.1286
 7232TIP3    H243112   5.212   4.750   5.012 -0.6282 -0.3578  1.4104
 7233TIP3   OH243113   1.680   4.182  15.557 -0.1882  0.6200  0.4459
 7233TIP3    H143114   1.694   4.155  15.466  1.3056  0.0719  0.8043
 7233TIP3    H243115   1.658   4.275  15.551  1.0610  0.8914 -0.4303
 7234TIP3   OH243116   5.891   4.486  15.592 -0.4204  0.9686  0.5181
 7234TIP3    H143117   5.902   4.562  15.536 -0.9742  0.9743  0.4097
 7234TIP3    H243118   5.975   4.477  15.638  0.4730  0.2801 -1.1478
 7235TIP3   OH243119   4.063   3.064  17.319 -0.0393 -0.2239 -0.2084
 7235TIP3    H143120   4.048   3.009  17.396 -1.4955 -0.4175 -0.5981
 7235TIP3    H243121   4.049   3.154  17.351 -0.5092 -0.2943 -0.2054
 7236TIP3   OH243122   1.989   2.973  11.504  0.7411 -0.4484  0.1776
 7236TIP3    H143123   1.977   2.964  11.410  1.3858 -0.9180  0.1332
 7236TIP3    H243124   2.062   2.915  11.525  0.8017 -0.1221  0.9206
 7237TIP3   OH243125   5.450   3.370  13.958 -0.3777 -0.1417  0.4009
 7237TIP3    H143126   5.456   3.465  13.960 -0.3658 -0.1120 -0.7919
 7237TIP3    H243127   5.527   3.341  13.909  0.1390 -0.8395  1.5650
 7238TIP3   OH243128   6.231   4.902   5.550  0.6950 -0.2623  0.4650
 7238TIP3    H143129   6.158   4.842   5.565 -0.6031  1.3265  0.7966
 7238TIP3    H243130   6.307   4.855   5.583 -0.2448 -1.7938  0.5439
 7239TIP3   OH243131   5.635   0.379  12.918  0.3112 -0.2046 -0.2314
 7239TIP3    H143132   5.628   0.474  12.914  0.3177 -0.0435  2.2653
 7239TIP3    H243133   5.550   0.351  12.953  1.1603 -0.8557  1.4231
 7240TIP3   OH243134   2.071   0.805  14.492 -0.4735  0.1915  0.1066
 7240TIP3    H143135   1.995   0.860  14.473  0.7237  1.1962 -2.0999
 7240TIP3    H243136   2.118   0.852  14.562 -1.1722  0.2269  0.5649
 7241TIP3   OH243137   0.263   1.876  10.823 -0.0884 -0.4228 -0.1572
 7241TIP3    H143138   0.314   1.888  10.742 -0.3072 -2.4176 -0.6360
 7241TIP3    H243139   0.182   1.925  10.807  0.9383  1.4293 -0.0338
 7242TIP3   OH243140   3.088   1.184  13.556  0.1986 -0.2121 -0.5013
 7242TIP3    H143141   3.007   1.148  13.522  0.2234 -0.4265 -0.3391
 7242TIP3    H243142   3.139   1.107  13.583  0.1872 -0.0494 -0.0066
 7243TIP3   OH243143   0.405   6.567   1.272  0.0653 -0.7520 -0.3237
 7243TIP3    H143144   0.368   6.611   1.195 -0.7373  0.0673  0.4963
 7243TIP3    H243145   0.490   6.536   1.243  0.5963  1.2163 -1.0165
 7244TIP3   OH243146   0.477   3.935  14.004 -0.4026  0.3643 -0.1886
 7244TIP3    H143147   0.398   3.983  14.033 -0.7695 -0.4153  0.1220
 7244TIP3    H243148   0.455   3.843  14.017  0.3151  0.1091 -0.7544
 7245TIP3   OH243149   5.487   5.498   2.863  0.0897  0.2008  0.2853
 7245TIP3    H143150   5.428   5.462   2.930  0.4777 -0.2906  0.3726
 7245TIP3    H243151   5.546   5.555   2.912  0.0920  0.1854  0.3008
 7246TIP3   OH243152   0.454   5.203   1.632  0.1084  0.2173 -0.1293
 7246TIP3    H143153   0.537   5.239   1.665  0.8029 -1.4730  0.0775
 7246TIP3    H243154   0.448   5.235   1.542 -0.0157  1.9449  0.4459
 7247TIP3   OH243155   0.410   0.383  11.590 -0.1969  0.0383 -0.2848
 7247TIP3    H143156   0.426   0.289  11.579 -0.2817  0.0196 -0.2510
 7247TIP3    H243157   0.480   0.412  11.647 -0.0105  0.0502 -0.5192
 7248TIP3   OH243158   0.943   5.299  13.082 -0.0941  0.0081 -0.3240
 7248TIP3    H143159   1.004   5.242  13.129 -0.7946  0.4314  1.1340
 7248TIP3    H243160   0.857   5.274  13.114 -0.3785  2.3687  0.9640
 7249TIP3   OH243161   3.134   5.533  14.079  0.1951  0.0431 -0.3848
 7249TIP3    H143162   3.118   5.590  14.003 -0.0328  0.0344 -0.3454
 7249TIP3    H243163   3.155   5.447  14.040 -1.0389 -0.2558 -0.4383
 7250TIP3   OH243164   4.778   6.071   3.995  0.1408  0.1822  0.3313
 7250TIP3    H143165   4.746   5.995   4.044  0.8343  0.7655  1.7759
 7250TIP3    H243166   4.857   6.097   4.043 -0.0170  1.7307 -0.2141
 7251TIP3   OH243167   3.979   5.653   3.842  0.2660 -0.3299 -0.1563
 7251TIP3    H143168   3.938   5.695   3.766 -0.0706 -1.8781 -0.8939
 7251TIP3    H243169   3.942   5.698   3.918 -0.2220  0.5408 -0.8871
 7252TIP3   OH243170   3.199   0.190  11.857 -0.1563 -0.2922 -0.1095
 7252TIP3    H143171   3.196   0.094  11.864  1.0131 -0.4423 -1.2269
 7252TIP3    H243172   3.108   0.217  11.854 -0.5098 -1.4886 -0.9619
 7253TIP3   OH243173   0.599   3.686   0.540 -0.1230  0.3143  0.3173
 7253TIP3    H143174   0.575   3.598   0.569 -0.0940 -0.4435 -1.8011
 7253TIP3    H243175   0.692   3.694   0.561  0.0914 -0.5201 -0.2742
 7254TIP3   OH243176   2.548   3.680   6.489 -0.2130 -0.1532 -0.3898
 7254TIP3    H143177   2.611   3.664   6.419 -1.2060 -0.5829 -1.2130
 7254TIP3    H243178   2.493   3.752   6.456 -2.3418 -2.0697 -1.2417
 7255TIP3   OH243179   1.348   0.447  13.335  0.2492 -0.3874 -0.2169
 7255TIP3    H143180   1.435   0.453  13.297  0.5296  1.8608  0.6364
 7255TIP3    H243181   1.289   0.475  13.265  0.6973  2.9643  0.5747
 7256TIP3   OH243182   2.391   4.305  15.807  0.2769  0.4222 -0.0551
 7256TIP3    H143183   2.404   4.286  15.714 -0.5296 -0.8268  0.0653
 7256TIP3    H243184   2.296   4.300  15.820  0.4065  0.2353  0.9082
 7257TIP3   OH243185   3.152   0.233   3.685  0.3144 -0.3837 -0.1304
 7257TIP3    H143186   3.192   0.174   3.621 -2.2330 -0.5622 -1.6751
 7257TIP3    H243187   3.202   0.314   3.676  0.5955 -0.6987 -1.7095
 7258TIP3   OH243188   5.950   1.174  17.316  0.1509  0.4324  0.3588
 7258TIP3    H143189   5.997   1.258  17.314  1.7218 -0.3806  1.1027
 7258TIP3    H243190   5.917   1.163  17.227 -1.8253  2.7343  0.6905
 7259TIP3   OH243191   4.815   1.627   2.302 -0.7030  0.5095 -0.2669
 7259TIP3    H143192   4.746   1.635   2.236  0.6894  2.3861 -1.6126
 7259TIP3    H243193   4.865   1.551   2.273 -1.6307 -0.2909  0.1799
 7260TIP3   OH243194   0.036   2.982   3.238 -0.1818  0.0276 -0.2853
 7260TIP3    H143195  -0.057   2.997   3.227 -0.2401  1.6747  1.8270
 7260TIP3    H243196   0.041   2.896   3.281 -0.8350  0.4838  0.7421
 7261TIP3   OH243197   6.629   2.139   2.442  0.1942 -0.0652  0.9366
 7261TIP3    H143198   6.610   2.221   2.487  0.3694 -0.1728  1.2116
 7261TIP3    H243199   6.547   2.114   2.400 -0.3191 -0.5911  2.2069
 7262TIP3   OH243200   6.359   6.599  16.120  0.1138 -0.0196  0.3786
 7262TIP3    H143201   6.321   6.511  16.112  2.3597 -1.0828  0.6296
 7262TIP3    H243202   6.365   6.614  16.214  2.9898 -1.2040  0.4847
 7263TIP3   OH243203   5.750   1.416  15.065  0.0492  0.1487  0.0164
 7263TIP3    H143204   5.720   1.448  15.150 -0.4467 -0.0689 -0.0720
 7263TIP3    H243205   5.845   1.425  15.068  0.0711 -0.2538  0.7604
 7264TIP3   OH243206   1.989   4.919  11.997 -1.1275 -0.2968  0.2308
 7264TIP3    H143207   2.057   4.852  12.007  0.4685  1.3047  0.5881
 7264TIP3    H243208   1.924   4.898  12.064 -1.3734 -2.2536 -0.5546
 7265TIP3   OH243209   2.781   3.291   1.792  0.2306 -0.3918  0.0283
 7265TIP3    H143210   2.821   3.233   1.857 -1.4418 -0.7155  0.8217
 7265TIP3    H243211   2.779   3.377   1.834  0.4618 -0.2861 -0.1748
 7266TIP3   OH243212   3.596   5.387   5.565  0.2606  0.0645  0.4214
 7266TIP3    H143213   3.523   5.381   5.626  0.5171  1.5232  0.9065
 7266TIP3    H243214   3.670   5.347   5.611  0.0155 -0.4978  0.3302
 7267TIP3   OH243215   2.196   6.203   5.967 -0.0242  0.2043  0.6395
 7267TIP3    H143216   2.286   6.176   5.983  0.3144  1.1537  0.4447
 7267TIP3    H243217   2.177   6.267   6.036 -0.7191 -0.3468  0.9704
 7268TIP3   OH243218   4.856   1.857  11.969 -0.4837  0.5175 -0.4603
 7268TIP3    H143219   4.889   1.819  12.051 -0.2378  2.7937  0.5639
 7268TIP3    H243220   4.935   1.876  11.918 -0.5119  1.0669 -0.3010
 7269TIP3   OH243221   1.878   4.946   1.441  0.2021  0.0247  0.1573
 7269TIP3    H143222   1.812   4.902   1.494 -0.4273  1.5854  0.7176
 7269TIP3    H243223   1.962   4.921   1.480 -0.1233 -0.8099  0.3366
 7270TIP3   OH243224   3.509   1.268   0.120  0.1144 -0.1336  0.0489
 7270TIP3    H143225   3.582   1.268   0.182  1.3150 -1.4793 -1.2770
 7270TIP3    H243226   3.449   1.336   0.153 -0.2284 -1.9633  3.6470
 7271TIP3   OH243227   1.814   3.533  15.023  0.1323  0.1240 -0.2112
 7271TIP3    H143228   1.892   3.550  14.970  0.9264 -0.9134  0.5753
 7271TIP3    H243229   1.741   3.568  14.971  0.9530 -0.2202 -1.6482
 7272TIP3   OH243230   0.812   3.248   5.525 -0.9325  0.5601 -0.5280
 7272TIP3    H143231   0.829   3.164   5.566 -0.8025  0.6740 -0.3478
 7272TIP3    H243232   0.878   3.255   5.455 -1.6497  0.0154 -1.2836
 7273TIP3   OH243233   4.221   0.114   5.953  0.3131  0.2273 -0.6744
 7273TIP3    H143234   4.247   0.169   6.027  1.5604  0.5850 -1.3473
 7273TIP3    H243235   4.146   0.064   5.985  0.2641  1.0361  0.5285
 7274TIP3   OH243236   6.133   6.095  16.361  0.1726  0.4770  0.0234
 7274TIP3    H143237   6.119   6.028  16.428  0.6669  0.7430  0.3980
 7274TIP3    H243238   6.221   6.128  16.378 -0.0574  1.2097 -0.1773
 7275TIP3   OH243239   1.843   4.954  13.618 -0.0260 -0.1647  0.4423
 7275TIP3    H143240   1.864   4.993  13.703  0.1566 -0.7858  0.6804
 7275TIP3    H243241   1.917   4.979  13.562 -0.1914  0.3226  0.4313
 7276TIP3   OH243242   1.114   4.550   4.707  0.1757  0.1449 -0.3207
 7276TIP3    H143243   1.160   4.572   4.626  0.2223  1.7582  0.0938
 7276TIP3    H243244   1.161   4.600   4.774  0.2957 -1.3636  0.7484
 7277TIP3   OH243245   3.519   5.048  11.887 -0.0519 -0.0211 -0.2955
 7277TIP3    H143246   3.428   5.077  11.884 -0.0140  0.1374 -0.0121
 7277TIP3    H243247   3.570   5.128  11.899  0.1739 -0.0456 -1.0886
 7278TIP3   OH243248   3.998   3.325  17.159 -0.0628  0.6122 -0.1870
 7278TIP3    H143249   3.922   3.296  17.210  1.4477 -1.7964  0.8489
 7278TIP3    H243250   3.998   3.268  17.082  0.1962  1.2291 -0.6520
 7279TIP3   OH243251   6.046   2.301   3.287  0.5328  0.0442 -0.2166
 7279TIP3    H143252   6.096   2.223   3.263 -0.0179 -0.3040 -0.2528
 7279TIP3    H243253   5.954   2.272   3.283  0.3393  0.6266  0.0074
 7280TIP3   OH243254   3.558   3.138   1.798 -0.2330  0.2562  0.0356
 7280TIP3    H143255   3.532   3.227   1.819  1.9057  0.9845 -0.2150
 7280TIP3    H243256   3.515   3.120   1.714 -0.1653  1.2919 -0.2355
 7281TIP3   OH243257   5.846   0.504   2.194  0.1117  0.5752  0.7139
 7281TIP3    H143258   5.773   0.508   2.257 -0.3143 -1.1470  0.3785
 7281TIP3    H243259   5.803   0.505   2.108  0.5728  0.9094  0.4836
 7282TIP3   OH243260   5.957   4.917   1.489  0.7925  0.1955  0.2426
 7282TIP3    H143261   6.013   4.942   1.415 -0.4062 -0.5241 -0.9347
 7282TIP3    H243262   5.868   4.931   1.458  0.2645  1.5372  2.1721
 7283TIP3   OH243263   3.587   2.691  15.674  0.5231 -0.1604  0.1950
 7283TIP3    H143264   3.660   2.677  15.614  1.6721  0.0532  1.5029
 7283TIP3    H243265   3.556   2.779  15.655  2.5393  0.9264  1.5801
 7284TIP3   OH243266   1.050   4.423  13.729 -0.1695 -0.1325  0.3106
 7284TIP3    H143267   1.018   4.481  13.660 -0.2669  0.4495  0.8286
 7284TIP3    H243268   1.134   4.391  13.696 -0.1511  0.2484 -0.0251
 7285TIP3   OH243269   3.351   1.363   4.793  0.1259  0.0480 -0.2763
 7285TIP3    H143270   3.378   1.438   4.846  1.6854 -0.4157 -0.3398
 7285TIP3    H243271   3.432   1.314   4.780 -0.8398 -1.6040 -0.3116
 7286TIP3   OH243272   2.596   5.295  14.935 -0.7968 -0.3935  0.1206
 7286TIP3    H143273   2.608   5.269  14.844 -1.5069 -0.1724 -0.0491
 7286TIP3    H243274   2.561   5.384  14.929 -1.1240 -0.4863  0.5940
 7287TIP3   OH243275   0.962   5.363   5.473 -0.2577  0.0251  0.1788
 7287TIP3    H143276   0.938   5.455   5.461 -0.0599 -0.0377 -0.7759
 7287TIP3    H243277   1.033   5.348   5.410 -0.5807 -0.8952  0.0170
 7288TIP3   OH243278   6.221   0.572   0.932  0.1047  0.1858  0.4506
 7288TIP3    H143279   6.280   0.647   0.940  1.0111 -0.5054  0.4228
 7288TIP3    H243280   6.149   0.593   0.992  1.8320 -0.2638  2.8658
 7289TIP3   OH243281   5.340   6.001   1.328  0.2134  0.0892  0.2187
 7289TIP3    H143282   5.348   5.958   1.243  1.4873  0.2709  0.2186
 7289TIP3    H243283   5.428   6.034   1.346 -0.2007  0.6599  1.2910
 7290TIP3   OH243284   6.440   6.360   0.112  0.0314  0.4184  0.0496
 7290TIP3    H143285   6.460   6.442   0.067  0.4386  0.8137  0.9311
 7290TIP3    H243286   6.508   6.300   0.082  0.2742  0.6662  0.0989
 7291TIP3   OH243287   1.473   4.199   2.881  0.0164 -0.3951 -0.0604
 7291TIP3    H143288   1.526   4.238   2.950  1.5174 -0.6537 -1.0313
 7291TIP3    H243289   1.534   4.184   2.809 -1.3322 -0.9265 -1.1378
 7292TIP3   OH243290   1.730   0.413  11.624 -0.2643  0.2757 -0.3955
 7292TIP3    H143291   1.774   0.422  11.539  1.3998  0.9435  0.4798
 7292TIP3    H243292   1.643   0.450  11.610  0.5592  1.9696 -1.4113
 7293TIP3   OH243293   2.792   3.267  12.647  0.3550 -0.1400  0.4708
 7293TIP3    H143294   2.767   3.359  12.643  0.4480 -0.0483  1.6554
 7293TIP3    H243295   2.883   3.267  12.677  0.5173 -0.5982 -0.0066
 7294TIP3   OH243296   0.593   5.719  10.910 -0.5057  0.7112  0.1702
 7294TIP3    H143297   0.530   5.758  10.850 -0.9373 -1.0970 -0.6345
 7294TIP3    H243298   0.540   5.685  10.982 -0.5609 -1.0565 -0.6375
 7295TIP3   OH243299   2.514   4.800  14.845  0.5705 -0.1908  0.3371
 7295TIP3    H143300   2.547   4.771  14.760  2.0862 -0.9920  1.1569
 7295TIP3    H243301   2.587   4.786  14.906 -0.1741  1.1641  1.6286
 7296TIP3   OH243302   2.011   5.460  16.654  0.2201  0.3311  0.0632
 7296TIP3    H143303   1.935   5.505  16.617  1.2751  0.9603 -1.4475
 7296TIP3    H243304   2.014   5.487  16.746 -1.6911 -0.1733  0.3146
 7297TIP3   OH243305   0.318   6.636   3.790  0.7181  0.2628 -0.1253
 7297TIP3    H143306   0.317   6.731   3.802  1.3062  0.5887 -2.2250
 7297TIP3    H243307   0.242   6.618   3.734  0.8125 -0.4414 -0.0299
 7298TIP3   OH243308   2.711   4.273  14.950 -0.1554 -0.1546 -0.0724
 7298TIP3    H143309   2.653   4.224  15.009  0.6643 -1.3473 -0.2263
 7298TIP3    H243310   2.705   4.364  14.981 -0.7737 -0.5424  0.9927
 7299TIP3   OH243311   4.699   3.439   3.376  0.4416  0.1911 -0.2972
 7299TIP3    H143312   4.623   3.397   3.335 -1.0464  2.8874 -0.5665
 7299TIP3    H243313   4.677   3.441   3.470  0.1211  1.0016 -0.3791
 7300TIP3   OH243314   4.960   2.242   5.983 -0.1520 -0.0699 -0.1021
 7300TIP3    H143315   4.930   2.152   5.999 -0.9005  0.5201  2.0806
 7300TIP3    H243316   4.882   2.288   5.952  0.0435  0.0368 -0.4435
 7301TIP3   OH243317   0.971   5.573   4.470  0.2733 -0.8314  0.1338
 7301TIP3    H143318   0.906   5.643   4.481  1.0194 -0.2082  0.7237
 7301TIP3    H243319   0.940   5.523   4.395 -0.7495 -0.3909  0.2475
 7302TIP3   OH243320   2.800   5.438   1.013 -0.0964 -0.5196  0.5310
 7302TIP3    H143321   2.864   5.508   1.001  0.8783 -1.5269 -0.3645
 7302TIP3    H243322   2.715   5.482   1.003  0.4848  0.5426  0.0519
 7303TIP3   OH243323   1.659   3.328   1.821  0.1975  0.6567 -0.2018
 7303TIP3    H143324   1.591   3.267   1.792  1.1755 -0.6232  0.1345
 7303TIP3    H243325   1.612   3.393   1.873 -0.6671 -0.7652  0.8671
 7304TIP3   OH243326   1.927   6.546   1.342  0.1935 -0.1964  0.4349
 7304TIP3    H143327   1.974   6.469   1.308  1.0526 -0.4253  2.0410
 7304TIP3    H243328   1.844   6.511   1.375  0.0667 -0.2330  0.0810
 7305TIP3   OH243329   0.208   4.024  15.831 -0.3994 -0.8763 -0.7601
 7305TIP3    H143330   0.138   3.964  15.858  0.5464 -0.8488  1.9797
 7305TIP3    H243331   0.284   3.968  15.818 -0.3216 -0.6233 -1.4522
 7306TIP3   OH243332   0.614   5.259  12.426  0.2647  0.0573  0.0114
 7306TIP3    H143333   0.706   5.277  12.443  0.3009  1.1242 -1.1747
 7306TIP3    H243334   0.593   5.184  12.482  2.0392 -0.6697 -0.2321
 7307TIP3   OH243335   6.676   0.298   2.646 -0.6319 -0.2375  0.1412
 7307TIP3    H143336   6.721   0.258   2.572  1.1618  0.8754  0.5695
 7307TIP3    H243337   6.651   0.385   2.616  0.7032  0.4806  0.9947
 7308TIP3   OH243338   5.073   3.866  11.649 -0.4047 -0.1600 -0.1335
 7308TIP3    H143339   4.994   3.919  11.659 -0.7972 -0.9177  1.0457
 7308TIP3    H243340   5.091   3.868  11.556 -0.3717  2.0601 -0.1350
 7309TIP3   OH243341   0.464   5.851   1.539 -0.4319  0.2083  0.3046
 7309TIP3    H143342   0.541   5.893   1.500 -1.4840  1.1824 -0.7824
 7309TIP3    H243343   0.421   5.922   1.588 -1.0216 -0.1516  0.3115
 7310TIP3   OH243344   0.273   3.611  15.388 -0.0762  0.1436  0.0761
 7310TIP3    H143345   0.306   3.682  15.332 -0.3479  0.3485  0.1735
 7310TIP3    H243346   0.222   3.556  15.329 -1.0910  0.8401  0.2927
 7311TIP3   OH243347   4.064   0.970  13.250 -0.2772 -0.6068  0.2420
 7311TIP3    H143348   3.988   1.015  13.213  0.1521 -0.4844 -0.5320
 7311TIP3    H243349   4.072   1.003  13.339  0.1686  1.0579 -0.3857
 7312TIP3   OH243350   0.365   4.678  13.423 -0.1282  0.0645  0.2763
 7312TIP3    H143351   0.346   4.585  13.432 -2.4426 -0.0272 -3.4071
 7312TIP3    H243352   0.426   4.682  13.349  0.2684  1.4726  0.6544
 7313TIP3   OH243353   2.228   4.308   5.045 -0.4356  0.5562  0.1527
 7313TIP3    H143354   2.140   4.332   5.074 -1.5787 -2.4459 -0.5239
 7313TIP3    H243355   2.223   4.308   4.949  0.4973  0.9426  0.0925
 7314TIP3   OH243356   0.855   2.593  15.516  0.6433 -0.6955 -0.2671
 7314TIP3    H143357   0.892   2.563  15.433 -0.9031 -2.3812 -0.4012
 7314TIP3    H243358   0.769   2.627  15.493 -0.8011 -3.3253  0.8416
 7315TIP3   OH243359   4.893   2.327  16.252 -0.0075 -0.5185  0.2680
 7315TIP3    H143360   4.866   2.270  16.324  2.8456 -1.0948  1.0101
 7315TIP3    H243361   4.810   2.356  16.213 -1.6392 -1.8238  2.4550
 7316TIP3   OH243362   1.809   1.035   2.752  0.1394  0.1636  0.2404
 7316TIP3    H143363   1.892   1.050   2.797  0.8755  1.5824 -1.4483
 7316TIP3    H243364   1.743   1.040   2.821  1.3420  0.5160  1.4059
 7317TIP3   OH243365   5.794   3.862   1.167 -0.3985  0.3721  0.3574
 7317TIP3    H143366   5.803   3.831   1.077  0.5279 -0.9051  0.8730
 7317TIP3    H243367   5.794   3.783   1.220 -1.9525  1.0338  1.4391
 7318TIP3   OH243368   6.640   0.577  16.347 -0.2793  0.4496  0.1955
 7318TIP3    H143369   6.598   0.662  16.358  1.9667  1.5695  0.6238
 7318TIP3    H243370   6.642   0.562  16.253 -2.8417 -0.3481  0.1839
 7319TIP3   OH243371   6.326   5.530   0.358 -0.3569 -1.2460  0.2999
 7319TIP3    H143372   6.410   5.542   0.314  0.3951 -0.9482  1.7338
 7319TIP3    H243373   6.322   5.600   0.423 -2.0030 -0.8986 -0.1214
 7320TIP3   OH243374   2.642   4.002  12.692  0.0285  0.0136  0.2588
 7320TIP3    H143375   2.585   4.044  12.755  0.6799  1.8238 -0.3034
 7320TIP3    H243376   2.587   3.937  12.649 -1.7630  1.9690 -0.5460
 7321TIP3   OH243377   5.410   0.394  13.466 -0.3132  0.4629 -0.1886
 7321TIP3    H143378   5.505   0.385  13.472 -0.3353  0.5624  0.3561
 7321TIP3    H243379   5.396   0.450  13.390  0.1152  1.2927  0.3214
 7322TIP3   OH243380   6.771   2.025   1.527 -0.5913  0.1830  0.4601
 7322TIP3    H143381   6.728   2.093   1.475 -1.6703  0.4596  1.6594
 7322TIP3    H243382   6.748   2.046   1.618  1.3284 -0.2162  1.0838
 7323TIP3   OH243383   0.721   0.551  14.604  0.0525  0.0148 -0.2768
 7323TIP3    H143384   0.699   0.518  14.691 -0.8069 -0.4173 -0.6438
 7323TIP3    H243385   0.817   0.544  14.599  0.0758 -0.3318  0.4806
 7324TIP3   OH243386   3.283   2.542   3.875  0.3981  0.3075  0.2466
 7324TIP3    H143387   3.358   2.487   3.896  0.3673 -0.5313 -1.6409
 7324TIP3    H243388   3.321   2.622   3.840  0.4155  0.9203  1.6023
 7325TIP3   OH243389   6.122   0.030  16.043  0.2473 -0.1143  0.0382
 7325TIP3    H143390   6.177   0.042  15.966 -0.4330  3.3545 -0.0673
 7325TIP3    H243391   6.181   0.001  16.112  1.4400 -0.2662 -1.0266
 7326TIP3   OH243392   6.122   1.475   0.333 -0.3823  0.7199  0.8110
 7326TIP3    H143393   6.122   1.523   0.416  0.2136  1.4304  0.4193
 7326TIP3    H243394   6.184   1.403   0.346 -0.7806  0.4468  1.1923
 7327TIP3   OH243395   0.709   0.718   3.882 -0.0265  0.0942 -0.1846
 7327TIP3    H143396   0.776   0.709   3.950  1.9185 -0.8315 -2.1179
 7327TIP3    H243397   0.708   0.812   3.863  1.4451  0.0308 -0.7479
 7328TIP3   OH243398   4.369   3.532   5.175 -0.4393 -0.2899  0.2993
 7328TIP3    H143399   4.296   3.586   5.204 -0.2765 -0.4393  1.0166
 7328TIP3    H243400   4.425   3.525   5.252  0.7327  0.4637 -0.4397
 7329TIP3   OH243401   5.567   1.127  17.207 -0.4757  0.4744  0.1763
 7329TIP3    H143402   5.593   1.099  17.295 -1.5927  0.0673  0.4002
 7329TIP3    H243403   5.649   1.152  17.164  0.1655  0.0178  1.1010
 7330TIP3   OH243404   2.543   1.817  12.512  0.0156 -0.3545 -0.4406
 7330TIP3    H143405   2.458   1.773  12.511 -0.4002  0.4210 -0.5887
 7330TIP3    H243406   2.590   1.779  12.586 -0.0924 -1.4628 -0.9328
 7331TIP3   OH243407   5.232   1.380  15.067 -0.4963 -1.0366  0.2132
 7331TIP3    H143408   5.307   1.388  15.126  0.0076 -0.8871 -0.4446
 7331TIP3    H243409   5.223   1.467  15.027 -0.0405 -1.4857 -0.8850
 7332TIP3   OH243410   1.163   3.518   6.274 -0.0532  0.3229 -0.5361
 7332TIP3    H143411   1.252   3.533   6.305 -0.3179  0.2363  0.2916
 7332TIP3    H243412   1.173   3.464   6.195  0.5419 -1.7127  0.8513
 7333TIP3   OH243413   0.537   1.940  15.072  0.4886 -0.4401  0.2503
 7333TIP3    H143414   0.541   1.922  15.166 -0.6646 -2.7469 -0.0781
 7333TIP3    H243415   0.463   1.887  15.040  2.8341 -2.3814 -2.4685
 7334TIP3   OH243416   5.584   3.144  13.588  0.4862  0.5062 -0.2262
 7334TIP3    H143417   5.528   3.129  13.512  0.2336  0.2091  0.0148
 7334TIP3    H243418   5.584   3.061  13.635  0.6312  0.6915  0.1078
 7335TIP3   OH243419   4.809   0.258  16.634 -0.7021  0.0533 -0.6671
 7335TIP3    H143420   4.898   0.223  16.631 -0.7190  0.0598 -1.4316
 7335TIP3    H243421   4.821   0.353  16.634 -0.7126  0.0573 -1.1371
 7336TIP3   OH243422   3.610   2.814  16.531 -0.2217  0.5836  0.5557
 7336TIP3    H143423   3.530   2.786  16.575  0.2437 -0.3464  0.8295
 7336TIP3    H243424   3.672   2.742  16.544  0.4426  0.9893 -0.2470
 7337TIP3   OH243425   3.220   0.716  15.759 -0.6152  0.0292  0.2476
 7337TIP3    H143426   3.285   0.691  15.694 -0.5044  0.5817  0.1367
 7337TIP3    H243427   3.202   0.808  15.740 -2.2319 -0.3747 -0.4193
 7338TIP3   OH243428   1.721   0.782   1.839 -0.1723  0.2128  0.0035
 7338TIP3    H143429   1.691   0.860   1.791  0.3565 -0.5390 -1.6410
 7338TIP3    H243430   1.808   0.806   1.871  1.2482 -0.5562 -2.9443
 7339TIP3   OH243431   6.552   4.640  11.564  0.2984 -0.3462  0.0771
 7339TIP3    H143432   6.618   4.688  11.614  0.8708 -0.9147 -0.1209
 7339TIP3    H243433   6.600   4.569  11.522 -0.3969 -0.6210 -0.2779
 7340TIP3   OH243434   4.183   0.460  14.779 -0.4500 -0.2687 -0.0447
 7340TIP3    H143435   4.255   0.507  14.737 -1.3284  1.0988 -0.1150
 7340TIP3    H243436   4.177   0.498  14.866 -1.8038  0.5179 -0.4345
 7341TIP3   OH243437   3.800   5.907   1.122 -0.0656 -0.5005  0.1978
 7341TIP3    H143438   3.722   5.913   1.067 -0.2198  0.5818  0.5003
 7341TIP3    H243439   3.794   5.822   1.164 -2.1313  0.3170  1.7273
 7342TIP3   OH243440   1.498   1.810  14.555 -0.5181 -0.4367 -0.4073
 7342TIP3    H143441   1.516   1.718  14.577 -0.8559 -0.7467 -1.3760
 7342TIP3    H243442   1.476   1.851  14.638  0.5286 -1.0181  0.1742
 7343TIP3   OH243443   3.397   5.784   2.748  0.5535  0.4655 -0.0505
 7343TIP3    H143444   3.468   5.836   2.786  0.2818  0.9737 -0.2310
 7343TIP3    H243445   3.438   5.735   2.677  0.7610  0.6196 -0.0377
 7344TIP3   OH243446   3.335   0.646  14.673  0.3204 -0.2981  0.5789
 7344TIP3    H143447   3.389   0.605  14.606  1.0751  1.3135  0.1693
 7344TIP3    H243448   3.365   0.608  14.755 -0.5311 -2.1976  0.0632
 7345TIP3   OH243449   0.469   5.908  11.240 -0.3667  0.0855  0.1318
 7345TIP3    H143450   0.437   5.855  11.167  0.0881  2.0695 -1.6254
 7345TIP3    H243451   0.554   5.869  11.262 -0.2196 -0.1949 -0.8597
 7346TIP3   OH243452   1.779   4.966  16.875  0.2024 -0.2836  0.3323
 7346TIP3    H143453   1.754   5.037  16.934 -1.4503 -0.5126 -0.0418
 7346TIP3    H243454   1.701   4.951  16.821  1.0888 -1.2557 -0.7251
 7347TIP3   OH243455   2.035   2.360  12.815  0.4039 -0.6324 -0.3567
 7347TIP3    H143456   2.122   2.321  12.830 -0.2857 -1.7691  1.0222
 7347TIP3    H243457   2.053   2.445  12.776  2.3387  0.5100  2.6480
 7348TIP3   OH243458   2.841   0.447  13.948 -0.0145  0.0587  0.1893
 7348TIP3    H143459   2.928   0.465  13.910  0.0896 -1.8179 -0.5399
 7348TIP3    H243460   2.780   0.484  13.885  0.1646  2.9585  1.5155
 7349TIP3   OH243461   1.332   2.013   3.150  0.5471  0.2525  0.3872
 7349TIP3    H143462   1.317   2.100   3.185 -1.2253  0.7294 -1.3201
 7349TIP3    H243463   1.391   2.026   3.076 -0.2562  0.1372 -0.2913
 7350TIP3   OH243464   0.163   3.447  15.590  0.3270  0.0395 -0.1652
 7350TIP3    H143465   0.161   3.497  15.508  0.2433  0.1101 -0.1198
 7350TIP3    H243466   0.155   3.513  15.658  1.8816  0.1503 -0.0443
 7351TIP3   OH243467   4.668   1.115  15.859  0.2733 -0.1244 -0.1844
 7351TIP3    H143468   4.669   1.044  15.924 -2.0340 -0.4577 -0.4047
 7351TIP3    H243469   4.574   1.132  15.844  0.7280  2.9991 -0.1345
 7352TIP3   OH243470   6.430   4.482   0.900  0.3643  0.2813  0.1043
 7352TIP3    H143471   6.447   4.571   0.932 -1.3092  0.0178  1.8671
 7352TIP3    H243472   6.485   4.426   0.956 -0.5522  0.0213  0.7573
 7353TIP3   OH243473   3.403   2.296   3.654  0.1786  0.0005 -0.0508
 7353TIP3    H143474   3.447   2.359   3.711 -1.5192  1.1589  0.0401
 7353TIP3    H243475   3.398   2.216   3.707  1.4522  0.0680  0.2054
 7354TIP3   OH243476   2.832   4.042  10.861  0.0098  0.2058 -0.0501
 7354TIP3    H143477   2.917   4.005  10.885 -1.1197 -1.8788  0.9279
 7354TIP3    H243478   2.839   4.135  10.886  2.0972  0.1624 -0.3373
 7355TIP3   OH243479   3.815   6.722   0.516  0.3149 -0.3276  0.2382
 7355TIP3    H143480   3.877   6.751   0.449 -0.4235  0.5530 -0.0869
 7355TIP3    H243481   3.729   6.747   0.482  0.0178  1.8629  2.2863
 7356TIP3   OH243482   0.839   1.231  11.686  0.2291 -0.4653  0.7336
 7356TIP3    H143483   0.886   1.256  11.765  0.8411  1.2224 -0.1246
 7356TIP3    H243484   0.835   1.310  11.633 -0.9221 -1.3261 -0.5748
 7357TIP3   OH243485   3.156   6.678  16.310 -0.0135 -0.2427  0.4705
 7357TIP3    H143486   3.188   6.768  16.298 -1.2024 -0.1231 -2.4783
 7357TIP3    H243487   3.084   6.686  16.372  0.2370  0.7284  0.6538
 7358TIP3   OH243488   3.617   2.435   2.428 -0.2235  0.0101 -0.5946
 7358TIP3    H143489   3.609   2.430   2.333  0.9545 -0.3948 -0.6884
 7358TIP3    H243490   3.711   2.448   2.444 -0.2625 -0.8946  0.5279
 7359TIP3   OH243491   3.212   3.238  17.116  0.0294  0.4041 -0.8143
 7359TIP3    H143492   3.178   3.256  17.204  0.3528  1.8795 -0.9637
 7359TIP3    H243493   3.133   3.237  17.060 -0.2036 -0.8023 -0.4877
 7360TIP3   OH243494   0.053   3.588   2.425 -0.1749  0.1781 -0.1064
 7360TIP3    H143495   0.005   3.650   2.481  0.6311  1.0301 -0.3357
 7360TIP3    H243496   0.080   3.518   2.484 -0.2313  0.5492  0.3647
 7361TIP3   OH243497   0.674   1.907  11.500 -0.1991 -0.3266  0.3125
 7361TIP3    H143498   0.657   1.986  11.449  1.4135 -0.8320 -1.0774
 7361TIP3    H243499   0.749   1.930  11.556  0.1899 -0.8190  0.0034
 7362TIP3   OH243500   3.357   1.184   5.166  0.3800  0.6553  0.1446
 7362TIP3    H143501   3.270   1.161   5.198 -0.2848  0.5387 -1.6690
 7362TIP3    H243502   3.389   1.105   5.123  0.6167  1.2639 -0.8109
 7363TIP3   OH243503   0.940   3.735   4.993  0.2190  0.4352  0.1247
 7363TIP3    H143504   0.846   3.738   4.973  0.2725 -1.0188 -0.4675
 7363TIP3    H243505   0.955   3.646   5.024  1.1870  1.0304  1.4778
 7364TIP3   OH243506   2.840   5.669   2.311  0.6495  0.1161  0.2944
 7364TIP3    H143507   2.905   5.715   2.365 -0.4894  0.1281  1.7007
 7364TIP3    H243508   2.817   5.592   2.362  0.3283 -0.4412 -0.6760
 7365TIP3   OH243509   4.580   1.394   4.295  0.2731 -0.2511  0.3754
 7365TIP3    H143510   4.650   1.436   4.245  0.0879 -1.0232 -0.5538
 7365TIP3    H243511   4.500   1.437   4.265  0.2642  0.0820  0.8623
 7366TIP3   OH243512   1.321   0.955  13.174  0.1599 -0.6280 -0.8933
 7366TIP3    H143513   1.366   1.009  13.239  0.0583 -1.2342 -0.3054
 7366TIP3    H243514   1.262   0.900  13.225 -1.2381  0.1210 -1.6428
 7367TIP3   OH243515   4.522   1.259  16.735  0.2694  0.6408 -0.2023
 7367TIP3    H143516   4.462   1.313  16.683  1.4524  2.1620 -0.0684
 7367TIP3    H243517   4.601   1.313  16.743  0.8468 -0.3885  1.4800
 7368TIP3   OH243518   1.924   0.422   0.276 -0.2101  0.3073  0.3612
 7368TIP3    H143519   1.845   0.439   0.328 -0.5708  0.3030 -0.1843
 7368TIP3    H243520   1.993   0.412   0.342 -0.5006  1.1346  0.8229
 7369TIP3   OH243521   5.234   2.843   1.427 -0.0929 -0.6484 -0.5558
 7369TIP3    H143522   5.323   2.816   1.405 -0.2892 -1.3349 -0.5184
 7369TIP3    H243523   5.183   2.762   1.428 -0.5943 -0.3395  0.0155
 7370TIP3   OH243524   2.018   5.725  14.227  0.3348 -0.5564 -0.1904
 7370TIP3    H143525   2.112   5.726  14.244  0.2220 -0.3013  0.4325
 7370TIP3    H243526   2.011   5.732  14.132  0.9348 -0.0290 -0.1997
 7371TIP3   OH243527   0.378   2.613   1.206  0.1527  0.1125  0.3711
 7371TIP3    H143528   0.413   2.698   1.177 -2.3503  1.1828  0.1621
 7371TIP3    H243529   0.400   2.553   1.135  1.9085  0.5796  0.4797
 7372TIP3   OH243530   0.459   2.194  14.560  0.4947  0.0435 -0.5687
 7372TIP3    H143531   0.447   2.187  14.655  0.3202  1.8434 -0.4318
 7372TIP3    H243532   0.515   2.271  14.549  0.2642  0.0306 -1.9522
 7373TIP3   OH243533   1.645   2.415   0.189  0.2866  0.1170  0.0075
 7373TIP3    H143534   1.607   2.490   0.234  2.3635  0.9323  0.5047
 7373TIP3    H243535   1.690   2.365   0.257  3.2257  1.2079 -0.9876
 7374TIP3   OH243536   6.159   3.270   5.067  0.0152  0.5815  0.1904
 7374TIP3    H143537   6.157   3.257   5.162  1.3754  2.7015  0.5541
 7374TIP3    H243538   6.144   3.363   5.055 -0.2338  0.3341 -1.7120
 7375TIP3   OH243539   5.510   0.948   4.574  0.0182  0.4054 -0.0387
 7375TIP3    H143540   5.556   0.996   4.642  1.1336  0.0889 -0.5562
 7375TIP3    H243541   5.490   0.863   4.614 -0.9654  0.8738  0.4968
 7376TIP3   OH243542   4.954   0.374  12.751  0.9483  0.0980  0.2224
 7376TIP3    H143543   4.960   0.402  12.659 -0.0632  0.6862  0.3254
 7376TIP3    H243544   4.918   0.450  12.797 -0.9774 -1.0445  0.6841
 7377TIP3   OH243545   5.599   6.082   1.326  0.1608  0.0049 -0.2518
 7377TIP3    H143546   5.624   6.066   1.235  1.1356 -0.3086  0.0581
 7377TIP3    H243547   5.632   6.005   1.374  0.5368  0.6348  0.5174
 7378TIP3   OH243548   1.023   1.889   3.472  0.2011 -0.0916 -0.2182
 7378TIP3    H143549   1.115   1.891   3.447  0.6270 -0.0081  1.2309
 7378TIP3    H243550   1.003   1.797   3.488  0.5219  0.0456  1.0713
 7379TIP3   OH243551   1.486   0.808  14.070  0.0975 -0.0596  0.3076
 7379TIP3    H143552   1.415   0.843  14.015 -0.1027  2.3443  1.9582
 7379TIP3    H243553   1.441   0.758  14.138  0.1730 -0.6421 -0.0628
 7380TIP3   OH243554   1.046   0.214  11.116 -0.2189  0.8346 -0.0556
 7380TIP3    H143555   1.120   0.175  11.069  0.2910  4.4535 -2.6347
 7380TIP3    H243556   0.972   0.158  11.092  1.0385 -0.8608 -0.2404
 7381TIP3   OH243557   4.732   3.350   5.593  0.5129  0.4434  0.0791
 7381TIP3    H143558   4.746   3.411   5.520  3.2871 -0.3683 -0.1903
 7381TIP3    H243559   4.820   3.322   5.618 -0.5641 -2.9192  0.6595
 7382TIP3   OH243560   2.517   2.355  17.260 -0.1715  0.3635 -0.0694
 7382TIP3    H143561   2.456   2.330  17.329  0.3745  1.4374  0.8282
 7382TIP3    H243562   2.588   2.291  17.265 -0.8994 -0.5237 -0.7146
 7383TIP3   OH243563   4.288   4.075   1.158  1.0083  0.3417 -0.1769
 7383TIP3    H143564   4.271   4.027   1.077  1.3629 -0.3333  0.1396
 7383TIP3    H243565   4.204   4.113   1.181  0.6922 -0.2170 -0.3809
 7384TIP3   OH243566   6.346   0.388  14.637 -0.1153 -0.3072 -0.1783
 7384TIP3    H143567   6.428   0.387  14.687 -0.7354  0.7264  0.9112
 7384TIP3    H243568   6.373   0.402  14.547  0.8982  0.3604  0.2097
 7385TIP3   OH243569   3.017   3.488   3.740  0.0110 -0.2093 -0.3258
 7385TIP3    H143570   3.047   3.559   3.797 -0.7220  0.5890 -0.9068
 7385TIP3    H243571   2.939   3.454   3.783  0.9777 -1.4144  0.5161
 7386TIP3   OH243572   2.751   1.682   3.444 -0.5896  0.5122  0.0033
 7386TIP3    H143573   2.659   1.659   3.448 -0.8699  1.7132  1.3270
 7386TIP3    H243574   2.797   1.598   3.453 -1.5373 -0.0237  0.0057
 7387TIP3   OH243575   2.764   6.566   3.887  0.3512 -0.0748  0.0466
 7387TIP3    H143576   2.676   6.554   3.853  0.6872 -2.4411 -0.1722
 7387TIP3    H243577   2.757   6.640   3.947 -1.5756  0.2889 -0.5553
 7388TIP3   OH243578   5.143   5.023  17.135 -0.2122 -0.2338 -0.5449
 7388TIP3    H143579   5.100   5.103  17.106 -1.7445 -0.7286  0.2753
 7388TIP3    H243580   5.178   5.045  17.222 -0.0604 -0.2709 -0.5947
 7389TIP3   OH243581   2.664   0.555  11.363  0.5103  0.1443  0.3886
 7389TIP3    H143582   2.620   0.574  11.280 -0.6078 -1.3513  0.5956
 7389TIP3    H243583   2.673   0.640  11.406  0.3576  0.8283 -0.8908
 7390TIP3   OH243584   0.635   0.078   3.890  0.3794  0.1673 -0.0405
 7390TIP3    H143585   0.551   0.105   3.852  1.0458  1.7106 -0.4815
 7390TIP3    H243586   0.619   0.078   3.984 -0.4112 -0.6280 -0.1629
 7391TIP3   OH243587   6.107   4.947   3.680  0.6623  0.2498 -0.8830
 7391TIP3    H143588   6.086   4.874   3.622 -2.2341 -1.0310  1.4982
 7391TIP3    H243589   6.040   5.012   3.662 -0.0444 -0.0033  0.6696
 7392TIP3   OH243590   1.422   6.023   5.475 -0.0830  0.1980  0.5290
 7392TIP3    H143591   1.338   6.021   5.522  0.0141 -0.5832  0.6773
 7392TIP3    H243592   1.434   6.116   5.452  1.1809  1.1653  4.3781
 7393TIP3   OH243593   5.176   3.612   6.073 -0.2104 -0.5975  0.4997
 7393TIP3    H143594   5.245   3.546   6.074 -0.7910 -1.2173  1.7692
 7393TIP3    H243595   5.106   3.573   6.022  0.1400 -0.2110 -0.2855
 7394TIP3   OH243596   2.530   2.952  15.880 -0.6064 -0.1114 -0.3926
 7394TIP3    H143597   2.511   2.968  15.972 -0.3049  0.4729 -0.4285
 7394TIP3    H243598   2.559   2.861  15.877 -0.9872 -0.2493  0.0298
 7395TIP3   OH243599   4.852   3.224  17.291 -0.0968 -0.4242  0.7010
 7395TIP3    H143600   4.808   3.230  17.376 -0.0752 -0.4962  0.7170
 7395TIP3    H243601   4.828   3.137  17.259 -2.0959  0.4868 -0.4626
 7396TIP3   OH243602   4.818   6.393   3.061  0.7842 -0.2868  0.0066
 7396TIP3    H143603   4.729   6.377   3.032  1.0893 -0.6505 -0.7607
 7396TIP3    H243604   4.869   6.400   2.980  1.7528 -1.9025  0.4197
 7397TIP3   OH243605   3.171   2.040   4.849 -0.2391 -1.1005 -0.7218
 7397TIP3    H143606   3.219   1.958   4.833  0.9902 -0.4156 -0.7069
 7397TIP3    H243607   3.226   2.087   4.912 -0.5057  0.0805 -1.3591
 7398TIP3   OH243608   2.654   5.202  17.135  0.2353  0.4704 -0.2115
 7398TIP3    H143609   2.728   5.262  17.127  0.1314  0.3877 -2.7204
 7398TIP3    H243610   2.618   5.197  17.046 -1.7645 -0.7877  0.5939
 7399TIP3   OH243611   4.688   2.853   4.425 -0.1215 -0.0965  0.0025
 7399TIP3    H143612   4.715   2.763   4.444  0.1412  0.1210  0.7123
 7399TIP3    H243613   4.732   2.874   4.342  0.2485 -0.4425  0.1056
 7400TIP3   OH243614   4.009   1.647   2.389  0.7938 -0.0137  0.5960
 7400TIP3    H143615   3.964   1.582   2.445 -0.0602 -0.1220 -0.1927
 7400TIP3    H243616   4.013   1.605   2.303  1.3343  0.4996  0.3682
 7401TIP3   OH243617   1.645   4.462   1.555 -0.3755  0.4199 -0.0891
 7401TIP3    H143618   1.622   4.471   1.462  1.6346 -0.2934 -0.7154
 7401TIP3    H243619   1.590   4.391   1.587  0.1683 -0.5460 -1.2261
 7402TIP3   OH243620   2.579   3.706   3.463 -0.2340 -0.0872  0.3716
 7402TIP3    H143621   2.535   3.789   3.447 -1.6645 -0.8692  0.0659
 7402TIP3    H243622   2.648   3.701   3.397 -0.5849  0.5488 -0.0439
 7403TIP3   OH243623   2.143   3.447  12.064  0.2871  0.0925  0.2156
 7403TIP3    H143624   2.103   3.527  12.028  1.2707  0.3124 -0.4371
 7403TIP3    H243625   2.070   3.398  12.101 -1.0195 -0.5972 -2.9176
 7404TIP3   OH243626   2.590   5.575  10.754  0.2828  0.4460  0.4272
 7404TIP3    H143627   2.501   5.608  10.761  0.5535  1.0027  1.5205
 7404TIP3    H243628   2.590   5.520  10.676 -0.9462  0.6406  0.2804
 7405TIP3   OH243629   1.650   5.458   5.404  0.1181 -0.2531  0.1367
 7405TIP3    H143630   1.573   5.500   5.443 -0.2734  1.0249 -1.8491
 7405TIP3    H243631   1.693   5.527   5.355 -0.2890 -1.9372 -2.8967
 7406TIP3   OH243632   1.246   0.191  13.438 -0.2186 -0.1055 -0.4937
 7406TIP3    H143633   1.178   0.191  13.370  0.8446 -1.0187 -1.6089
 7406TIP3    H243634   1.286   0.278  13.431 -2.3337  1.1405  1.3722
 7407TIP3   OH243635   5.489   4.766  11.682 -0.3484  0.3345 -0.4832
 7407TIP3    H143636   5.412   4.723  11.644 -0.7339  1.1678 -0.6818
 7407TIP3    H243637   5.517   4.829  11.615  0.4827  0.0707 -0.3912
 7408TIP3   OH243638   0.139   3.885  16.762  0.1373 -0.8105  0.2172
 7408TIP3    H143639   0.091   3.861  16.842  0.0097 -1.7908 -0.1465
 7408TIP3    H243640   0.142   3.981  16.765 -3.4485 -0.5032 -0.6132
 7409TIP3   OH243641   5.267   3.952  13.711 -0.0778  0.2495  0.1500
 7409TIP3    H143642   5.334   3.888  13.687 -3.2148 -3.1511 -0.4607
 7409TIP3    H243643   5.243   3.930  13.801 -1.4600  0.2681 -0.1816
 7410TIP3   OH243644   5.388   4.430  10.375 -0.0299 -0.5646  0.1234
 7410TIP3    H143645   5.370   4.430  10.469 -0.9104  1.1672  0.0074
 7410TIP3    H243646   5.306   4.402  10.335 -0.5261  1.1602 -0.1778
 7411TIP3   OH243647   6.620   1.527   4.915  0.1872 -0.6986  0.0998
 7411TIP3    H143648   6.704   1.488   4.942  0.4314  0.2331  0.7651
 7411TIP3    H243649   6.583   1.560   4.997 -0.2266  0.0279 -0.3775
 7412TIP3   OH243650   1.921   3.799  17.214 -0.1290  0.2672 -0.3296
 7412TIP3    H143651   1.859   3.740  17.172  0.3413 -1.1711  0.9260
 7412TIP3    H243652   1.908   3.786  17.308  0.3284  1.8131 -0.0219
 7413TIP3   OH243653   0.777   4.667   3.993 -0.0006  0.6206  0.4335
 7413TIP3    H143654   0.818   4.609   4.057 -0.3641  0.0811  0.1866
 7413TIP3    H243655   0.835   4.743   3.988  0.1284  0.5824  1.2619
 7414TIP3   OH243656   5.871   1.431  12.643 -0.1180 -0.4111  0.3367
 7414TIP3    H143657   5.952   1.462  12.602 -1.8263  0.9857 -2.2478
 7414TIP3    H243658   5.858   1.343  12.607  0.2641 -0.6624  0.8043
 7415TIP3   OH243659   3.776   0.970  16.738  0.0124 -0.9416  0.5575
 7415TIP3    H143660   3.698   0.992  16.687  0.5740  0.8795  0.4016
 7415TIP3    H243661   3.781   1.039  16.804  1.6599 -0.8317  0.3582
 7416TIP3   OH243662   0.913   3.290  17.250 -0.2189 -0.5766  0.2116
 7416TIP3    H143663   0.989   3.289  17.192 -0.3046 -0.9603  0.1034
 7416TIP3    H243664   0.946   3.328  17.331  0.2133 -1.1792  0.3261
 7417TIP3   OH243665   6.556   4.745  15.197  0.0934  0.9078 -0.2486
 7417TIP3    H143666   6.495   4.687  15.151 -1.8646  0.6631  2.4067
 7417TIP3    H243667   6.612   4.685  15.247  1.4893  1.1959 -1.4308
 7418TIP3   OH243668   6.354   0.996   1.620  0.1969 -0.0689 -0.7365
 7418TIP3    H143669   6.276   1.047   1.642  0.0185  0.6171 -2.7019
 7418TIP3    H243670   6.345   0.915   1.669 -2.8277 -0.8799 -2.3709
 7419TIP3   OH243671   4.677   6.327   3.467  0.2337  0.0649 -0.1614
 7419TIP3    H143672   4.645   6.362   3.384  1.1947 -0.2757 -0.6947
 7419TIP3    H243673   4.751   6.271   3.442 -0.3123 -1.1264  0.7979
 7420TIP3   OH243674   1.501   6.251   3.879  0.0835  0.4038  0.0834
 7420TIP3    H143675   1.423   6.216   3.836  0.5051  0.8820 -1.1316
 7420TIP3    H243676   1.479   6.343   3.896 -0.3943  0.0139  1.7114
 7421TIP3   OH243677   1.921   5.152  14.211  0.0083  0.2161  0.0389
 7421TIP3    H143678   1.912   5.219  14.278 -1.5298 -0.2444  0.3217
 7421TIP3    H243679   1.959   5.077  14.257 -0.1038  0.2340  0.1601
 7422TIP3   OH243680   2.469   4.223  15.251 -0.5871 -0.2198  0.3528
 7422TIP3    H143681   2.426   4.254  15.330 -1.3755 -2.6669  0.9731
 7422TIP3    H243682   2.563   4.230  15.270 -0.7509  0.8715  0.7944
 7423TIP3   OH243683   5.629   6.100   3.989  0.2669 -0.6164  0.8559
 7423TIP3    H143684   5.638   6.010   3.955 -0.0564  0.0506 -1.1484
 7423TIP3    H243685   5.718   6.136   3.985  0.1131 -0.3123 -0.0086
 7424TIP3   OH243686   1.260   1.522   1.928  0.5309 -0.2688 -0.2504
 7424TIP3    H143687   1.201   1.452   1.956  0.3121 -0.4807 -1.1980
 7424TIP3    H243688   1.286   1.498   1.839  2.4237 -0.4076  0.3023
 7425TIP3   OH243689   3.648   6.194  14.841  0.4108  0.1710  0.0314
 7425TIP3    H143690   3.608   6.278  14.866  2.1587  1.2273 -0.5512
 7425TIP3    H243691   3.597   6.165  14.766  2.0786  2.7234 -2.2868
 7426TIP3   OH243692   1.911   2.877   2.715 -0.0361  0.6371 -0.2780
 7426TIP3    H143693   1.960   2.836   2.787 -1.9193 -0.2468  0.5645
 7426TIP3    H243694   1.925   2.818   2.641  0.6206  0.6987 -0.2120
 7427TIP3   OH243695   4.672   4.820   5.317 -0.5157  0.0903  0.2993
 7427TIP3    H143696   4.685   4.807   5.223 -0.6589 -0.0504  0.3003
 7427TIP3    H243697   4.710   4.743   5.358  1.8676  1.2798  0.5188
 7428TIP3   OH243698   3.239   1.508   4.234 -0.2000  0.7225 -0.0884
 7428TIP3    H143699   3.259   1.502   4.327  0.4009  0.6573 -0.2157
 7428TIP3    H243700   3.168   1.445   4.221  0.0783  0.3364  0.2288
 7429TIP3   OH243701   0.835   3.061   1.356 -0.1232  0.4607  0.4426
 7429TIP3    H143702   0.931   3.055   1.354 -0.1078  0.5348  0.9491
 7429TIP3    H243703   0.817   3.155   1.359 -0.1762  0.4221  1.7907
 7430TIP3   OH243704   5.312   1.274  13.011  0.4857 -0.0740 -0.4771
 7430TIP3    H143705   5.288   1.226  13.090 -1.9609  1.0531 -0.4209
 7430TIP3    H243706   5.406   1.291  13.020  0.1061  1.0521  2.8364
 7431TIP3   OH243707   0.030   3.875  15.948 -0.2569 -0.7205  0.9852
 7431TIP3    H143708  -0.058   3.865  15.913  0.2187 -1.0515 -0.1411
 7431TIP3    H243709   0.056   3.787  15.973  0.9918 -1.2444 -1.7875
 7432TIP3   OH243710   6.185   2.824  15.849 -0.0889  0.1639 -0.2793
 7432TIP3    H143711   6.195   2.898  15.789 -0.5975  0.4768  0.0102
 7432TIP3    H243712   6.269   2.817  15.894 -0.4831  1.4994  0.7451
 7433TIP3   OH243713   4.104   4.380   2.156 -0.0061 -0.6569 -0.4367
 7433TIP3    H143714   4.036   4.430   2.200  0.2017  0.0468 -0.9149
 7433TIP3    H243715   4.175   4.373   2.221 -0.7639 -1.9542  0.3023
 7434TIP3   OH243716   5.633   1.512  11.957  0.3432 -0.5737 -0.0180
 7434TIP3    H143717   5.701   1.450  11.982 -1.0131 -2.0058  0.2871
 7434TIP3    H243718   5.639   1.518  11.862  0.4548 -1.2417 -0.0591
 7435TIP3   OH243719   0.778   4.134   1.432 -0.4400  0.1862  0.4027
 7435TIP3    H143720   0.807   4.045   1.413 -0.2216  0.2269  0.5497
 7435TIP3    H243721   0.799   4.184   1.353 -1.7169 -0.1581 -0.1929
 7436TIP3   OH243722   4.805   3.092   0.470  0.1255 -0.1512  0.3372
 7436TIP3    H143723   4.838   3.180   0.453  0.2109 -0.0891  0.8194
 7436TIP3    H243724   4.788   3.090   0.564 -2.0904  0.1214  0.0185
 7437TIP3   OH243725   1.160   6.671   0.034 -0.2207  0.6036 -0.3227
 7437TIP3    H143726   1.243   6.659   0.080  0.8916  1.5394 -1.9591
 7437TIP3    H243727   1.177   6.743  -0.027 -2.7222  1.9261  0.3869
 7438TIP3   OH243728   1.452   1.863   2.209  0.3655  0.1944 -0.1175
 7438TIP3    H143729   1.536   1.888   2.171 -1.0709  2.1421 -2.2319
 7438TIP3    H243730   1.425   1.940   2.259 -0.5955 -0.0329 -0.2733
 7439TIP3   OH243731   6.094   1.049   2.034  0.4640  0.8025  0.0282
 7439TIP3    H143732   6.121   0.976   2.090 -1.0862 -0.7482 -1.1478
 7439TIP3    H243733   6.027   1.095   2.085  0.4179  0.5403  0.2035
 7440TIP3   OH243734   5.131   5.809  11.912 -0.0054 -0.2204 -0.1059
 7440TIP3    H143735   5.106   5.821  12.003 -0.8471 -0.5343 -0.2859
 7440TIP3    H243736   5.183   5.728  11.912  0.7902  0.2832  0.2286
 7441TIP3   OH243737   3.185   2.629   1.548 -0.7871 -0.3897  0.2783
 7441TIP3    H143738   3.097   2.614   1.583 -1.4423  1.4638 -0.4168
 7441TIP3    H243739   3.187   2.723   1.527  0.7371 -0.7216 -1.3827
 7442TIP3   OH243740   3.011   0.688  17.126  0.1500 -0.9295 -0.4357
 7442TIP3    H143741   3.092   0.712  17.170 -0.5447  1.0150 -0.1119
 7442TIP3    H243742   3.038   0.659  17.039  1.2754 -1.5518  0.1050
 7443TIP3   OH243743   1.787   5.894   0.664 -0.0038  0.3485  0.0260
 7443TIP3    H143744   1.858   5.864   0.720  0.7358  2.7229  0.4780
 7443TIP3    H243745   1.707   5.859   0.704  0.7415 -0.5545  0.7567
 7444TIP3   OH243746   1.337   6.322  15.871 -0.0008  0.5429  0.5332
 7444TIP3    H143747   1.407   6.368  15.917 -0.4241  1.0298  0.7026
 7444TIP3    H243748   1.371   6.234  15.856  0.9238  0.9886 -0.0193
 7445TIP3   OH243749   2.618   2.148  14.085  0.0584 -0.4129 -0.1171
 7445TIP3    H143750   2.553   2.192  14.030  0.8313 -1.4016 -1.9362
 7445TIP3    H243751   2.673   2.219  14.118  1.0299  0.1124 -2.6451
 7446TIP3   OH243752   3.317   0.325  16.924 -0.4402  0.1615 -0.4134
 7446TIP3    H143753   3.245   0.361  16.975  0.0793 -0.4918  0.8262
 7446TIP3    H243754   3.382   0.395  16.920 -1.6419  1.2587 -2.7186
 7447TIP3   OH243755   4.768   4.877   1.739  0.5138  0.0869 -0.0784
 7447TIP3    H143756   4.723   4.796   1.714  2.1410 -0.4047 -1.6235
 7447TIP3    H243757   4.842   4.849   1.792  1.5267  0.4482 -1.2470
 7448TIP3   OH243758   2.141   4.903   1.888 -0.9598 -0.4327 -0.0326
 7448TIP3    H143759   2.066   4.881   1.832 -2.5673 -0.7964  2.1200
 7448TIP3    H243760   2.133   4.997   1.902  0.6956  0.0834 -2.0132
 7449TIP3   OH243761   3.011   2.700   1.244 -0.3714  0.0409 -0.6717
 7449TIP3    H143762   3.038   2.757   1.316 -2.4454  0.7023 -0.3623
 7449TIP3    H243763   3.092   2.660   1.214  0.6086 -0.2419  2.0186
 7450TIP3   OH243764   4.014   3.871  16.710  0.0943 -0.7932  0.5438
 7450TIP3    H143765   4.080   3.860  16.779 -0.0636 -1.0741  0.6493
 7450TIP3    H243766   4.018   3.790  16.659 -1.3092 -1.5305  1.5337
 7451TIP3   OH243767   6.328   6.680   3.088  0.0933  0.3013  0.3955
 7451TIP3    H143768   6.375   6.653   3.166  0.1564  0.4143  0.3966
 7451TIP3    H243769   6.369   6.630   3.017  0.1774  0.3579  0.4042
 7452TIP3   OH243770   2.684   1.426  16.147  0.1342 -0.5632 -0.1307
 7452TIP3    H143771   2.704   1.441  16.239  0.7669  0.7466 -0.4637
 7452TIP3    H243772   2.590   1.409  16.145  0.1643 -0.9170  0.7734
 7453TIP3   OH243773   5.617   5.074   1.646  1.1028  0.1360  0.2910
 7453TIP3    H143774   5.700   5.081   1.600  1.8120  1.5324  1.6945
 7453TIP3    H243775   5.590   5.165   1.662  0.1080 -0.3041  1.2555
 7454TIP3   OH243776   3.000   1.469   2.237 -0.0819  0.2805  0.2287
 7454TIP3    H143777   3.052   1.441   2.162 -1.1037  1.0665 -0.8173
 7454TIP3    H243778   3.027   1.412   2.309  0.7364 -0.6671 -0.8057
 7455TIP3   OH243779   4.461   5.008   3.718  0.1379  0.5375  0.4611
 7455TIP3    H143780   4.536   5.060   3.689 -0.3307  0.9438 -0.0460
 7455TIP3    H243781   4.481   4.986   3.809  0.6151  1.1100  0.5041
 7456TIP3   OH243782   0.886   4.892   5.214 -0.0767  0.3168  1.0690
 7456TIP3    H143783   0.981   4.885   5.208 -0.1406  0.2130 -0.1426
 7456TIP3    H243784   0.864   4.852   5.298  0.8154 -1.2949  0.5917
 7457TIP3   OH243785   1.875   5.060  10.681  0.1042  0.1441 -0.2411
 7457TIP3    H143786   1.829   5.096  10.605 -1.9091 -0.8133  0.4559
 7457TIP3    H243787   1.891   5.136  10.737 -0.4648  0.5220 -0.5811
 7458TIP3   OH243788   5.990   6.010   1.083  0.1957 -0.3776  0.6629
 7458TIP3    H143789   6.009   6.004   1.176 -0.2454  1.6756  0.9239
 7458TIP3    H243790   6.072   6.041   1.044  0.8505 -2.6065  0.0937
 7459TIP3   OH243791   4.026   1.459  17.139 -0.1504  0.1193 -0.1436
 7459TIP3    H143792   4.089   1.465  17.068  0.5260 -5.0998 -0.4317
 7459TIP3    H243793   4.078   1.471  17.219  1.1804 -2.8969 -0.4262
 7460TIP3   OH243794   3.062   3.778   0.377  0.1406 -0.2268  0.0158
 7460TIP3    H143795   2.969   3.761   0.365  0.0181 -0.5939  1.4076
 7460TIP3    H243796   3.065   3.868   0.410  0.3308 -0.0434 -0.4784
 7461TIP3   OH243797   2.132   3.373   2.775  0.2861  0.4763  0.3260
 7461TIP3    H143798   2.196   3.401   2.709 -1.4380  0.0578 -1.6253
 7461TIP3    H243799   2.150   3.280   2.788  0.1181  0.3636 -0.2033
 7462TIP3   OH243800   3.080   1.163   5.671 -0.0165 -0.0426 -0.2628
 7462TIP3    H143801   3.127   1.125   5.746  0.6608  0.7267 -0.2826
 7462TIP3    H243802   3.044   1.087   5.625 -1.9569 -0.4923  1.7781
 7463TIP3   OH243803   0.632   4.036  13.408 -0.2099 -0.0025 -0.1368
 7463TIP3    H143804   0.543   4.068  13.417 -0.2077 -0.4244  2.1530
 7463TIP3    H243805   0.634   3.990  13.325 -2.2413 -0.3295 -0.0368
 7464TIP3   OH243806   2.870   5.361   4.723 -0.0231 -0.4650 -0.8823
 7464TIP3    H143807   2.825   5.280   4.698  0.9692 -1.2625 -0.1607
 7464TIP3    H243808   2.818   5.395   4.796 -0.6609 -0.2319 -1.4323
 7465TIP3   OH243809   3.636   5.939   0.583 -0.3156 -0.2973  0.0067
 7465TIP3    H143810   3.563   6.001   0.581  0.3354  0.4782 -0.3777
 7465TIP3    H243811   3.686   5.964   0.661 -1.1025 -1.6200  0.9894
 7466TIP3   OH243812   1.954   0.036  10.430  0.3027 -0.4549 -0.3337
 7466TIP3    H143813   1.934  -0.046  10.475  1.2416 -0.1321  0.7265
 7466TIP3    H243814   2.043   0.025  10.398  0.4389  0.1490 -0.1753
 7467TIP3   OH243815   6.202   3.175   1.926 -0.1620  0.4443  0.3483
 7467TIP3    H143816   6.186   3.143   1.837 -1.7781  0.4389  0.6213
 7467TIP3    H243817   6.268   3.244   1.914  0.4946 -0.3385 -0.7022
 7468TIP3   OH243818   2.573   4.767  16.744  0.3752 -0.2229  0.1631
 7468TIP3    H143819   2.613   4.701  16.800  0.7604  0.2908  0.5111
 7468TIP3    H243820   2.485   4.779  16.779 -0.1611 -1.4674 -0.6915
 7469TIP3   OH243821   1.912   5.610  17.154 -0.0042  0.3234  0.7737
 7469TIP3    H143822   1.923   5.699  17.186 -1.4669  0.5156  0.8164
 7469TIP3    H243823   1.849   5.570  17.215 -1.4359  0.1203 -0.7625
 7470TIP3   OH243824   2.981   3.102   5.894  0.7257 -0.5253  0.0392
 7470TIP3    H143825   2.970   3.116   5.988  1.9332  0.1634  0.1082
 7470TIP3    H243826   3.039   3.026   5.888 -0.3397 -1.3483 -0.1997
 7471TIP3   OH243827   4.863   5.816   4.822 -0.4416  0.1599  0.3395
 7471TIP3    H143828   4.900   5.867   4.894  2.1970 -1.6903  0.4878
 7471TIP3    H243829   4.940   5.775   4.782 -1.8362  0.8973 -3.4091
 7472TIP3   OH243830   0.234   3.320   1.307  0.0504 -0.7105  0.6112
 7472TIP3    H143831   0.181   3.361   1.375  2.0130 -0.6841  2.1851
 7472TIP3    H243832   0.221   3.226   1.321  1.9240 -0.7669  2.3255
 7473TIP3   OH243833   6.255   3.286  16.499 -0.2824 -0.2577 -0.0688
 7473TIP3    H143834   6.310   3.354  16.462 -0.5680 -0.2851 -0.5525
 7473TIP3    H243835   6.189   3.269  16.432  1.7138 -3.4021 -1.5189
 7474TIP3   OH243836   4.177   4.404   5.239  0.0589 -0.2228  0.2835
 7474TIP3    H143837   4.166   4.421   5.146 -2.1462 -1.6282  0.1935
 7474TIP3    H243838   4.258   4.353   5.245 -0.3136 -1.0293 -1.0244
 7475TIP3   OH243839   5.735   2.198   2.710  0.1299 -0.5312  0.5207
 7475TIP3    H143840   5.714   2.142   2.635 -1.1888 -1.0987  1.2983
 7475TIP3    H243841   5.679   2.275   2.699 -0.4299 -0.8373  1.1767
 7476TIP3   OH243842   6.261   5.028   0.984  0.5464  0.4963  0.9404
 7476TIP3    H143843   6.199   4.987   1.045  0.0431  0.2142  0.2531
 7476TIP3    H243844   6.205   5.072   0.920  1.0417 -0.6486 -0.3021
 7477TIP3   OH243845   0.548   3.018   2.682 -0.2626  0.1529  0.1922
 7477TIP3    H143846   0.638   3.023   2.714  0.2564 -2.9242 -0.5282
 7477TIP3    H243847   0.494   3.031   2.760  0.8518 -0.4641  1.0924
 7478TIP3   OH243848   1.826   3.172  15.803  0.3680  0.0466  0.5874
 7478TIP3    H143849   1.819   3.266  15.820  1.4337  0.9345 -3.0162
 7478TIP3    H243850   1.735   3.142  15.797 -0.0114  1.1789  0.3989
 7479TIP3   OH243851   1.182   5.397  13.269 -0.0759  0.4051 -0.0358
 7479TIP3    H143852   1.104   5.386  13.324 -0.0056  1.7270  0.3710
 7479TIP3    H243853   1.159   5.469  13.210 -0.2142 -1.1071 -1.8864
 7480TIP3   OH243854   5.964   1.048   2.482  0.2928 -0.4005 -0.5838
 7480TIP3    H143855   5.955   1.130   2.434  0.7673 -0.0306 -0.0532
 7480TIP3    H243856   6.054   1.021   2.467 -0.2596 -1.6047 -1.9654
 7481TIP3   OH243857   3.218   3.306  14.585  0.2518 -0.2035  0.0058
 7481TIP3    H143858   3.290   3.318  14.524  1.0153 -1.3943  0.6358
 7481TIP3    H243859   3.143   3.286  14.529  1.0115 -1.6204 -0.5577
 7482TIP3   OH243860   5.608   0.460   2.005 -0.3434  0.3828 -0.0822
 7482TIP3    H143861   5.541   0.458   1.936 -1.5808  0.2002  1.0695
 7482TIP3    H243862   5.576   0.398   2.070  0.4487  1.0310  0.9532
 7483TIP3   OH243863   0.744   1.011   2.265  0.4435 -0.1758  0.0681
 7483TIP3    H143864   0.656   1.047   2.279  0.5619 -0.0421  0.4914
 7483TIP3    H243865   0.791   1.030   2.346  0.4082 -1.6081  0.4543
 7484TIP3   OH243866   1.825   0.818   1.000 -0.1541  0.3362  0.0613
 7484TIP3    H143867   1.858   0.875   1.068  3.2199 -0.6852 -0.5166
 7484TIP3    H243868   1.851   0.730   1.028 -1.9130 -0.5048 -0.8287
 7485TIP3   OH243869   4.676   4.218   0.728 -0.4894 -0.2900 -0.1896
 7485TIP3    H143870   4.633   4.210   0.642 -1.2042  4.2501 -0.5496
 7485TIP3    H243871   4.618   4.173   0.788 -0.9516 -1.9983 -1.8321
 7486TIP3   OH243872   5.315   2.033  15.809 -0.1142  0.2490 -0.5789
 7486TIP3    H143873   5.344   2.057  15.897 -2.1857  0.6777  0.0536
 7486TIP3    H243874   5.254   2.103  15.785  1.0946  0.6373 -2.7688
 7487TIP3   OH243875   3.571   1.276   3.648 -0.2666 -0.4510  0.1448
 7487TIP3    H143876   3.535   1.340   3.588 -2.5227 -1.4242  0.3388
 7487TIP3    H243877   3.608   1.327   3.720  0.6295  0.6518 -1.0596
 7488TIP3   OH243878   0.080   1.340   3.358  0.4100  0.8368  0.2001
 7488TIP3    H143879   0.017   1.402   3.321 -0.2876  1.2448  1.9664
 7488TIP3    H243880   0.027   1.281   3.411  1.3005 -0.1016  0.0729
 7489TIP3   OH243881   0.603   2.165  11.736 -0.2370  0.5085  0.2407
 7489TIP3    H143882   0.643   2.250  11.751 -1.0609  0.8812  0.3816
 7489TIP3    H243883   0.513   2.175  11.766 -0.6463 -0.0968 -0.7288
 7490TIP3   OH243884   0.464   0.116  11.539  0.0789  0.7133  0.4161
 7490TIP3    H143885   0.413   0.036  11.551 -0.4070  0.9734  0.1402
 7490TIP3    H243886   0.555   0.087  11.536 -0.2112 -0.1627 -2.1492
 7491TIP3   OH243887   0.232   5.885   4.451  0.3599 -0.4585  0.2700
 7491TIP3    H143888   0.191   5.864   4.535 -0.4673 -0.2682 -0.0747
 7491TIP3    H243889   0.159   5.896   4.390  0.9659 -2.4785 -0.9457
 7492TIP3   OH243890   1.431   0.132   1.235  0.1832 -0.2714 -0.1402
 7492TIP3    H143891   1.496   0.197   1.209 -0.9903  1.6977  1.5439
 7492TIP3    H243892   1.482   0.059   1.270  1.5203  0.0374 -1.3804
 7493TIP3   OH243893   1.080   4.209  12.715 -0.0117 -0.7794 -0.0418
 7493TIP3    H143894   1.168   4.220  12.677 -0.4504 -0.0262 -0.8831
 7493TIP3    H243895   1.023   4.257  12.656 -1.0232 -1.3921  0.4172
 7494TIP3   OH243896   2.211   1.646  13.994 -0.1914  0.0213  0.3046
 7494TIP3    H143897   2.161   1.573  14.029  2.0490 -0.4000  2.9770
 7494TIP3    H243898   2.212   1.711  14.064 -0.7362  1.9834 -1.3876
 7495TIP3   OH243899   1.556   4.471   1.313 -0.5696  0.0399  0.8097
 7495TIP3    H143900   1.615   4.527   1.262  0.4898 -1.5761  0.1799
 7495TIP3    H243901   1.499   4.430   1.248 -3.2054  2.3326  1.4757
 7496TIP3   OH243902   2.653   3.969  10.674  0.1310  0.0911  0.5731
 7496TIP3    H143903   2.721   3.996  10.737  0.4025 -1.7585  1.1408
 7496TIP3    H243904   2.679   4.010  10.592  1.4525  0.1478  0.9913
 7497TIP3   OH243905   0.826   3.310  11.062 -0.4735  0.2088  0.4139
 7497TIP3    H143906   0.831   3.262  10.979 -0.9710 -0.8331  0.9691
 7497TIP3    H243907   0.898   3.374  11.057 -0.4338  0.0944 -0.7687
 7498TIP3   OH243908   4.640   5.129   5.827  0.6768 -0.2803 -0.1191
 7498TIP3    H143909   4.599   5.147   5.911 -0.7033 -0.3664 -0.7459
 7498TIP3    H243910   4.594   5.053   5.793  1.6126 -0.6087 -0.7007
 7499TIP3   OH243911   5.310   1.700   5.652  0.1783 -0.2148 -0.5788
 7499TIP3    H143912   5.341   1.613   5.677 -0.1143  0.4528  2.3642
 7499TIP3    H243913   5.383   1.758   5.675 -0.2165  0.4969 -1.0997
 7500TIP3   OH243914   0.162   1.486   2.331 -0.1424  0.2808  0.3761
 7500TIP3    H143915   0.095   1.474   2.263 -0.8841  1.1029  0.9324
 7500TIP3    H243916   0.232   1.425   2.307 -1.2299 -0.8476 -0.0494
 7501TIP3   OH243917   0.877   0.286   2.462  0.3637  0.1505  0.3759
 7501TIP3    H143918   0.848   0.211   2.409 -1.9729  0.6376  0.8392
 7501TIP3    H243919   0.808   0.351   2.450  1.1888  1.3388  1.8199
 7502TIP3   OH243920   6.357   2.260  17.302  0.3116  0.5898 -0.5294
 7502TIP3    H143921   6.292   2.197  17.273  0.5537  0.3130 -0.4733
 7502TIP3    H243922   6.321   2.296  17.384  1.2915 -1.2700  0.8013
 7503TIP3   OH243923   4.242   3.291   2.508  0.4388 -0.7407  0.0215
 7503TIP3    H143924   4.260   3.218   2.567  0.5901  2.1465  3.9844
 7503TIP3    H243925   4.298   3.362   2.540 -0.0197  1.3294 -3.2630
 7504TIP3   OH243926   6.471   4.296   4.695 -0.7702  0.0279 -0.2807
 7504TIP3    H143927   6.464   4.373   4.751 -3.2132 -1.8101  2.2212
 7504TIP3    H243928   6.399   4.304   4.633 -0.4882  0.1701 -0.5916
 7505TIP3   OH243929   5.307   0.266   3.994 -0.0408  0.1900  0.2788
 7505TIP3    H143930   5.223   0.225   4.012 -0.0428  0.6200  1.3567
 7505TIP3    H243931   5.332   0.307   4.077  0.9824  0.5133 -0.1665
 7506TIP3   OH243932   4.497   2.763   1.387 -0.4189  0.2050  0.3058
 7506TIP3    H143933   4.420   2.740   1.438  0.1607 -0.6375  0.8126
 7506TIP3    H243934   4.488   2.857   1.371 -1.7698  0.0433 -0.0275
 7507TIP3   OH243935   2.528   0.180  17.006  0.2636  0.5105  0.1980
 7507TIP3    H143936   2.467   0.197  16.934  0.8062  0.9542 -0.1693
 7507TIP3    H243937   2.473   0.178  17.084 -0.6524 -2.1025 -0.4197
 7508TIP3   OH243938   2.920   2.913   0.571  0.1042  0.5644 -0.3409
 7508TIP3    H143939   2.865   2.853   0.621 -0.3540  2.7043  1.9142
 7508TIP3    H243940   3.007   2.902   0.610  0.2185  0.7026 -0.5583
 7509TIP3   OH243941   1.998   5.046   5.815  0.1198 -0.1191 -0.3373
 7509TIP3    H143942   1.972   4.993   5.739 -0.8243  1.7446 -1.3907
 7509TIP3    H243943   1.939   5.122   5.813 -0.9975 -0.7299  3.2158
 7510TIP3   OH243944   0.605   1.052  14.751 -0.5592  0.0499 -0.1391
 7510TIP3    H143945   0.622   1.017  14.839 -1.7527 -1.1717 -0.3541
 7510TIP3    H243946   0.691   1.078  14.718  0.0509 -0.4879  0.9615
 7511TIP3   OH243947   1.199   5.912   4.335  0.8165  0.3785  0.3606
 7511TIP3    H143948   1.108   5.908   4.305  0.9421  1.4836 -0.2138
 7511TIP3    H243949   1.214   6.004   4.355  1.6673  0.1249  0.9273
 7512TIP3   OH243950   5.570   2.927  13.806  0.1876  0.2403  0.0403
 7512TIP3    H143951   5.494   2.878  13.774  0.2764  0.1332 -0.0061
 7512TIP3    H243952   5.533   2.990  13.868 -0.0491  0.7934 -0.6462
 7513TIP3   OH243953   6.044   0.271  13.322 -0.9385  0.1126  0.2677
 7513TIP3    H143954   6.108   0.204  13.301  1.7787  2.3343  0.9432
 7513TIP3    H243955   5.960   0.234  13.295  0.3633 -3.5935  0.8363
 7514TIP3   OH243956   5.863   2.216  11.963 -0.1575  0.3260 -0.1059
 7514TIP3    H143957   5.859   2.304  11.928 -1.4546  0.6766  0.8437
 7514TIP3    H243958   5.845   2.159  11.889  0.0798  0.8789 -0.5950
 7515TIP3   OH243959   1.179   6.078  12.541 -0.3876  0.5275  0.1032
 7515TIP3    H143960   1.253   6.139  12.548  0.3359 -0.5019  2.3501
 7515TIP3    H243961   1.111   6.128  12.496  0.6917  2.5067  0.5541
 7516TIP3   OH243962   1.605   1.284   2.913 -0.0147 -0.4524  0.0061
 7516TIP3    H143963   1.532   1.228   2.886 -0.7123  0.4210  0.0422
 7516TIP3    H243964   1.605   1.355   2.848 -1.7300  1.7179  2.1831
 7517TIP3   OH243965   6.779   1.800  14.544 -0.7254  0.5652 -0.6081
 7517TIP3    H143966   6.806   1.798  14.453  2.0230  2.4279  0.0492
 7517TIP3    H243967   6.764   1.892  14.563 -0.0676  0.3588  1.0949
 7518TIP3   OH243968   0.650   1.752   3.716 -0.1320 -0.3392 -0.2069
 7518TIP3    H143969   0.664   1.832   3.665 -0.5262 -0.5491 -0.6434
 7518TIP3    H243970   0.738   1.729   3.748  0.3732 -1.0049 -1.9708
 7519TIP3   OH243971   4.401   4.356  14.050  0.1141  0.5639  0.3743
 7519TIP3    H143972   4.312   4.353  14.085  0.8009  1.7831  2.4446
 7519TIP3    H243973   4.434   4.266  14.060  0.2954  0.8379  3.2042
 7520TIP3   OH243974   0.564   4.929  16.815  0.4576  0.2592 -0.5104
 7520TIP3    H143975   0.589   4.958  16.903 -0.3368 -0.4961 -0.0211
 7520TIP3    H243976   0.479   4.887  16.827  1.3366 -1.8388 -1.2536
 7521TIP3   OH243977   1.384   3.950  10.606  0.5614 -0.3886 -0.2049
 7521TIP3    H143978   1.306   3.975  10.655  1.2839 -0.1854  0.8694
 7521TIP3    H243979   1.450   3.933  10.673  1.4269 -0.6207 -1.0971
 7522TIP3   OH243980   6.247   4.467   5.592 -0.0848 -0.1814  0.9396
 7522TIP3    H143981   6.271   4.417   5.514 -0.8270 -0.0025  0.5936
 7522TIP3    H243982   6.325   4.462   5.648  0.1521 -1.0168  0.5545
 7523TIP3   OH243983   1.646   3.746  12.922 -0.2034 -0.4195  0.0878
 7523TIP3    H143984   1.718   3.806  12.902 -0.4326  0.1737  0.9958
 7523TIP3    H243985   1.660   3.672  12.863 -0.6674  1.0858 -2.0353
 7524TIP3   OH243986   6.271   0.650  16.887  0.1486 -0.0304 -0.0802
 7524TIP3    H143987   6.215   0.595  16.943 -0.4071  0.3574 -0.2418
 7524TIP3    H243988   6.214   0.675  16.814  0.6359  0.1118 -0.4177
 7525TIP3   OH243989   3.576   4.272  16.345  0.2743  0.1074 -0.1957
 7525TIP3    H143990   3.654   4.290  16.398  0.0702  0.2395  0.0599
 7525TIP3    H243991   3.504   4.271  16.408  0.1218 -0.4254 -0.3716
 7526TIP3   OH243992   6.451   1.022  15.878 -0.1832  0.3196  0.1339
 7526TIP3    H143993   6.362   0.995  15.859  0.5021 -1.9164 -0.2516
 7526TIP3    H243994   6.490   0.946  15.922  1.5989  1.1296  0.0402
 7527TIP3   OH243995   4.847   2.502   3.146  0.4505 -0.1139 -0.1500
 7527TIP3    H143996   4.778   2.563   3.170 -1.2822 -2.2647  0.7073
 7527TIP3    H243997   4.803   2.434   3.095  2.0113 -1.3435  0.0290
 7528TIP3   OH243998   3.934   0.238   1.521 -0.3913  0.3499 -0.0470
 7528TIP3    H143999   3.877   0.211   1.449  0.4917 -0.6018 -0.4247
 7528TIP3    H244000   3.910   0.329   1.539 -0.2861  0.7832 -1.9051
 7529TIP3   OH244001   2.822   1.586   4.045  0.5324 -0.3477  0.3979
 7529TIP3    H144002   2.772   1.640   3.984  0.5858 -0.2172  0.4683
 7529TIP3    H244003   2.876   1.649   4.093  0.9352 -0.5094  0.1648
 7530TIP3   OH244004   0.967   1.623  11.052 -0.4875  0.3176  0.6004
 7530TIP3    H144005   1.032   1.625  11.123  0.9347  2.4193 -0.6485
 7530TIP3    H244006   1.019   1.619  10.972 -1.7115  3.5682 -0.5405
 7531TIP3   OH244007   4.869   5.453  13.371  0.3211 -0.2945 -0.4235
 7531TIP3    H144008   4.777   5.427  13.357  0.1135 -0.3489  0.9793
 7531TIP3    H244009   4.908   5.446  13.284 -0.9560 -0.4651 -1.0123
 7532TIP3   OH244010   3.009   5.426   6.223 -0.2979  0.4114  0.0035
 7532TIP3    H144011   2.914   5.414   6.223 -0.3734  0.9424  0.9053
 7532TIP3    H244012   3.032   5.436   6.316  0.6652  0.0845 -0.1893
 7533TIP3   OH244013   5.518   2.274  11.883 -0.3114 -0.2007  0.2382
 7533TIP3    H144014   5.563   2.308  11.960 -1.6694 -0.6331  1.2496
 7533TIP3    H244015   5.435   2.322  11.880 -0.3287 -0.2558 -0.9098
 7534TIP3   OH244016   2.438   2.060   5.053 -0.6484 -0.1790  0.1318
 7534TIP3    H144017   2.388   1.994   5.101 -2.8235  1.8237  0.8506
 7534TIP3    H244018   2.516   2.074   5.107 -0.8126 -1.1800  0.6594
 7535TIP3   OH244019   0.177   6.640  12.900 -0.0166  0.0200  0.0368
 7535TIP3    H144020   0.198   6.547  12.898  2.1643  0.4215 -2.7807
 7535TIP3    H244021   0.227   6.674  12.973  0.6090 -0.7743 -0.0066
 7536TIP3   OH244022   4.949   1.391   1.170 -0.0748 -0.2553 -0.3937
 7536TIP3    H144023   5.024   1.450   1.174 -0.0781 -0.3134  1.1690
 7536TIP3    H244024   4.949   1.345   1.254 -1.2026 -1.0882 -0.8077
 7537TIP3   OH244025   0.673   0.052  14.904 -0.1370  0.0963  0.7024
 7537TIP3    H144026   0.698   0.142  14.924  0.1122  0.1750  0.0661
 7537TIP3    H244027   0.721   0.031  14.824 -0.2709 -0.5675  0.7910
 7538TIP3   OH244028   1.211   2.519  11.933 -0.7474  0.4795 -1.0739
 7538TIP3    H144029   1.243   2.450  11.875 -2.2361 -1.4979  0.3456
 7538TIP3    H244030   1.278   2.526  12.002 -0.4957  0.6287 -1.3303
 7539TIP3   OH244031   0.026   3.452   1.445 -0.7384  0.0149  0.2692
 7539TIP3    H144032  -0.054   3.429   1.493 -0.5860  0.2505  0.6467
 7539TIP3    H244033   0.096   3.440   1.509 -0.4887 -0.0279 -0.0098
 7540TIP3   OH244034   3.891   4.151   2.159 -0.2702  0.4659  0.2452
 7540TIP3    H144035   3.835   4.217   2.119  1.8094  1.2882 -1.5448
 7540TIP3    H244036   3.977   4.193   2.165  0.2713 -0.7660  2.7513
 7541TIP3   OH244037   3.341   1.466  15.381  0.6057  0.6873  0.0035
 7541TIP3    H144038   3.425   1.484  15.423 -0.2504  0.3521  1.9203
 7541TIP3    H244039   3.338   1.527  15.307  2.9558  0.0102 -0.7280
 7542TIP3   OH244040   0.286   5.139   5.291 -0.3588 -0.3000 -0.5064
 7542TIP3    H144041   0.199   5.178   5.302 -0.6765 -0.8313 -1.0507
 7542TIP3    H244042   0.273   5.071   5.225  0.7175  0.3746 -1.4244
 7543TIP3   OH244043   3.866   1.420  16.750  0.0007  0.0224  0.2030
 7543TIP3    H144044   3.941   1.368  16.722  1.6713  0.5870  3.1954
 7543TIP3    H244045   3.858   1.488  16.684 -1.2153 -2.8731 -2.9203
 7544TIP3   OH244046   0.627   5.273   6.227 -0.3961 -0.6062  0.4243
 7544TIP3    H144047   0.562   5.323   6.277 -1.7602 -0.4377 -1.4141
 7544TIP3    H244048   0.711   5.301   6.263 -1.2774  0.2688  1.9055
 7545TIP3   OH244049   2.283   2.682  16.025 -0.7481  0.6129  0.0614
 7545TIP3    H144050   2.312   2.594  16.002  1.6971  0.8483  1.7200
 7545TIP3    H244051   2.253   2.720  15.943  1.0876 -0.7563 -1.3405
 7546TIP3   OH244052   0.991   1.195  15.468 -0.3430  0.2686  0.0956
 7546TIP3    H144053   0.943   1.158  15.394 -0.3759  1.6021 -0.5860
 7546TIP3    H244054   0.967   1.287  15.468  0.0371  0.3825  1.4908
 7547TIP3   OH244055   4.554   1.439  12.916 -0.2538 -0.1030 -0.0164
 7547TIP3    H144056   4.613   1.481  12.977  2.9521  0.1932 -3.0034
 7547TIP3    H244057   4.475   1.494  12.916  0.5646  1.1605  2.0233
 7548TIP3   OH244058   1.011   0.410  10.898 -0.1226  0.1733  0.1072
 7548TIP3    H144059   0.974   0.323  10.885  0.8509 -0.6170  2.1206
 7548TIP3    H244060   1.084   0.396  10.959  0.5104  2.3051 -0.0795
 7549TIP3   OH244061   1.488   1.086  11.888  0.3647  0.1179 -0.4064
 7549TIP3    H144062   1.530   1.048  11.810  0.5843  0.8517 -0.6526
 7549TIP3    H244063   1.558   1.136  11.931  0.0841  0.2355 -0.0828
 7550TIP3   OH244064   1.995   6.422   0.717  0.1781 -0.2455  0.6609
 7550TIP3    H144065   1.994   6.329   0.739  1.6430 -0.0036  1.9029
 7550TIP3    H244066   2.085   6.439   0.691 -0.6959  0.2565 -2.3762
 7551TIP3   OH244067   0.003   1.329   1.408 -0.0538  0.4180  0.4644
 7551TIP3    H144068  -0.023   1.248   1.452 -1.7320  1.5119  1.6349
 7551TIP3    H244069  -0.013   1.398   1.474  1.0775  1.7236 -0.5694
 7552TIP3   OH244070   3.556   3.873  10.687  0.6063  0.0045  0.6517
 7552TIP3    H144071   3.621   3.805  10.704  0.5515 -0.3629 -0.5059
 7552TIP3    H244072   3.607   3.953  10.674  0.8371 -0.2511 -0.0954
 7553TIP3   OH244073   3.377   5.419   4.651  0.2548 -0.2202  0.3026
 7553TIP3    H144074   3.303   5.404   4.709 -0.1588 -0.3636 -0.2570
 7553TIP3    H244075   3.348   5.387   4.566  0.7700  0.1969 -0.0383
 7554TIP3   OH244076   1.981   5.790  15.098 -0.2604  0.0533  1.0955
 7554TIP3    H144077   2.020   5.853  15.159  0.5148 -0.0425  0.7136
 7554TIP3    H244078   2.043   5.786  15.026 -0.7852 -0.4277  0.6655
 7555TIP3   OH244079   6.751   1.298   4.125 -0.3108 -0.5497  0.1488
 7555TIP3    H144080   6.711   1.283   4.211 -0.3165  1.8199  0.6103
 7555TIP3    H244081   6.845   1.306   4.145 -0.3682  0.5346  0.0444
 7556TIP3   OH244082   2.915   6.447   2.655  0.6067 -0.2450 -0.5721
 7556TIP3    H144083   2.919   6.417   2.746  1.8130  0.1279 -0.4819
 7556TIP3    H244084   2.881   6.372   2.607  0.9658 -0.8204  0.0434
 7557TIP3   OH244085   4.164   2.608   2.461  0.4634  0.3535  0.1809
 7557TIP3    H144086   4.208   2.680   2.415  0.2615 -0.6828 -1.7452
 7557TIP3    H244087   4.235   2.547   2.483  0.4594  0.4791  0.5453
 7558TIP3   OH244088   1.843   2.205  13.325  0.3637  0.2088  0.2640
 7558TIP3    H144089   1.836   2.113  13.300  1.9956  0.3937 -1.0337
 7558TIP3    H244090   1.903   2.204  13.400 -0.2509  0.1522  0.7601
 7559TIP3   OH244091   2.724   2.171  17.212 -0.4486  0.3204  0.7345
 7559TIP3    H144092   2.804   2.222  17.224  1.5324 -1.9475 -1.5507
 7559TIP3    H244093   2.733   2.098  17.273 -0.4763 -0.2411  0.0774
 7560TIP3   OH244094   5.553   0.739   2.095  0.2262 -0.5669 -0.4157
 7560TIP3    H144095   5.527   0.649   2.077 -0.4356 -0.1930 -1.4550
 7560TIP3    H244096   5.537   0.751   2.189  0.0293 -1.4265 -0.3330
 7561TIP3   OH244097   6.173   2.169   5.018 -0.3688  0.3254 -0.1658
 7561TIP3    H144098   6.146   2.078   5.000 -1.1048  0.1070  1.8270
 7561TIP3    H244099   6.091   2.218   5.017 -0.5378  0.2435  2.6109
 7562TIP3   OH244100   2.211   3.389   2.307  0.0156 -0.1005  0.1226
 7562TIP3    H144101   2.149   3.345   2.249 -1.7091  0.1636  1.6524
 7562TIP3    H244102   2.162   3.463   2.342  1.4625  0.5588  0.8243
 7563TIP3   OH244103   2.064   1.925   2.232 -0.4124  0.3363  0.7403
 7563TIP3    H144104   2.140   1.869   2.212 -0.5422 -0.1981  1.6774
 7563TIP3    H244105   2.044   1.969   2.149  0.1395 -0.4721  0.1629
 7564TIP3   OH244106   5.082   5.997  13.127 -0.1129  0.0968 -0.7194
 7564TIP3    H144107   5.031   6.020  13.205  0.7217  0.1430 -0.1758
 7564TIP3    H244108   5.142   5.929  13.157 -0.1927 -0.3168 -1.4734
 7565TIP3   OH244109   1.263   2.745   2.870 -0.1377  0.1189  0.3152
 7565TIP3    H144110   1.303   2.712   2.950  0.6381  0.9153  0.2743
 7565TIP3    H244111   1.214   2.822   2.898  0.8823  0.9466 -0.0816
 7566TIP3   OH244112   4.795   5.521   5.450 -0.4497  0.0342  0.5501
 7566TIP3    H144113   4.770   5.583   5.382  1.7268 -1.2133 -1.5529
 7566TIP3    H244114   4.846   5.573   5.513 -0.6707  0.8184  0.0916
 7567TIP3   OH244115   2.835   4.549   0.259 -0.5668 -0.3137  0.4305
 7567TIP3    H144116   2.765   4.612   0.278 -0.5915 -0.2700  0.2054
 7567TIP3    H244117   2.809   4.469   0.305 -0.1613  0.0625  1.3274
 7568TIP3   OH244118   1.452   3.465   0.158  0.3441 -0.7525 -0.3558
 7568TIP3    H144119   1.530   3.441   0.108  0.7767  0.0238 -0.0695
 7568TIP3    H244120   1.417   3.541   0.112  1.0207  0.2769  0.7650
 7569TIP3   OH244121   3.279   1.291  12.136  0.4109  0.0709 -0.5136
 7569TIP3    H144122   3.293   1.315  12.044 -1.0777  1.6696 -0.3664
 7569TIP3    H244123   3.226   1.362  12.172 -1.1962 -1.7628  0.9383
 7570TIP3   OH244124   5.677   2.421  13.309 -0.8528 -0.1996  0.3522
 7570TIP3    H144125   5.715   2.365  13.376 -0.8480 -0.6481 -0.0158
 7570TIP3    H244126   5.600   2.461  13.351 -1.4395 -1.2567  0.3203
 7571TIP3   OH244127   1.598   3.403  12.122 -0.0204 -0.1764 -0.2763
 7571TIP3    H144128   1.665   3.367  12.180 -0.7617 -0.3395  0.4823
 7571TIP3    H244129   1.528   3.338  12.122  1.1403 -1.6643 -3.6934
 7572TIP3   OH244130   3.017   1.258  16.814  0.0069  0.1572  0.2796
 7572TIP3    H144131   2.976   1.263  16.901 -0.7968 -0.5026 -0.0476
 7572TIP3    H244132   3.044   1.167  16.805  1.4841  0.5580  0.4390
 7573TIP3   OH244133   5.565   0.710   3.668 -0.4601 -0.0592 -0.0554
 7573TIP3    H144134   5.570   0.620   3.699  0.9524 -0.1237 -0.3701
 7573TIP3    H244135   5.572   0.702   3.573 -0.7025  0.3655 -0.1097
 7574TIP3   OH244136   1.278   2.647  14.310  0.5992  0.1554  0.0510
 7574TIP3    H144137   1.279   2.585  14.237 -2.1016  0.8552 -0.6845
 7574TIP3    H244138   1.267   2.593  14.388 -1.5145 -0.4029 -0.5650
 7575TIP3   OH244139   5.849   5.514   1.500  0.2774  0.1593 -0.7815
 7575TIP3    H144140   5.780   5.467   1.452 -0.4602  0.6727 -0.2397
 7575TIP3    H244141   5.927   5.458   1.491 -0.5559 -1.1438 -0.1984
 7576TIP3   OH244142   4.059   2.385  16.867  0.1880  0.4482 -0.5461
 7576TIP3    H144143   4.133   2.371  16.926 -0.6977 -0.4923  0.4000
 7576TIP3    H244144   4.010   2.457  16.908  0.2613  0.6664 -0.8419
 7577TIP3   OH244145   3.482   1.324   3.999  0.5544  0.7203  0.4164
 7577TIP3    H144146   3.460   1.268   3.925  0.3064  1.7713 -0.3412
 7577TIP3    H244147   3.566   1.291   4.030  1.4229  1.1860 -1.3180
 7578TIP3   OH244148   3.113   3.913  13.841  0.4103  0.2787 -0.1320
 7578TIP3    H144149   3.121   3.989  13.899  0.3073  0.7384 -0.6999
 7578TIP3    H244150   3.040   3.936  13.783 -0.8763 -1.0712  0.8830
 7579TIP3   OH244151   3.987   5.543   5.291  0.2625  0.1361  0.6132
 7579TIP3    H144152   3.984   5.638   5.286  0.4377  0.1070 -0.3436
 7579TIP3    H244153   4.012   5.524   5.381 -0.3322  0.9761  0.9730
 7580TIP3   OH244154   2.983   2.333  12.298 -0.2449 -0.1194  0.9336
 7580TIP3    H144155   2.953   2.343  12.208 -0.1294 -2.0693  0.6434
 7580TIP3    H244156   2.989   2.239  12.311 -0.8185  0.0891  3.1776
 7581TIP3   OH244157   2.317   4.393   3.423 -0.3992 -0.2593  0.0254
 7581TIP3    H144158   2.222   4.392   3.427 -0.5441  3.3674  1.4442
 7581TIP3    H244159   2.342   4.476   3.463  3.3904 -0.9708 -0.4455
 7582TIP3   OH244160   2.107   6.450   3.818  0.0919 -0.1752  0.3373
 7582TIP3    H144161   2.141   6.425   3.732  2.0086 -2.2214  1.5771
 7582TIP3    H244162   2.048   6.379   3.842 -1.4376  1.0167  0.2229
 7583TIP3   OH244163   5.997   4.817   2.722 -0.3411 -0.0067 -0.1592
 7583TIP3    H144164   5.922   4.844   2.776  0.5945  1.0551  0.6450
 7583TIP3    H244165   5.958   4.795   2.637 -1.5502  0.7154  0.1807
 7584TIP3   OH244166   2.575   5.038  17.330  0.2312  0.0316  0.1809
 7584TIP3    H144167   2.610   5.093  17.259  1.7056 -0.4255  0.5141
 7584TIP3    H244168   2.644   5.038  17.396 -0.0803 -1.5394  0.5432
 7585TIP3   OH244169   2.611   1.257   6.370  0.3736  0.1656  0.0110
 7585TIP3    H144170   2.673   1.199   6.326  0.1297  0.9507 -1.4247
 7585TIP3    H244171   2.646   1.266   6.459  1.4666 -0.6143 -0.3135
 7586TIP3   OH244172   3.137   3.302  13.458  0.1894 -0.2375  0.0692
 7586TIP3    H144173   3.058   3.341  13.495 -0.2180 -1.0468  0.0616
 7586TIP3    H244174   3.203   3.371  13.465 -0.0768 -0.1076  1.6355
 7587TIP3   OH244175   0.896   3.901   4.633  0.1730  0.8205  0.3234
 7587TIP3    H144176   0.814   3.911   4.682 -1.4399  1.1882 -2.2430
 7587TIP3    H244177   0.903   3.981   4.582  1.7607  0.4503 -0.0788
 7588TIP3   OH244178   0.389   1.965  13.494  0.2645 -0.1710  0.2470
 7588TIP3    H144179   0.359   2.056  13.494  1.0716  0.1201  1.4268
 7588TIP3    H244180   0.342   1.924  13.422  0.2397  1.2966 -0.6096
 7589TIP3   OH244181   5.502   4.746   2.061  0.2251 -0.1877  0.3555
 7589TIP3    H144182   5.502   4.830   2.015  1.5556 -0.1167  0.4658
 7589TIP3    H244183   5.410   4.733   2.087 -0.0562  1.0562  0.0363
 7590TIP3   OH244184   2.132   1.274  12.576  0.2150 -0.2898 -0.1658
 7590TIP3    H144185   2.122   1.306  12.666 -1.4664  3.2959 -1.4285
 7590TIP3    H244186   2.199   1.331  12.538 -0.4725 -0.4722 -1.6967
 7591TIP3   OH244187   5.769   1.414   5.298  0.4508  0.1069 -0.0192
 7591TIP3    H144188   5.793   1.491   5.247 -0.0334 -0.0991 -0.5773
 7591TIP3    H244189   5.725   1.448   5.375  1.0125  0.4178  0.1688
 7592TIP3   OH244190   0.101   3.301  16.740  0.5232  0.3239  0.3833
 7592TIP3    H144191   0.086   3.381  16.790  0.0850  0.6698 -0.2843
 7592TIP3    H244192   0.116   3.331  16.650  0.4758 -0.3347  0.1452
 7593TIP3   OH244193   1.491   3.912   2.604  0.4079 -0.5767 -0.1372
 7593TIP3    H144194   1.561   3.886   2.544  0.3499 -0.5856 -0.2001
 7593TIP3    H244195   1.494   3.846   2.674  1.4223  0.2294  0.6197
 7594TIP3   OH244196   6.678   4.068  10.474 -0.7122  0.1896  0.6413
 7594TIP3    H144197   6.607   4.131  10.467 -0.1276  0.7300 -0.8201
 7594TIP3    H244198   6.697   4.043  10.383  1.0681  0.2068  0.9749
 7595TIP3   OH244199   3.477   4.966  16.776 -0.1558 -0.5829 -0.0387
 7595TIP3    H144200   3.430   4.992  16.855 -0.0303  1.1866 -0.5064
 7595TIP3    H244201   3.449   5.028  16.709  1.0115 -1.0005 -0.9546
 7596TIP3   OH244202   2.667   6.359  15.586 -0.2274 -0.0147 -0.0041
 7596TIP3    H144203   2.684   6.275  15.544 -0.3812  0.6618 -1.4639
 7596TIP3    H244204   2.700   6.424  15.525 -3.6177  1.1629 -0.8051
 7597TIP3   OH244205   2.163   5.937   3.314 -0.0515  0.0447  0.4222
 7597TIP3    H144206   2.174   5.871   3.383  0.6749  0.3471  0.6077
 7597TIP3    H244207   2.100   5.898   3.254  0.3131 -0.7907  0.5681
 7598TIP3   OH244208   2.754   2.165   4.017 -0.2656 -0.4028 -0.8066
 7598TIP3    H144209   2.678   2.176   4.073  0.4150  0.6409 -0.0571
 7598TIP3    H244210   2.741   2.226   3.945  1.3891  2.3823  1.0549
 7599TIP3   OH244211   5.886   3.676  15.713 -0.5525  0.4625  0.3067
 7599TIP3    H144212   5.916   3.585  15.715 -0.3271  0.5445  1.0315
 7599TIP3    H244213   5.812   3.677  15.773 -0.6634  0.7232  0.1633
 7600TIP3   OH244214   0.662   5.699   0.990  0.2876  0.2294  0.2403
 7600TIP3    H144215   0.574   5.729   0.969  0.5541 -0.3659 -2.0930
 7600TIP3    H244216   0.677   5.727   1.080 -2.3278  0.1833  0.7600
 7601TIP3   OH244217   0.082   3.200  11.789 -0.5817 -0.4715 -0.8339
 7601TIP3    H144218   0.016   3.170  11.851  1.4081  0.1131  1.7510
 7601TIP3    H244219   0.134   3.122  11.770  0.3123 -0.1792  0.2872
 7602TIP3   OH244220   1.955   3.897  16.061  0.3763  0.0288 -0.3520
 7602TIP3    H144221   1.871   3.852  16.062  0.0133  0.6985  0.4930
 7602TIP3    H244222   1.990   3.886  16.150 -0.1447  2.1299  0.1754
 7603TIP3   OH244223   4.904   5.235  16.805  0.4173  0.5792  0.1790
 7603TIP3    H144224   4.912   5.219  16.711  0.3296 -1.3492  0.4584
 7603TIP3    H244225   4.957   5.313  16.821  1.5233  0.1578 -1.2475
 7604TIP3   OH244226   6.102   5.095  15.822  0.3740  0.5365 -0.2457
 7604TIP3    H144227   6.164   5.158  15.783  0.4873 -0.1629 -1.2432
 7604TIP3    H244228   6.038   5.150  15.867  0.5195  1.3764 -1.0241
 7605TIP3   OH244229   6.343   4.721  17.193  0.3259 -0.1064  0.2382
 7605TIP3    H144230   6.308   4.632  17.199  1.0344 -0.4509 -0.4652
 7605TIP3    H244231   6.286   4.764  17.129 -0.7939  0.3501  1.5103
 7606TIP3   OH244232   2.509   6.563  15.346 -0.2212 -0.3011  0.3723
 7606TIP3    H144233   2.514   6.537  15.254 -0.9181  1.8535 -0.3356
 7606TIP3    H244234   2.425   6.530  15.376 -0.4438 -0.1338 -0.0643
 7607TIP3   OH244235   6.739   5.256   1.092  0.2905 -0.4219  0.2593
 7607TIP3    H144236   6.802   5.193   1.057  1.9413 -0.9062  3.6632
 7607TIP3    H244237   6.767   5.340   1.057  2.2180 -0.7853  0.8207
 7608TIP3   OH244238   6.687   4.828   4.536  0.2822 -0.2294 -0.4390
 7608TIP3    H144239   6.689   4.869   4.449 -0.6285  0.3910 -0.1869
 7608TIP3    H244240   6.778   4.831   4.566  0.6756 -0.7900 -1.5121
 7609TIP3   OH244241   1.535   4.930  15.656  0.4093  0.5172  0.4104
 7609TIP3    H144242   1.560   5.016  15.622  1.8793  0.0335  0.1974
 7609TIP3    H244243   1.613   4.897  15.700  0.0021 -0.8821  0.1451
 7610TIP3   OH244244   2.030   6.386   2.829 -0.7949  0.0557 -0.0621
 7610TIP3    H144245   2.093   6.430   2.773 -1.2911  1.2343  0.2828
 7610TIP3    H244246   2.069   6.299   2.845 -0.0492  0.1751 -1.1547
 7611TIP3   OH244247   4.246   4.011  16.530  0.0972  0.1355  0.0180
 7611TIP3    H144248   4.340   4.005  16.544  0.4145  1.5887 -1.1994
 7611TIP3    H244249   4.217   4.079  16.591 -0.0965 -0.0522  0.1338
 7612TIP3   OH244250   6.120   2.917   6.361 -0.0104 -0.1125 -0.3804
 7612TIP3    H144251   6.048   2.978   6.348 -0.1058 -0.1451 -0.0194
 7612TIP3    H244252   6.170   2.954   6.434  0.1130 -0.2962 -0.3709
 7613TIP3   OH244253   3.768   2.184   1.812  0.6222  0.2762  0.0107
 7613TIP3    H144254   3.730   2.264   1.847 -0.5357 -0.3451  0.2108
 7613TIP3    H244255   3.714   2.161   1.737  1.7124  0.3553 -0.8319
 7614TIP3   OH244256   3.502   6.021  12.131 -0.7296 -0.3072  0.1655
 7614TIP3    H144257   3.457   6.031  12.215  0.3370  0.4681  0.6681
 7614TIP3    H244258   3.547   5.937  12.137  0.2698  0.2554  0.8450
 7615TIP3   OH244259   0.511   2.548   5.884 -0.0530 -0.1717 -0.3219
 7615TIP3    H144260   0.513   2.620   5.946  2.2266  0.1351 -0.6567
 7615TIP3    H244261   0.464   2.582   5.808 -0.4046  0.3937  0.1473
 7616TIP3   OH244262   3.877   2.179   0.738  0.2413 -0.1302  0.0578
 7616TIP3    H144263   3.872   2.214   0.827 -1.9142  0.3005 -0.1781
 7616TIP3    H244264   3.832   2.095   0.742 -1.3339  0.6113 -0.8989
 7617TIP3   OH244265   3.508   6.246   6.757 -0.2188  0.0681  0.3630
 7617TIP3    H144266   3.575   6.298   6.801 -0.5082  0.9175 -0.1795
 7617TIP3    H244267   3.488   6.295   6.677 -0.7908 -0.6696  0.0440
 7618TIP3   OH244268   2.313   5.326  15.089  0.1776  0.1919 -0.3714
 7618TIP3    H144269   2.249   5.255  15.087  0.7299 -0.3062 -0.6125
 7618TIP3    H244270   2.312   5.362  15.000  0.7229 -0.2631 -0.5645
 7619TIP3   OH244271   3.432   1.220  13.889 -0.3281  0.1049 -0.2809
 7619TIP3    H144272   3.423   1.243  13.797 -1.2778  0.5586 -0.0936
 7619TIP3    H244273   3.524   1.194  13.899  0.5751  2.7038 -0.7908
 7620TIP3   OH244274   4.730   1.494   1.884  0.0933  0.7187  0.0667
 7620TIP3    H144275   4.781   1.413   1.888  0.3172  0.8843  0.8532
 7620TIP3    H244276   4.796   1.563   1.886 -0.0926  0.9193 -0.7460
 7621TIP3   OH244277   0.517   6.207  14.661 -0.5069  0.5451  0.0883
 7621TIP3    H144278   0.457   6.161  14.602  0.2671 -1.8709  1.0461
 7621TIP3    H244279   0.462   6.235  14.734 -0.4619 -2.4805  1.4227
 7622TIP3   OH244280   5.783   0.860   1.084 -0.2600  0.0597 -0.5122
 7622TIP3    H144281   5.774   0.938   1.139 -2.2565 -0.9778  0.7617
 7622TIP3    H244282   5.718   0.873   1.015 -0.2163 -0.2286 -0.6077
 7623TIP3   OH244283   2.905   4.804   5.938 -0.1338  0.0503 -0.5272
 7623TIP3    H144284   2.833   4.859   5.969  1.0044  0.3610  1.7364
 7623TIP3    H244285   2.912   4.826   5.845 -0.5632  2.8086 -0.0064
 7624TIP3   OH244286   3.291   4.090   2.590 -0.2731  0.1290  1.1285
 7624TIP3    H144287   3.274   4.081   2.497  0.3323 -2.7723  1.2053
 7624TIP3    H244288   3.324   4.005   2.617 -0.0733  0.9860  3.9416
 7625TIP3   OH244289   0.035   4.017   5.315  0.0402 -0.2936  0.8871
 7625TIP3    H144290   0.086   4.073   5.373 -0.4053 -0.2400  1.2310
 7625TIP3    H244291   0.088   4.010   5.236  1.4818 -1.7550  1.9134
 7626TIP3   OH244292   6.223   4.023   0.165 -0.1592 -0.2209 -0.3021
 7626TIP3    H144293   6.178   3.949   0.206  0.2520 -0.0150  0.5479
 7626TIP3    H244294   6.157   4.092   0.160  0.1121  0.2093  1.2826
 7627TIP3   OH244295   0.946   4.536   6.099 -0.2291 -0.3864 -0.3772
 7627TIP3    H144296   1.020   4.523   6.159 -0.6388  0.0837  0.2351
 7627TIP3    H244297   0.917   4.626   6.116  0.0256 -0.0403 -1.7074
 7628TIP3   OH244298   3.388   3.558   6.291  0.2862  0.1024 -0.0799
 7628TIP3    H144299   3.455   3.516   6.238  0.5250  0.6705 -0.2400
 7628TIP3    H244300   3.322   3.490   6.305  1.3430 -0.7608  0.8998
 7629TIP3   OH244301   5.402   1.864   2.489 -0.2999 -0.4442 -0.3518
 7629TIP3    H144302   5.356   1.814   2.421 -0.2649  0.2535 -0.8951
 7629TIP3    H244303   5.451   1.798   2.538 -2.2236 -1.2925  0.5454
 7630TIP3   OH244304   0.841   6.731   1.646  0.0045 -0.2477 -0.0214
 7630TIP3    H144305   0.813   6.640   1.636 -1.0892  0.1633 -0.8429
 7630TIP3    H244306   0.801   6.760   1.728 -0.4206 -0.2276 -0.2354
 7631TIP3   OH244307   3.897   2.941  15.216  0.7832  0.0449 -0.4023
 7631TIP3    H144308   3.930   2.925  15.304  1.6421  1.4819 -0.4251
 7631TIP3    H244309   3.872   3.034  15.217 -0.8182 -0.3515 -1.1771
 7632TIP3   OH244310   6.550   3.546  14.216 -0.1959  0.3239  0.1306
 7632TIP3    H144311   6.582   3.619  14.163 -0.5515  1.1410  0.9949
 7632TIP3    H244312   6.625   3.487  14.225 -0.6559 -0.8885 -2.9361
 7633TIP3   OH244313   5.237   1.022  16.629 -0.2646  0.4393 -0.3847
 7633TIP3    H144314   5.149   0.995  16.658 -0.6701  0.0180 -1.9553
 7633TIP3    H244315   5.283   0.940  16.611  0.0586  0.6871 -0.7014
 7634TIP3   OH244316   4.599   3.905  11.782  0.8149  0.2507 -0.6504
 7634TIP3    H144317   4.535   3.835  11.767  1.3729  0.0123 -2.0298
 7634TIP3    H244318   4.569   3.976  11.726  0.8655  0.7375 -0.0704
 7635TIP3   OH244319   1.792   1.088  13.801 -0.1467 -0.3431 -0.4193
 7635TIP3    H144320   1.842   1.168  13.788 -1.1550  0.3447 -0.1605
 7635TIP3    H244321   1.788   1.048  13.714 -2.5101  1.6445 -1.3456
 7636TIP3   OH244322   2.536   1.494  13.066 -0.5311  0.5661  0.7864
 7636TIP3    H144323   2.472   1.479  12.997  0.0184  0.7873  0.2204
 7636TIP3    H244324   2.621   1.490  13.022 -0.1972  1.3921  1.3214
 7637TIP3   OH244325   4.245   0.681   1.011 -0.1040 -0.4598 -0.0276
 7637TIP3    H144326   4.278   0.594   1.032  0.7266 -0.2313 -0.3262
 7637TIP3    H244327   4.324   0.735   1.004 -0.6077  0.3183  0.1676
 7638TIP3   OH244328   4.142   2.874   5.993 -0.1400 -0.0570 -0.3176
 7638TIP3    H144329   4.176   2.962   6.013 -1.7178  0.2810  1.1054
 7638TIP3    H244330   4.175   2.820   6.065 -0.3092 -0.3390 -0.4553
 7639TIP3   OH244331   5.960   4.106  12.985 -0.5295  0.7210 -0.2760
 7639TIP3    H144332   6.015   4.076  13.057 -1.3341 -1.8694 -0.6486
 7639TIP3    H244333   6.021   4.125  12.914  0.1998  2.4772  0.7536
 7640TIP3   OH244334   1.565   0.864  17.080 -0.3180 -0.7620 -0.0579
 7640TIP3    H144335   1.555   0.798  17.011  1.9063  0.0067 -1.1927
 7640TIP3    H244336   1.643   0.838  17.128  0.3706  0.8002 -0.2717
 7641TIP3   OH244337   2.646   6.556   6.254  0.4491 -0.1179 -0.5521
 7641TIP3    H144338   2.575   6.568   6.317  0.2186  1.2039 -1.0310
 7641TIP3    H244339   2.717   6.518   6.305 -0.2275 -0.4239  0.1809
 7642TIP3   OH244340   0.188   0.187  12.521 -0.0596 -0.4717  0.0677
 7642TIP3    H144341   0.165   0.102  12.559  0.7689 -0.5414  0.4348
 7642TIP3    H244342   0.209   0.168  12.430 -0.8061 -0.5076 -0.1003
 7643TIP3   OH244343   5.782   5.218   4.251  0.1443  0.2379 -0.1387
 7643TIP3    H144344   5.692   5.201   4.222 -0.4149  1.1204  0.9979
 7643TIP3    H244345   5.788   5.314   4.253  1.0375  0.1792  0.0214
 7644TIP3   OH244346   2.437   5.792  16.072 -0.0912  0.1946  0.3584
 7644TIP3    H144347   2.442   5.855  16.000 -2.2357 -0.7835 -0.7466
 7644TIP3    H244348   2.461   5.709  16.032  1.0420 -0.0088  1.3979
 7645TIP3   OH244349   0.159   5.291   0.791 -0.3384  0.1491  0.3349
 7645TIP3    H144350   0.237   5.255   0.748 -1.3687  0.2288 -1.7298
 7645TIP3    H244351   0.131   5.221   0.851  0.5195 -0.4469  0.0643
 7646TIP3   OH244352   5.603   3.818   4.162 -0.4333  0.3758 -0.4965
 7646TIP3    H144353   5.570   3.877   4.094  0.2281  1.2926 -0.0609
 7646TIP3    H244354   5.531   3.812   4.225 -0.7838  0.1034 -0.9196
 7647TIP3   OH244355   2.992   3.821  15.249 -0.2812 -0.5772  0.8506
 7647TIP3    H144356   2.930   3.774  15.193 -0.5997  0.0837  0.6479
 7647TIP3    H244357   3.076   3.778  15.233  0.1928  1.2169 -2.1085
 7648TIP3   OH244358   6.093   2.731  15.154 -0.1055 -0.0621 -0.4188
 7648TIP3    H144359   6.173   2.768  15.192 -0.2469 -1.1892  1.1128
 7648TIP3    H244360   6.089   2.766  15.065  0.5750  2.2805  0.4060
 7649TIP3   OH244361   1.424   4.210  13.041 -0.5151  0.3054 -0.6291
 7649TIP3    H144362   1.445   4.257  12.960 -1.3580  1.0362 -0.4458
 7649TIP3    H244363   1.329   4.208  13.043 -0.5087 -1.3235 -0.5460
 7650TIP3   OH244364   4.236   1.542  14.100  0.0225 -0.1955  0.1544
 7650TIP3    H144365   4.140   1.548  14.103  0.0079 -0.7807  1.0410
 7650TIP3    H244366   4.261   1.506  14.185  0.9261 -1.4692 -0.6176
 7651TIP3   OH244367   5.975   2.117  11.528  0.5576  0.3795 -0.3503
 7651TIP3    H144368   6.062   2.121  11.490 -0.6390  2.1372 -3.2448
 7651TIP3    H244369   5.980   2.171  11.607  1.6576  1.9575 -1.4661
 7652TIP3   OH244370   2.242   3.925  14.224 -1.0975  0.3327 -0.6333
 7652TIP3    H144371   2.219   3.895  14.312 -1.7868  0.7780 -0.6535
 7652TIP3    H244372   2.237   4.020  14.230 -0.6585  0.3788 -1.0252
 7653TIP3   OH244373   4.804   2.259   5.643 -0.8532  0.6289 -0.1049
 7653TIP3    H144374   4.768   2.344   5.617 -1.0187  0.5055 -0.2794
 7653TIP3    H244375   4.735   2.220   5.697 -0.0562  1.3759  1.5150
 7654TIP3   OH244376   1.722   1.467   1.020  0.1156  0.0245  0.5837
 7654TIP3    H144377   1.710   1.373   1.039  2.5986 -0.6721 -0.8883
 7654TIP3    H244378   1.735   1.470   0.925 -0.2109  1.9427  0.5707
 7655TIP3   OH244379   3.624   2.860  11.127 -0.1001  0.1783  0.1577
 7655TIP3    H144380   3.581   2.799  11.067 -1.5376 -0.1071  1.4214
 7655TIP3    H244381   3.663   2.927  11.070 -0.8756 -0.4177 -1.1028
 7656TIP3   OH244382   4.923   4.104   1.689 -0.1797  0.2294 -0.0782
 7656TIP3    H144383   4.870   4.172   1.647 -2.4037 -1.4983 -0.2607
 7656TIP3    H244384   4.902   4.111   1.782  0.2386  0.3085  0.0134
 7657TIP3   OH244385   1.149   0.338   3.025 -0.1416  0.2002  0.2822
 7657TIP3    H144386   1.133   0.377   2.939 -1.1729 -1.1184 -0.1665
 7657TIP3    H244387   1.202   0.260   3.006  1.3701  0.9819  1.0874
 7658TIP3   OH244388   6.363   0.097   2.311  0.2957  0.4948 -0.3430
 7658TIP3    H144389   6.408   0.125   2.391 -0.9035  0.9056  0.2146
 7658TIP3    H244390   6.329   0.178   2.273 -1.5373  0.0452  0.2376
 7659TIP3   OH244391   0.786   5.557  16.770  0.3009  0.2747 -0.4490
 7659TIP3    H144392   0.833   5.510  16.839 -2.5711 -1.0837  0.7563
 7659TIP3    H244393   0.753   5.636  16.813 -3.3617 -1.6014  0.6374
 7660TIP3   OH244394   5.143   2.900  13.255 -0.4852 -1.1510 -0.4371
 7660TIP3    H144395   5.098   2.982  13.271  1.3611 -0.4901  1.8168
 7660TIP3    H244396   5.127   2.882  13.162 -2.0658  0.9904 -0.6548
 7661TIP3   OH244397   6.073   0.717  11.787  0.1232  0.1228 -0.7371
 7661TIP3    H144398   6.166   0.733  11.803 -0.1910  0.4224  0.9754
 7661TIP3    H244399   6.029   0.754  11.864 -1.4109 -0.0674 -1.4929
 7662TIP3   OH244400   1.756   0.860  16.592 -0.0958 -0.8715  0.0983
 7662TIP3    H144401   1.800   0.935  16.632  0.7786 -1.0565 -0.4835
 7662TIP3    H244402   1.700   0.898  16.525  0.0103 -0.7012  0.1038
 7663TIP3   OH244403   3.025   1.374   2.699  0.4072  0.5064  0.0806
 7663TIP3    H144404   3.063   1.355   2.784  1.1469  2.0622  0.1374
 7663TIP3    H244405   2.934   1.343   2.705  0.4493  0.6244  1.4419
 7664TIP3   OH244406   2.220   6.261  17.060  0.0864  0.2725 -0.1166
 7664TIP3    H144407   2.156   6.320  17.020  1.7136  1.8406 -0.5416
 7664TIP3    H244408   2.234   6.193  16.994 -0.4182  0.4825 -0.4450
 7665TIP3   OH244409   5.058   1.882   5.357 -0.2980  0.0773 -0.5260
 7665TIP3    H144410   5.068   1.859   5.450  0.0878  0.1967 -0.5350
 7665TIP3    H244411   5.014   1.806   5.318 -0.7593  0.1664 -0.1831
 7666TIP3   OH244412   5.854   3.704   0.910 -0.6250 -0.0256 -0.3390
 7666TIP3    H144413   5.836   3.666   0.824 -0.2047 -1.1072  0.0319
 7666TIP3    H244414   5.938   3.747   0.900  0.1871 -1.4811 -0.0941
 7667TIP3   OH244415   1.306   6.625  12.792 -0.2255 -0.4377 -0.0464
 7667TIP3    H144416   1.297   6.636  12.697  0.4755 -1.2998 -0.2200
 7667TIP3    H244417   1.221   6.592  12.820 -0.3479 -0.4483 -0.4219
 7668TIP3   OH244418   6.760   3.735   0.360 -0.0091 -0.0700 -0.3897
 7668TIP3    H144419   6.671   3.765   0.381  0.1336 -0.0060  0.1344
 7668TIP3    H244420   6.801   3.721   0.446 -0.2527 -2.3185 -0.5793
 7669TIP3   OH244421   3.207   0.400   4.242 -0.1610  0.1503  0.0952
 7669TIP3    H144422   3.126   0.430   4.202 -1.8427 -2.1718  1.5273
 7669TIP3    H244423   3.220   0.311   4.209  2.3800  0.7686 -0.8266
 7670TIP3   OH244424   5.766   0.789  13.826 -0.5410 -0.2446 -0.3052
 7670TIP3    H144425   5.764   0.763  13.918  0.0315 -0.4233 -0.3405
 7670TIP3    H244426   5.816   0.720  13.783 -0.2309  0.1907 -0.6397
 7671TIP3   OH244427   4.337   1.482   2.526  0.6231  0.2630  0.3471
 7671TIP3    H144428   4.386   1.560   2.497 -1.1876  1.8412  1.2823
 7671TIP3    H244429   4.272   1.469   2.457 -0.5301  1.0191  1.2502
 7672TIP3   OH244430   6.735   5.077  12.869  0.2113  0.9004 -0.2773
 7672TIP3    H144431   6.661   5.130  12.839  0.6859  1.4399 -0.5105
 7672TIP3    H244432   6.709   4.987  12.849 -1.4200  0.8194  1.8405
 7673TIP3   OH244433   5.595   6.556   5.795  0.7548  0.0563  0.0146
 7673TIP3    H144434   5.561   6.487   5.738  1.0701  0.7249 -0.9908
 7673TIP3    H244435   5.523   6.574   5.856 -0.6328  1.2118 -1.8471
 7674TIP3   OH244436   5.812   4.635   0.409  0.5726  0.0079  0.3189
 7674TIP3    H144437   5.805   4.581   0.331  0.2044  1.4300 -0.6721
 7674TIP3    H244438   5.876   4.590   0.464  0.4796 -1.2632 -0.5770
 7675TIP3   OH244439   4.448   4.636  15.408 -0.5003 -0.4262  0.1919
 7675TIP3    H144440   4.533   4.613  15.446  0.1946 -0.4100 -1.2698
 7675TIP3    H244441   4.418   4.712  15.457  1.5391  1.1470 -0.8564
 7676TIP3   OH244442   4.963   6.085   0.365  0.4993  0.0041 -0.0214
 7676TIP3    H144443   4.896   6.111   0.428 -0.5914 -2.2714 -0.1436
 7676TIP3    H244444   5.042   6.073   0.418 -0.2429 -1.2549  0.8618
 7677TIP3   OH244445   6.303   4.822   3.131 -0.2876  0.2100  0.4408
 7677TIP3    H144446   6.255   4.852   3.053  1.7296 -0.3591 -1.1162
 7677TIP3    H244447   6.241   4.765   3.176 -1.4489  0.3341 -0.8986
 7678TIP3   OH244448   0.195   4.029   2.483 -0.0111  0.2539  0.1605
 7678TIP3    H144449   0.241   3.956   2.442 -1.0007  0.0426 -0.6193
 7678TIP3    H244450   0.212   4.019   2.576  0.8951 -0.2432 -0.0456
 7679TIP3   OH244451   6.540   3.739  12.219  0.0058 -0.5127 -0.4407
 7679TIP3    H144452   6.547   3.794  12.141  0.3591  0.6459  0.3884
 7679TIP3    H244453   6.589   3.786  12.286 -1.9929 -0.4606  1.0595
 7680TIP3   OH244454   3.719   5.431   2.637 -0.3532 -0.1994  0.2218
 7680TIP3    H144455   3.811   5.419   2.615  0.4124  1.2437  2.2883
 7680TIP3    H244456   3.684   5.483   2.564  0.6329 -0.2129 -0.2867
 7681TIP3   OH244457   2.055   4.993  13.416  0.3505 -0.5854 -0.4463
 7681TIP3    H144458   2.099   5.052  13.477  0.5531 -1.1484 -0.0340
 7681TIP3    H244459   2.094   5.013  13.331  0.2209  0.0569 -0.3561
 7682TIP3   OH244460   1.869   0.505   4.010  0.3957  0.1587  0.0882
 7682TIP3    H144461   1.808   0.553   3.954  0.3671  1.0627  0.8715
 7682TIP3    H244462   1.952   0.507   3.963  0.2165  0.3423 -0.2214
 7683TIP3   OH244463   2.887   6.617  16.729 -0.1616 -0.0018 -0.4999
 7683TIP3    H144464   2.873   6.527  16.758  1.6855  0.4108  2.0525
 7683TIP3    H244465   2.805   6.662  16.749  0.3401 -0.2192  2.4374
 7684TIP3   OH244466   1.651   1.191   1.513 -0.0067 -0.0394 -0.0258
 7684TIP3    H144467   1.702   1.232   1.583 -1.3291 -0.1271  1.0433
 7684TIP3    H244468   1.589   1.258   1.485 -2.0858 -1.1262  1.6335
 7685TIP3   OH244469   0.943   3.310  16.886  0.0298 -0.5518 -0.1962
 7685TIP3    H144470   0.967   3.365  16.961  1.1256  0.4219 -1.2231
 7685TIP3    H244471   0.947   3.220  16.920  2.5368 -0.2669  0.4225
 7686TIP3   OH244472   1.988   1.995   3.769  0.3135 -0.2088 -0.1449
 7686TIP3    H144473   1.999   2.049   3.692 -0.7085  1.5459  0.8660
 7686TIP3    H244474   1.934   2.048   3.828  1.2033 -1.3944  1.8543
 7687TIP3   OH244475   0.227   4.771   5.353 -0.1589  0.0494 -0.3089
 7687TIP3    H144476   0.174   4.700   5.317 -0.8773  0.5537 -0.2504
 7687TIP3    H244477   0.229   4.837   5.284  1.0372 -0.2752 -0.6119
 7688TIP3   OH244478   5.305   3.468  12.212  0.1245  0.9645 -0.1463
 7688TIP3    H144479   5.221   3.432  12.239  0.3757 -0.3049 -0.9547
 7688TIP3    H244480   5.283   3.544  12.157 -0.4945  0.6452 -0.3464
 7689TIP3   OH244481   5.071   1.507   2.782  0.3110  0.2995  0.5046
 7689TIP3    H144482   4.983   1.517   2.746  0.4143  1.3078  0.5201
 7689TIP3    H244483   5.068   1.551   2.866  0.3786 -1.1097  1.2797
 7690TIP3   OH244484   0.125   5.430   5.239  0.0902 -0.1799  0.0597
 7690TIP3    H144485   0.052   5.434   5.177  1.4902  2.4115 -1.5858
 7690TIP3    H244486   0.185   5.499   5.210  0.7774  1.3534  4.3801
 7691TIP3   OH244487   3.434   0.634   5.335  0.3326  0.3339 -0.2354
 7691TIP3    H144488   3.428   0.582   5.415 -1.8133  0.0176 -0.5277
 7691TIP3    H244489   3.527   0.634   5.313  1.0762  0.9492  2.5578
 7692TIP3   OH244490   3.978   2.511   6.447  0.4476 -0.4313 -0.2085
 7692TIP3    H144491   3.935   2.446   6.503 -0.3966  0.3075  0.0227
 7692TIP3    H244492   4.058   2.468   6.417 -0.0396 -1.5369  0.0283
 7693TIP3   OH244493   5.402   1.746  14.478 -0.7521 -0.3032  0.0720
 7693TIP3    H144494   5.319   1.790  14.459 -0.5241 -0.1507 -0.6047
 7693TIP3    H244495   5.465   1.818  14.491 -0.8773 -0.4024  1.3548
 7694TIP3   OH244496   4.054   3.119   1.341 -0.6560 -0.3581  0.8073
 7694TIP3    H144497   4.046   3.170   1.421 -2.7986 -0.3963  0.7008
 7694TIP3    H244498   4.147   3.100   1.333  0.1697  2.8806  1.2455
 7695TIP3   OH244499   2.032   1.645   0.015 -0.4985 -0.1824 -0.2236
 7695TIP3    H144500   1.990   1.574   0.064  0.3304 -1.2142 -0.9810
 7695TIP3    H244501   1.966   1.715   0.013 -0.5611 -0.0676  2.3573
 7696TIP3   OH244502   3.226   1.289  16.639  0.2171 -0.2847 -0.3303
 7696TIP3    H144503   3.139   1.293  16.680 -0.9146  0.0786 -2.6172
 7696TIP3    H244504   3.286   1.285  16.713 -1.6816  0.3551  1.3696
 7697TIP3   OH244505   5.837   5.017   5.012 -0.4422 -0.1573 -0.1687
 7697TIP3    H144506   5.910   4.960   5.039  0.3321  1.4025  1.2409
 7697TIP3    H244507   5.767   4.997   5.074 -0.3788 -0.0302 -0.0537
 7698TIP3   OH244508   6.340   3.139  14.047  0.1477  0.2244  0.0957
 7698TIP3    H144509   6.392   3.119  14.125 -1.6731 -2.3579  0.7663
 7698TIP3    H244510   6.353   3.233  14.033  1.8350  0.4387  2.5200
 7699TIP3   OH244511   1.270   3.919   5.791  0.0882  0.0694 -0.0870
 7699TIP3    H144512   1.272   3.844   5.731 -0.6834 -0.2370  0.2686
 7699TIP3    H244513   1.199   3.974   5.757  0.1159  0.2403  0.1359
 7700TIP3   OH244514   3.314   4.884   4.564  0.2951 -0.3003  0.2483
 7700TIP3    H144515   3.284   4.810   4.616  0.5851 -0.3889  0.2954
 7700TIP3    H244516   3.409   4.883   4.575  0.4338 -0.7023 -0.7781
 7701TIP3   OH244517   2.197   5.491  16.063  0.0973 -0.2420  0.4679
 7701TIP3    H144518   2.215   5.571  16.014  0.5980 -0.3804  0.4196
 7701TIP3    H244519   2.215   5.515  16.154 -0.3613 -0.1229  0.5305
 7702TIP3   OH244520   5.428   1.557  11.311 -0.0105 -0.2866  0.5919
 7702TIP3    H144521   5.370   1.632  11.294  2.0269  0.9756 -1.1508
 7702TIP3    H244522   5.401   1.491  11.247  0.8724  0.5426 -0.6550
 7703TIP3   OH244523   6.345   3.167  11.970  0.6368 -0.1178  0.0722
 7703TIP3    H144524   6.389   3.247  11.999  0.3138  0.1524 -0.1819
 7703TIP3    H244525   6.260   3.196  11.937  0.1627 -0.6701  0.7758
 7704TIP3   OH244526   3.168   0.403   1.068  0.3332 -0.1213  0.0710
 7704TIP3    H144527   3.108   0.376   1.137  0.4311 -0.5688 -0.0167
 7704TIP3    H244528   3.184   0.323   1.018  0.0365  0.2640 -0.6436
 7705TIP3   OH244529   2.780   6.580   3.042 -0.0011  0.7379  0.3838
 7705TIP3    H144530   2.742   6.496   3.015  0.5314  0.8392 -0.7557
 7705TIP3    H244531   2.704   6.638   3.053 -0.2445  0.9154 -1.7863
 7706TIP3   OH244532   4.383   5.482   5.672  0.0846  0.1958  0.2695
 7706TIP3    H144533   4.435   5.413   5.631 -0.7450 -0.5212  0.4027
 7706TIP3    H244534   4.296   5.473   5.634 -0.1903  0.7914  0.7319
 7707TIP3   OH244535   3.234   4.112   2.944  0.2156 -0.0762 -0.4442
 7707TIP3    H144536   3.145   4.082   2.959 -0.1685  1.0756 -0.3460
 7707TIP3    H244537   3.271   4.047   2.884 -1.3348  0.4917 -2.0895
 7708TIP3   OH244538   3.239   3.013   6.324  0.3705 -0.2863 -0.3574
 7708TIP3    H144539   3.210   2.953   6.255  2.0250 -0.0159 -1.3513
 7708TIP3    H244540   3.189   2.987   6.401  0.5215 -2.5062 -0.9394
 7709TIP3   OH244541   2.566   5.203   3.616  0.0878 -0.0778 -0.3821
 7709TIP3    H144542   2.499   5.166   3.674  0.3115 -0.3951 -0.3231
 7709TIP3    H244543   2.608   5.271   3.667 -0.5549  0.5022 -0.6051
 7710TIP3   OH244544   0.454   3.743  14.833  0.3982 -0.5703  0.0721
 7710TIP3    H144545   0.547   3.742  14.810  0.6143 -0.9400  0.9048
 7710TIP3    H244546   0.442   3.824  14.883  0.3534 -0.6964  0.2671
 7711TIP3   OH244547   1.851   0.298   2.374  0.6733 -0.1655  0.4339
 7711TIP3    H144548   1.898   0.259   2.300 -0.0150  0.9121 -0.5949
 7711TIP3    H244549   1.779   0.237   2.391 -1.6363  1.5173 -2.4999
 7712TIP3   OH244550   0.233   6.173   1.335  0.0539 -0.3495  0.1164
 7712TIP3    H144551   0.266   6.122   1.262 -0.2235  1.6999 -1.5461
 7712TIP3    H244552   0.309   6.186   1.392  0.4383 -1.3776 -0.1440
 7713TIP3   OH244553   5.381   3.938   3.344 -0.0193  0.0154 -0.7056
 7713TIP3    H144554   5.451   3.884   3.305  0.4701  1.1698 -1.4694
 7713TIP3    H244555   5.410   4.028   3.330 -0.2688  0.5040  1.5488
 7714TIP3   OH244556   0.199   1.403  14.601  0.1565  0.7934 -0.0816
 7714TIP3    H144557   0.204   1.393  14.697 -2.8153 -2.3145 -0.0421
 7714TIP3    H244558   0.127   1.464  14.587 -0.5559 -0.0656 -0.2682
 7715TIP3   OH244559   0.761   4.914  13.636 -0.1144 -0.0330  0.7356
 7715TIP3    H144560   0.703   4.978  13.677  2.0371  1.0508  2.3349
 7715TIP3    H244561   0.750   4.835  13.688 -0.1338  0.1780  1.0571
 7716TIP3   OH244562   4.386   1.289  11.412 -0.1160  0.1223 -0.3611
 7716TIP3    H144563   4.419   1.231  11.343 -0.1690 -0.5369  0.1544
 7716TIP3    H244564   4.334   1.231  11.468 -2.7117  1.1991 -1.4725
 7717TIP3   OH244565   5.441   1.544   6.327  0.1499  0.5268 -0.3035
 7717TIP3    H144566   5.359   1.495   6.316 -0.2738  0.2059  3.2873
 7717TIP3    H244567   5.423   1.628   6.285 -1.2483 -0.2510 -1.3876
 7718TIP3   OH244568   3.428   5.788   0.369  0.1942  0.3188  0.3047
 7718TIP3    H144569   3.504   5.783   0.427  0.8461 -0.1021 -0.5605
 7718TIP3    H244570   3.387   5.702   0.377  0.4278  0.1721 -0.0308
 7719TIP3   OH244571   0.185   2.054  16.795  0.3826  0.2084 -0.8758
 7719TIP3    H144572   0.270   2.025  16.829 -0.9255 -1.2615  1.3837
 7719TIP3    H244573   0.149   1.977  16.751 -0.7048  0.1073  0.1531
 7720TIP3   OH244574   0.623   0.894   0.456  0.2706 -0.0533 -0.3287
 7720TIP3    H144575   0.706   0.865   0.418  0.1367 -0.1495 -0.5481
 7720TIP3    H244576   0.637   0.888   0.551 -0.0100 -1.5569 -0.3724
 7721TIP3   OH244577   0.122   5.325  14.877 -0.4494  0.6545  0.0963
 7721TIP3    H144578   0.164   5.323  14.962 -0.5239 -0.1293  0.1136
 7721TIP3    H244579   0.038   5.369  14.893  0.0846  1.6890  0.1666
 7722TIP3   OH244580   6.444   0.649  14.765  0.1203  0.1686  0.2884
 7722TIP3    H144581   6.416   0.693  14.684  0.1042 -1.2668 -0.5133
 7722TIP3    H244582   6.372   0.664  14.826 -1.1046 -0.9524 -0.8108
 7723TIP3   OH244583   6.272   0.661  13.785  0.0322 -0.2044 -0.4043
 7723TIP3    H144584   6.310   0.610  13.714  1.2120  0.0022  0.0533
 7723TIP3    H244585   6.273   0.602  13.860  0.0885  0.0287 -0.2188
 7724TIP3   OH244586   3.795   5.294  11.408 -0.3513 -0.1847  0.2876
 7724TIP3    H144587   3.826   5.224  11.465  0.8312  0.3785  0.3488
 7724TIP3    H244588   3.707   5.313  11.440  0.3206  0.1882  1.9874
 7725TIP3   OH244589   5.129   2.986   1.791 -0.0008 -0.4810  0.1452
 7725TIP3    H144590   5.094   3.071   1.817  2.2373  0.2490  0.9951
 7725TIP3    H244591   5.111   2.929   1.865 -0.3365 -0.4084  0.1218
 7726TIP3   OH244592   2.903   1.189  11.528 -0.0267  0.2592  0.6009
 7726TIP3    H144593   2.886   1.276  11.564  0.5047 -0.2588  2.1475
 7726TIP3    H244594   2.820   1.164  11.486 -1.3363  0.1574  3.0353
 7727TIP3   OH244595   2.480   6.108  16.493 -0.2954 -0.1992  0.0228
 7727TIP3    H144596   2.542   6.064  16.551 -1.4736 -1.8243  0.1275
 7727TIP3    H244597   2.516   6.195  16.481  1.4919 -0.7763  0.8528
 7728TIP3   OH244598   1.016   2.253  12.133 -0.2880  0.2161  0.4746
 7728TIP3    H144599   1.101   2.212  12.120 -0.2243  0.3100  0.5943
 7728TIP3    H244600   0.987   2.222  12.219 -0.3582  0.2138  0.4500
 7729TIP3   OH244601   0.610   3.240  15.023 -0.5405  0.2783  0.5485
 7729TIP3    H144602   0.663   3.161  15.031  1.1375  1.1247 -1.3727
 7729TIP3    H244603   0.537   3.214  14.967 -1.7603 -0.6575  2.4738
 7730TIP3   OH244604   5.544   5.142  16.886 -0.1319 -0.1148 -0.5102
 7730TIP3    H144605   5.491   5.219  16.904  1.4787  0.4057  2.6751
 7730TIP3    H244606   5.495   5.070  16.927 -0.5496 -0.4347 -1.5466
 7731TIP3   OH244607   0.316   4.450   2.115  0.4479 -0.0810 -0.1879
 7731TIP3    H144608   0.378   4.455   2.188  0.0384  1.4052  0.0982
 7731TIP3    H244609   0.360   4.495   2.043  0.6426 -1.0942 -0.7170
 7732TIP3   OH244610   6.401   2.721   1.697  0.5791 -0.2192  0.1106
 7732TIP3    H144611   6.333   2.781   1.728  1.3837  0.5297  0.4428
 7732TIP3    H244612   6.375   2.701   1.607 -0.7483 -0.9330  0.6171
 7733TIP3   OH244613   0.299   0.275   3.498  0.5208 -0.0313  0.5151
 7733TIP3    H144614   0.204   0.283   3.497  0.4872 -0.4484 -0.1293
 7733TIP3    H244615   0.329   0.348   3.553 -0.0829  1.2260 -0.7575
 7734TIP3   OH244616   0.922   6.209   2.576 -0.0728 -0.1086 -0.2141
 7734TIP3    H144617   0.872   6.264   2.637 -1.0549 -0.1647 -0.9399
 7734TIP3    H244618   0.893   6.238   2.489  1.9529  0.5890 -0.7147
 7735TIP3   OH244619   6.542   6.236   5.763  0.0189 -0.0317 -0.4116
 7735TIP3    H144620   6.581   6.154   5.733 -0.5201 -0.0686 -1.0343
 7735TIP3    H244621   6.518   6.220   5.854  2.7341  0.4533  0.4697
 7736TIP3   OH244622   4.438   2.741  15.813  1.1295  0.5969 -0.3330
 7736TIP3    H144623   4.529   2.721  15.835  0.5466  0.3382  2.2056
 7736TIP3    H244624   4.417   2.818  15.866 -0.4833 -0.1403  0.1724
 7737TIP3   OH244625   6.551   5.949  16.574 -0.5941  0.7432 -0.4090
 7737TIP3    H144626   6.644   5.954  16.597 -0.5978 -0.8381  0.1033
 7737TIP3    H244627   6.551   5.944  16.478 -0.0836 -0.0233 -0.3806
 7738TIP3   OH244628   2.171   2.488   2.981 -0.9824 -0.4267 -0.5222
 7738TIP3    H144629   2.228   2.412   2.978 -0.4880 -0.0444 -3.3806
 7738TIP3    H244630   2.192   2.538   2.902 -1.4108  2.6224  1.0973
 7739TIP3   OH244631   3.889   1.555  14.697 -0.2498  0.1370 -0.5888
 7739TIP3    H144632   3.921   1.553  14.787 -0.6929 -0.0300 -0.4339
 7739TIP3    H244633   3.822   1.624  14.697  0.6645  1.0568 -1.1042
 7740TIP3   OH244634   1.469   1.851  16.481  0.1760 -0.1947 -0.0304
 7740TIP3    H144635   1.476   1.853  16.385 -0.0742 -0.2332 -0.0505
 7740TIP3    H244636   1.494   1.940  16.508  0.1942 -0.1668 -0.1363
 7741TIP3   OH244637   6.263   3.721   1.173 -0.0172 -0.4785 -0.1257
 7741TIP3    H144638   6.284   3.790   1.235  2.8913 -1.3306 -0.0096
 7741TIP3    H244639   6.233   3.767   1.095 -0.0072  0.7931  0.5952
 7742TIP3   OH244640   5.413   0.258  14.616 -0.1344  0.0656 -0.8607
 7742TIP3    H144641   5.341   0.200  14.595  1.1350 -1.1044 -2.2134
 7742TIP3    H244642   5.390   0.341  14.576 -1.4029  0.1694  0.0389
 7743TIP3   OH244643   2.431   5.323   4.302 -0.2714 -0.8643 -0.3267
 7743TIP3    H144644   2.336   5.309   4.312 -0.7816  1.3286 -1.3724
 7743TIP3    H244645   2.440   5.418   4.291  2.0838 -1.0081 -0.1276
 7744TIP3   OH244646   0.097   4.146  12.292  0.1772  0.2123  0.3955
 7744TIP3    H144647   0.048   4.071  12.326 -2.7689  1.3642 -0.9232
 7744TIP3    H244648   0.155   4.172  12.363  0.4685 -2.5971  1.2750
 7745TIP3   OH244649   2.902   4.007  17.149  0.0800  0.5115  0.1455
 7745TIP3    H144650   2.843   3.950  17.100  0.0443  0.6032  0.0826
 7745TIP3    H244651   2.867   4.007  17.238  0.4459 -0.0787  0.2941
 7746TIP3   OH244652   1.025   2.741   5.747 -0.2848  0.2818  0.0426
 7746TIP3    H144653   0.984   2.655   5.759  0.2502  0.1068  0.7194
 7746TIP3    H244654   1.091   2.726   5.680  0.2872 -0.0174  0.6581
 7747TIP3   OH244655   5.853   5.683  15.570 -0.1159 -0.1612 -0.1806
 7747TIP3    H144656   5.903   5.633  15.505 -0.9192  0.0967 -1.0315
 7747TIP3    H244657   5.871   5.774  15.548 -0.8677 -0.0653 -0.4522
 7748TIP3   OH244658   3.359   2.298  14.090  0.0237  0.4675 -0.8944
 7748TIP3    H144659   3.394   2.316  14.003  1.0992 -0.9432 -0.7902
 7748TIP3    H244660   3.264   2.293  14.078  0.0734  1.3201 -1.7633
 7749TIP3   OH244661   5.781   0.326  11.645 -0.4340  0.7681 -0.1211
 7749TIP3    H144662   5.744   0.365  11.724 -0.4335 -0.0080  0.2685
 7749TIP3    H244663   5.870   0.361  11.640 -0.1212  0.1230  0.7241
 7750TIP3   OH244664   0.870   1.067  12.198  0.3672  0.1340 -0.7250
 7750TIP3    H144665   0.839   1.086  12.287  1.8153  0.1151 -0.1914
 7750TIP3    H244666   0.960   1.100  12.197  1.8571 -3.5394 -0.8350
 7751TIP3   OH244667   6.614   4.309   3.130 -0.2041 -0.4271  0.0637
 7751TIP3    H144668   6.706   4.284   3.124 -0.5781 -2.1490  0.8038
 7751TIP3    H244669   6.611   4.377   3.198  0.5126 -0.4245  0.0904
 7752TIP3   OH244670   6.673   3.193  16.490  0.0512 -0.2192  0.2653
 7752TIP3    H144671   6.709   3.181  16.578  1.7862 -0.8605 -0.4947
 7752TIP3    H244672   6.690   3.285  16.469  0.1987 -0.2257  0.3559
 7753TIP3   OH244673   5.831   2.384  10.784 -0.0103 -0.0976  0.0707
 7753TIP3    H144674   5.756   2.352  10.834  1.0811  0.1910  1.9898
 7753TIP3    H244675   5.814   2.478  10.774 -0.6369 -0.2930 -0.9127
 7754TIP3   OH244676   4.379   2.662   1.006  0.6621 -0.0424  0.0581
 7754TIP3    H144677   4.294   2.618   1.015  0.8989 -0.1726  2.4610
 7754TIP3    H244678   4.357   2.755   1.003  0.3254 -0.1498 -2.0975
 7755TIP3   OH244679   4.223   1.476  16.922  0.3563  0.9447 -0.0544
 7755TIP3    H144680   4.289   1.510  16.862  1.4965 -0.8159  0.1244
 7755TIP3    H244681   4.201   1.390  16.886  0.1481  0.3851  1.3690
 7756TIP3   OH244682   4.515   1.668   2.436 -0.0434 -0.3783 -0.4702
 7756TIP3    H144683   4.559   1.661   2.352 -0.1182  3.2600 -0.9390
 7756TIP3    H244684   4.579   1.709   2.494 -1.9792  3.5536 -0.7486
 7757TIP3   OH244685   4.326   1.475   2.800  0.6547  0.4459  0.1117
 7757TIP3    H144686   4.287   1.391   2.827  0.4768  0.1928 -0.8912
 7757TIP3    H244687   4.321   1.474   2.704 -0.3845  2.0926  0.1060
 7758TIP3   OH244688   2.289   5.457  13.231  0.2556 -1.0124 -0.6467
 7758TIP3    H144689   2.254   5.421  13.313 -0.3792  1.0417  0.0554
 7758TIP3    H244690   2.237   5.416  13.162 -1.8047 -0.0544  0.2327
 7759TIP3   OH244691   4.420   3.049  11.198  0.7878  0.5205 -0.0754
 7759TIP3    H144692   4.430   2.968  11.149  3.4835  1.2912 -1.0030
 7759TIP3    H244693   4.329   3.075  11.185 -0.0177 -2.0966 -0.0844
 7760TIP3   OH244694   0.614   3.313  10.582 -0.4011  0.0465  0.3669
 7760TIP3    H144695   0.655   3.399  10.568  0.5456  0.1809  3.3002
 7760TIP3    H244696   0.664   3.253  10.527 -1.0683  1.3152 -1.7248
 7761TIP3   OH244697   5.358   0.570   5.961  0.0662 -0.0967  0.2135
 7761TIP3    H144698   5.381   0.624   6.037  1.3917 -1.4247  0.8092
 7761TIP3    H244699   5.318   0.491   5.999 -0.2634 -0.2946 -0.5365
 7762TIP3   OH244700   3.273   2.572  11.100  0.0151 -0.6838  0.1442
 7762TIP3    H144701   3.227   2.505  11.049 -0.2420 -1.3033  1.1589
 7762TIP3    H244702   3.247   2.655  11.060 -1.8711 -1.0247  0.5897
 7763TIP3   OH244703   4.121   4.160   4.803 -0.0210  0.1794  0.0790
 7763TIP3    H144704   4.088   4.223   4.866 -0.8335 -0.2341  0.0773
 7763TIP3    H244705   4.048   4.145   4.743  0.4372 -0.1287 -0.4119
 7764TIP3   OH244706   3.646   5.835  13.886  0.0487  0.5122  0.0214
 7764TIP3    H144707   3.721   5.890  13.860 -0.9858  1.0476 -2.0878
 7764TIP3    H244708   3.578   5.898  13.908 -0.3395  0.0504  0.1367
 7765TIP3   OH244709   6.697   2.522   6.189  0.5662 -0.2016  0.4652
 7765TIP3    H144710   6.688   2.604   6.238 -1.5657  0.2380 -0.5397
 7765TIP3    H244711   6.745   2.464   6.248  1.9793  1.6769  1.2895
 7766TIP3   OH244712   3.998   0.946  12.265  0.2240 -0.1668 -0.2466
 7766TIP3    H144713   4.092   0.962  12.274  0.0904  0.4976  0.0585
 7766TIP3    H244714   3.980   0.876  12.327  0.4579 -0.0243 -0.0137
 7767TIP3   OH244715   6.535   2.335   6.036 -0.0772  0.3934  0.0087
 7767TIP3    H144716   6.587   2.268   6.080  2.1358 -0.1992 -3.1428
 7767TIP3    H244717   6.582   2.417   6.051 -0.0127  0.3962 -0.1993
 7768TIP3   OH244718   2.735   3.288  11.291  0.0699 -0.0486 -0.4394
 7768TIP3    H144719   2.772   3.265  11.206 -0.1418  1.4670 -0.9705
 7768TIP3    H244720   2.672   3.357  11.272 -0.1257  0.1775  0.9340
 7769TIP3   OH244721   5.759   6.059  17.112 -0.3846  0.3673  0.4305
 7769TIP3    H144722   5.843   6.013  17.118 -0.8865 -0.4980  1.2480
 7769TIP3    H244723   5.699   5.994  17.073 -0.8093  0.7639  0.4101
 7770TIP3   OH244724   4.368   2.784  11.580  0.2230  0.5693  0.3095
 7770TIP3    H144725   4.463   2.794  11.588  0.1335  0.8582  1.1741
 7770TIP3    H244726   4.356   2.708  11.524  0.9680  0.3807  0.3978
 7771TIP3   OH244727   3.214   0.752   5.888  0.2251  0.1759 -0.2850
 7771TIP3    H144728   3.279   0.802   5.938  1.4761 -2.3838  0.8851
 7771TIP3    H244729   3.248   0.750   5.799  2.2599 -1.6499  0.4256
 7772TIP3   OH244730   6.112   5.348   3.184  0.2514  0.2624  0.2585
 7772TIP3    H144731   6.072   5.303   3.110 -0.4654  2.5472 -0.8107
 7772TIP3    H244732   6.203   5.317   3.184 -0.3189 -1.5487 -0.0707
 7773TIP3   OH244733   3.792   0.861  13.764  0.1049  0.7961  0.7734
 7773TIP3    H144734   3.796   0.910  13.847  0.9133 -0.1627  1.3290
 7773TIP3    H244735   3.881   0.866  13.730  0.2822 -0.5089  0.9912
 7774TIP3   OH244736   3.974   1.713  15.902 -0.3739  0.3767  0.1975
 7774TIP3    H144737   3.967   1.739  15.994  0.7381  1.2376  0.0594
 7774TIP3    H244738   4.066   1.688  15.892 -0.9475 -1.8838 -0.1508
 7775TIP3   OH244739   0.677   5.639   4.114 -0.0098 -0.2437  0.2576
 7775TIP3    H144740   0.620   5.714   4.130 -1.7911 -1.7096  1.1100
 7775TIP3    H244741   0.741   5.671   4.049  0.8060  2.6989  2.2924
 7776TIP3   OH244742   6.511   6.711   2.143 -0.9138 -0.3626 -0.2261
 7776TIP3    H144743   6.451   6.732   2.214 -0.2892 -0.6409  0.3891
 7776TIP3    H244744   6.469   6.748   2.065 -1.0380  0.9997  0.4490
 7777TIP3   OH244745   6.073   5.160  16.313  0.2452  0.2815  0.0795
 7777TIP3    H144746   6.163   5.192  16.305  0.1981  0.6366  0.8794
 7777TIP3    H244747   6.079   5.066  16.301  0.5974  0.4096 -0.7909
 7778TIP3   OH244748   3.576   5.853  10.659 -0.8547 -0.1468  0.1079
 7778TIP3    H144749   3.622   5.784  10.611 -1.2716 -0.6224  0.3945
 7778TIP3    H244750   3.641   5.923  10.668 -0.2944 -0.6786  0.2114
 7779TIP3   OH244751   6.357   0.375  14.336  0.4042  0.4448 -0.8645
 7779TIP3    H144752   6.309   0.458  14.337  0.9364  0.7831 -1.6662
 7779TIP3    H244753   6.338   0.338  14.249  0.1937 -0.2645 -0.5223
 7780TIP3   OH244754   4.173   1.576   6.070 -0.9494  0.5393 -0.4454
 7780TIP3    H144755   4.265   1.569   6.094 -0.8162 -1.3173 -1.3002
 7780TIP3    H244756   4.155   1.670   6.069  0.9154  0.9380 -0.2624
 7781TIP3   OH244757   4.145   1.245  15.983 -0.1741 -0.2916 -0.0720
 7781TIP3    H144758   4.224   1.221  16.032 -1.0065 -0.8945  1.0136
 7781TIP3    H244759   4.084   1.276  16.049 -0.7681  0.4200 -0.9340
 7782TIP3   OH244760   5.454   3.250   3.287  0.0822  0.1483 -0.0967
 7782TIP3    H144761   5.490   3.327   3.243 -0.5696 -0.6127 -2.0403
 7782TIP3    H244762   5.519   3.181   3.272  0.4416  0.1589  1.2402
 7783TIP3   OH244763   3.744   6.042   3.261  0.3644  0.6762 -0.4659
 7783TIP3    H144764   3.837   6.039   3.284 -0.0529 -1.1224  1.3236
 7783TIP3    H244765   3.709   6.118   3.308  0.5692  0.1619  0.5440
 7784TIP3   OH244766   0.757   3.393  15.502 -0.4230 -0.0986 -0.1644
 7784TIP3    H144767   0.703   3.370  15.426 -0.6623 -2.3396  0.6256
 7784TIP3    H244768   0.832   3.335  15.497  0.3209  0.7682  0.5289
 7785TIP3   OH244769   0.733   6.123  17.024 -0.0141  0.2402  0.0810
 7785TIP3    H144770   0.794   6.139  17.096 -0.3928 -1.6777  0.8883
 7785TIP3    H244771   0.646   6.125  17.066 -0.2491 -0.7090 -0.3234
 7786TIP3   OH244772   1.119   5.652  13.668  0.0638 -0.4275 -0.0906
 7786TIP3    H144773   1.155   5.636  13.581  0.9088 -0.0389  0.1846
 7786TIP3    H244774   1.061   5.577  13.684 -0.4504 -0.2828 -1.1606
 7787TIP3   OH244775   6.227   1.971   0.366 -0.0659  0.1122  0.4847
 7787TIP3    H144776   6.146   2.022   0.373  0.3955  0.7213  1.6316
 7787TIP3    H244777   6.199   1.882   0.345 -1.0321  0.2943  0.9981
 7788TIP3   OH244778   2.222   5.407   1.588  0.5805 -0.2411 -0.1779
 7788TIP3    H144779   2.285   5.478   1.586  0.1958  0.0979 -0.7747
 7788TIP3    H244780   2.237   5.360   1.506 -1.2086  1.0023 -1.3067
 7789TIP3   OH244781   5.277   3.933  16.953 -0.1720  0.2759 -0.6450
 7789TIP3    H144782   5.292   3.840  16.938 -0.6098  0.3340 -1.4950
 7789TIP3    H244783   5.208   3.957  16.891 -1.0003  0.8699  0.4638
 7790TIP3   OH244784   0.075   0.746  13.676 -0.2976  0.1920  0.1462
 7790TIP3    H144785   0.121   0.773  13.756 -0.1734 -1.3598  0.6304
 7790TIP3    H244786   0.020   0.673  13.703 -1.2647  0.4894 -0.9356
 7791TIP3   OH244787   2.251   3.749   2.820  0.2553  0.5454  0.4827
 7791TIP3    H144788   2.311   3.823   2.817  1.2489 -0.2658 -0.3773
 7791TIP3    H244789   2.239   3.730   2.913  1.7491  0.4063  0.6677
 7792TIP3   OH244790   3.464   3.004  13.190  0.4171  0.2808  0.2931
 7792TIP3    H144791   3.398   3.012  13.121 -0.8792  0.7315  1.5215
 7792TIP3    H244792   3.456   3.085  13.240  1.2710 -0.0725  1.0233
 7793TIP3   OH244793   2.913   3.667   0.104 -0.2480  0.6745  0.1573
 7793TIP3    H144794   2.981   3.633   0.046 -0.2398 -0.5471  0.8374
 7793TIP3    H244795   2.832   3.626   0.074 -0.8105  2.4487 -0.9148
 7794TIP3   OH244796   1.932   4.588   6.070 -0.0765 -0.1956 -0.6127
 7794TIP3    H144797   1.848   4.546   6.052 -0.8240  0.4618  1.1106
 7794TIP3    H244798   1.960   4.552   6.154  1.8717 -1.0917 -1.5677
 7795TIP3   OH244799   0.446   6.449   3.593  0.1143  0.1891  0.1255
 7795TIP3    H144800   0.367   6.476   3.641  0.3766 -0.6641  1.0757
 7795TIP3    H244801   0.509   6.520   3.609  0.3763 -0.3256  1.5380
 7796TIP3   OH244802   4.802   3.477  16.892 -0.2902 -0.4784 -0.1857
 7796TIP3    H144803   4.744   3.483  16.816 -1.3253 -0.2045  0.5966
 7796TIP3    H244804   4.866   3.547  16.879 -1.5792  0.8165  0.0788
 7797TIP3   OH244805   4.111   1.127   5.119  0.2602  0.4841 -0.2184
 7797TIP3    H144806   4.143   1.050   5.167  0.1733  1.1478  0.9490
 7797TIP3    H244807   4.139   1.201   5.173  0.4207  1.2791 -1.3740
 7798TIP3   OH244808   1.905   2.558   3.376  0.6455  0.0723  0.4537
 7798TIP3    H144809   1.862   2.545   3.292 -0.5615  2.6878  0.5509
 7798TIP3    H244810   1.998   2.566   3.354  0.2694  1.5180 -0.7949
 7799TIP3   OH244811   3.382   2.527  15.349  0.3993  0.2704 -0.4592
 7799TIP3    H144812   3.436   2.586  15.401 -0.9659 -0.9136  2.4850
 7799TIP3    H244813   3.423   2.441  15.357 -0.2318 -0.0727 -0.7482
 7800TIP3   OH244814   1.892   1.316  12.211 -0.5276  0.0713 -0.3159
 7800TIP3    H144815   1.863   1.343  12.298 -1.2511 -2.7870  0.4111
 7800TIP3    H244816   1.977   1.274  12.225 -1.4942 -2.0932 -0.6418
 7801TIP3   OH244817   2.813   5.425   2.439  0.4250  0.2073 -0.0088
 7801TIP3    H144818   2.817   5.345   2.492 -1.0973  0.0066 -0.1659
 7801TIP3    H244819   2.869   5.407   2.364 -1.1564 -1.3787 -0.8806
 7802TIP3   OH244820   1.309   0.657   2.236  0.1393 -0.1545  0.3381
 7802TIP3    H144821   1.375   0.636   2.301 -0.5491 -0.2289  1.0309
 7802TIP3    H244822   1.345   0.731   2.187  0.3163  0.4471  1.3560
 7803TIP3   OH244823   0.665   0.730  14.963 -0.7411  0.3126  0.1777
 7803TIP3    H144824   0.720   0.724  14.886 -0.2066  1.1974  0.4731
 7803TIP3    H244825   0.642   0.639  14.984  0.0948 -0.0227 -0.3161
 7804TIP3   OH244826   4.122   4.948  16.534 -0.3673  0.6404 -0.0469
 7804TIP3    H144827   4.079   4.981  16.613 -0.4107 -1.9741  1.1399
 7804TIP3    H244828   4.083   4.862  16.520  0.9761  0.2650 -1.8504
 7805TIP3   OH244829   2.041   1.573   5.696 -0.5409 -0.5465 -0.0504
 7805TIP3    H144830   2.102   1.504   5.722 -0.6911 -0.7946 -0.3492
 7805TIP3    H244831   1.981   1.583   5.770  0.8803  0.8931  0.9906
 7806TIP3   OH244832   5.932   3.939  13.773  0.0456 -0.6935 -0.1954
 7806TIP3    H144833   5.841   3.968  13.771  0.5090  0.8509 -0.0706
 7806TIP3    H244834   5.942   3.900  13.859 -1.0142 -2.7520 -0.9430
 7807TIP3   OH244835   2.439   2.158   4.156 -0.1783 -0.3200 -0.0363
 7807TIP3    H144836   2.379   2.086   4.143 -0.4834 -0.0861  0.0699
 7807TIP3    H244837   2.383   2.233   4.175  0.1835 -0.4337  1.6635
 7808TIP3   OH244838   3.850   2.820  16.799 -0.2189  0.3377 -0.3455
 7808TIP3    H144839   3.756   2.830  16.812 -0.4421 -1.5388 -0.2919
 7808TIP3    H244840   3.886   2.906  16.822 -1.8827  1.0412 -0.2096
 7809TIP3   OH244841   2.249   1.457  14.588  0.6711 -0.6940  0.2972
 7809TIP3    H144842   2.298   1.420  14.515  2.2905  0.4254  0.7662
 7809TIP3    H244843   2.232   1.383  14.646  1.1983 -1.2163 -0.2057
 7810TIP3   OH244844   1.121   0.944  14.762 -0.0574  0.4798  0.7303
 7810TIP3    H144845   1.195   0.887  14.786  0.3463  0.6578 -0.0574
 7810TIP3    H244846   1.095   0.985  14.844 -0.4296 -0.9178  1.3422
 7811TIP3   OH244847   4.943   0.569  11.419 -0.1535  0.0535  0.2699
 7811TIP3    H144848   5.021   0.544  11.369 -0.5312  0.7603 -0.6837
 7811TIP3    H244849   4.875   0.581  11.354 -0.9006  0.0925  1.0437
 7812TIP3   OH244850   6.031   2.614  15.764  0.1932 -0.1963  0.5400
 7812TIP3    H144851   5.985   2.637  15.684  1.7374 -0.4907 -0.4720
 7812TIP3    H244852   6.049   2.698  15.807 -0.7293 -0.0477  0.6589
 7813TIP3   OH244853   0.307   5.401  13.446  0.0961  0.7062 -0.4368
 7813TIP3    H144854   0.277   5.428  13.359 -0.1985 -0.2235 -0.6300
 7813TIP3    H244855   0.281   5.310  13.453 -3.5853  1.7547  2.2504
 7814TIP3   OH244856   0.300   5.772   3.493 -0.1408 -0.5087  0.1126
 7814TIP3    H144857   0.374   5.754   3.435  0.2823  0.8473  0.1914
 7814TIP3    H244858   0.247   5.836   3.446  0.4837  1.0151  1.3927
 7815TIP3   OH244859   6.286   3.482   2.605  0.0350  0.5265  0.1128
 7815TIP3    H144860   6.318   3.569   2.629  1.1381  0.6083 -1.4853
 7815TIP3    H244861   6.246   3.495   2.519 -1.1019 -0.2859  0.4989
 7816TIP3   OH244862   1.963   5.778   4.939  0.1600  0.3559  0.3860
 7816TIP3    H144863   1.995   5.868   4.941 -0.3740  0.5328  1.2636
 7816TIP3    H244864   1.905   5.775   4.863 -0.0415  0.8342  0.5147
 7817TIP3   OH244865   6.313   5.216  15.668 -0.1953  0.3651  0.8344
 7817TIP3    H144866   6.244   5.279  15.646  0.6452  1.4063  1.0937
 7817TIP3    H244867   6.379   5.228  15.599 -0.2872 -0.6658  0.5519
 7818TIP3   OH244868   4.396   4.445  17.045  0.3745  0.1776  0.0611
 7818TIP3    H144869   4.414   4.401  17.128  1.3987 -0.5783 -0.5385
 7818TIP3    H244870   4.470   4.505  17.032  0.9639 -0.7326 -0.9616
 7819TIP3   OH244871   2.769   5.567  13.189 -0.0720  0.2839  0.7576
 7819TIP3    H144872   2.689   5.532  13.150  1.7951 -2.6081 -0.8791
 7819TIP3    H244873   2.739   5.616  13.265 -3.3744 -0.8433  0.3576
 7820TIP3   OH244874   2.854   1.915   3.943  0.5151  0.1592 -0.2131
 7820TIP3    H144875   2.825   2.005   3.955 -1.6252 -0.2017 -2.0472
 7820TIP3    H244876   2.922   1.921   3.875  0.4635  0.3956 -0.2443
 7821TIP3   OH244877   3.755   1.525  15.227  0.1080  0.3456  0.1497
 7821TIP3    H144878   3.683   1.477  15.186  0.4330  0.2696 -0.3470
 7821TIP3    H244879   3.783   1.468  15.299 -0.3951  0.4275  0.4162
 7822TIP3   OH244880   2.788   2.708  13.633  0.6769 -0.0171  0.3449
 7822TIP3    H144881   2.704   2.662  13.635  0.5578  0.1690 -0.2562
 7822TIP3    H244882   2.846   2.650  13.584  1.8292 -1.6585  3.3986
 7823TIP3   OH244883   4.498   5.927   6.300  0.3935 -0.7255  0.1940
 7823TIP3    H144884   4.583   5.969   6.287  1.3764 -2.0920  1.7498
 7823TIP3    H244885   4.504   5.845   6.251 -0.3151 -0.5068 -0.2720
 7824TIP3   OH244886   1.953   5.943  14.379  0.3734 -0.1789 -0.3516
 7824TIP3    H144887   1.948   5.880  14.307  1.6073  0.7973 -1.3380
 7824TIP3    H244888   1.871   5.992  14.373  0.5816  0.0815 -1.3011
 7825TIP3   OH244889   6.751   4.577   2.829 -0.7328 -0.4130  0.0493
 7825TIP3    H144890   6.741   4.669   2.853  1.1920 -0.3610  0.8328
 7825TIP3    H244891   6.772   4.580   2.735 -0.0126  0.0199  0.2113
 7826TIP3   OH244892   0.830   4.994  14.731  0.4397  0.2023 -0.3863
 7826TIP3    H144893   0.747   5.025  14.768  0.4138 -0.3885  0.0693
 7826TIP3    H244894   0.897   5.037  14.783  0.4466  1.4806 -1.4127
 7827TIP3   OH244895   2.747   1.349   3.877  0.1087 -0.1757  0.2746
 7827TIP3    H144896   2.799   1.344   3.797 -2.8237  0.2570 -1.8357
 7827TIP3    H244897   2.777   1.430   3.919  0.6370  0.4775 -1.2590
 7828TIP3   OH244898   0.007   5.608  12.928  0.2114 -0.5390 -0.3300
 7828TIP3    H144899  -0.006   5.678  12.864  0.7304 -1.1973 -1.1808
 7828TIP3    H244900   0.018   5.529  12.875  1.1929 -1.0210  0.5570
 7829TIP3   OH244901   1.373   1.403  13.298 -0.4352  0.4899  0.7932
 7829TIP3    H144902   1.298   1.454  13.330  0.8642  1.3940  2.4974
 7829TIP3    H244903   1.429   1.468  13.255  0.1751  0.1127  1.0115
 7830TIP3   OH244904   2.060   3.751   6.607 -0.1010  0.1984  0.3346
 7830TIP3    H144905   2.111   3.762   6.687 -0.5299 -0.8182  0.7571
 7830TIP3    H244906   1.970   3.771   6.633 -0.5734 -2.0881  0.6308
 7831TIP3   OH244907   3.398   1.961   1.644  0.6966 -0.2491  0.5856
 7831TIP3    H144908   3.428   1.871   1.631  0.3713 -0.7616  2.9432
 7831TIP3    H244909   3.389   1.970   1.739 -2.8556  1.1017  0.2514
 7832TIP3   OH244910   4.127   1.169   0.318 -0.2835  0.1549  0.1338
 7832TIP3    H144911   4.195   1.181   0.384 -1.3052 -2.1350  1.7277
 7832TIP3    H244912   4.068   1.243   0.331  2.7017  3.3546 -2.6124
 7833TIP3   OH244913   4.954   0.535  10.704 -0.1637  0.5265  0.0484
 7833TIP3    H144914   4.944   0.441  10.695 -1.6814  0.6762 -0.1430
 7833TIP3    H244915   4.980   0.565  10.617  1.1779  0.2123  0.3199
 7834TIP3   OH244916   0.554   4.535  11.253  0.0714 -0.2787 -0.1677
 7834TIP3    H144917   0.627   4.529  11.315 -1.0037  1.1088  1.3174
 7834TIP3    H244918   0.583   4.484  11.177  2.3835 -0.1628  0.5483
 7835TIP3   OH244919   2.640   1.188  14.048  0.3575  0.0350  0.2302
 7835TIP3    H144920   2.711   1.143  14.094  0.2823  1.4584  1.8785
 7835TIP3    H244921   2.676   1.273  14.025 -0.3611  0.2290 -0.2239
 7836TIP3   OH244922   1.692   2.701   1.578  0.2389  0.9404 -0.1602
 7836TIP3    H144923   1.658   2.782   1.618 -0.5698  0.7824 -0.5024
 7836TIP3    H244924   1.673   2.633   1.642 -1.5777  0.5931 -1.0067
 7837TIP3   OH244925   1.279   3.253  13.338  0.0335 -0.0865  0.4701
 7837TIP3    H144926   1.278   3.334  13.287 -2.5445 -1.1678 -1.4146
 7837TIP3    H244927   1.362   3.256  13.386  0.9191  2.7185 -1.0048
 7838TIP3   OH244928   3.917   4.781  16.062  0.2071  0.1112  0.2113
 7838TIP3    H144929   3.915   4.692  16.028  0.4280  0.5603 -1.0257
 7838TIP3    H244930   4.010   4.806  16.059  0.3193 -0.0224  1.6926
 7839TIP3   OH244931   4.628   5.079   5.442  0.3486  0.7611  0.3160
 7839TIP3    H144932   4.555   5.038   5.489  1.3036 -1.2044  0.1825
 7839TIP3    H244933   4.641   5.023   5.365  0.9457  2.0267 -0.5229
 7840TIP3   OH244934   6.666   6.426  16.048 -0.2366 -0.2182  0.2943
 7840TIP3    H144935   6.664   6.517  16.077 -0.1835  0.2323 -1.0442
 7840TIP3    H244936   6.678   6.375  16.128  1.5894  1.0542  0.8852
 7841TIP3   OH244937   1.076   6.264   5.765  0.1362 -0.2554 -0.3327
 7841TIP3    H144938   1.000   6.206   5.774  0.1787 -0.2677 -0.0601
 7841TIP3    H244939   1.106   6.280   5.855  1.0213 -0.9902 -0.4862
 7842TIP3   OH244940   2.195   3.199   0.623 -0.2342  0.1934  0.1204
 7842TIP3    H144941   2.199   3.292   0.600  0.7582  1.1178  3.5444
 7842TIP3    H244942   2.286   3.171   0.629 -0.5063 -0.7201  0.2341
 7843TIP3   OH244943   2.571   5.440  17.322 -0.5021  0.2416 -0.4062
 7843TIP3    H144944   2.653   5.392  17.319 -0.1266  0.9255 -1.9455
 7843TIP3    H244945   2.505   5.374  17.345  0.4124 -0.3647  0.5504
 7844TIP3   OH244946   5.233   4.955   2.767  0.0122 -0.2843  0.1298
 7844TIP3    H144947   5.225   5.050   2.763 -0.5799 -0.3707 -1.2186
 7844TIP3    H244948   5.153   4.922   2.728  0.4226 -1.3414  0.1333
 7845TIP3   OH244949   2.639   6.757  12.359 -0.1538  0.3260  0.0571
 7845TIP3    H144950   2.556   6.749  12.406  0.6169 -0.0188  1.4131
 7845TIP3    H244951   2.648   6.851  12.344 -1.2529  0.2918 -1.0233
 7846TIP3   OH244952   3.899   5.838   3.036 -0.1683  0.8224  0.2207
 7846TIP3    H144953   3.897   5.813   3.128 -0.7848  4.2315  1.2760
 7846TIP3    H244954   3.989   5.819   3.008  0.4641  1.0087  1.9703
 7847TIP3   OH244955   0.851   3.253   4.759  0.0981 -0.2567 -0.4721
 7847TIP3    H144956   0.819   3.276   4.671 -0.2775  0.9876 -0.0331
 7847TIP3    H244957   0.810   3.318   4.816  1.0491 -0.5061  0.5065
 7848TIP3   OH244958   1.996   2.788  14.258  0.2726  0.3489  0.4877
 7848TIP3    H144959   1.983   2.837  14.177 -0.7442  1.3388  1.2212
 7848TIP3    H244960   1.941   2.710  14.247  0.0891  0.5085  0.2472
 7849TIP3   OH244961   3.295   2.523   2.275  0.1124 -0.1687  0.5616
 7849TIP3    H144962   3.315   2.602   2.325 -2.1463 -0.8972  2.7885
 7849TIP3    H244963   3.336   2.452   2.325  0.8343 -0.6044 -0.5989
 7850TIP3   OH244964   2.319   4.044  17.281 -0.2020  0.1223 -0.1835
 7850TIP3    H144965   2.291   4.108  17.346  0.0249  0.0235  0.0140
 7850TIP3    H244966   2.411   4.026  17.303  0.2836  1.0830 -1.3453
 7851TIP3   OH244967   0.805   3.151  14.137  0.5810  0.2616 -0.4945
 7851TIP3    H144968   0.724   3.201  14.130  0.4463 -0.0596 -1.3405
 7851TIP3    H244969   0.874   3.217  14.127  0.4277  0.5217  0.1354
 7852TIP3   OH244970   2.333   0.251   4.244  0.0249 -0.4211  0.0841
 7852TIP3    H144971   2.387   0.275   4.169  0.6435 -1.5916  0.1273
 7852TIP3    H244972   2.392   0.201   4.301 -0.6929 -0.3867  0.8856
 7853TIP3   OH244973   3.958   2.420  14.909  0.2076  0.0035  0.1028
 7853TIP3    H144974   3.923   2.338  14.873 -0.3279  0.4399 -0.3877
 7853TIP3    H244975   4.041   2.394  14.950  0.7424 -0.5552 -1.2603
 7854TIP3   OH244976   5.810   3.161  12.581  0.0051 -0.1397 -0.0705
 7854TIP3    H144977   5.816   3.256  12.581  1.0022 -0.1655 -1.8079
 7854TIP3    H244978   5.900   3.131  12.585 -0.2336 -0.9869 -0.6961
 7855TIP3   OH244979   6.372   3.924   3.781 -0.1759 -0.4047 -0.4579
 7855TIP3    H144980   6.406   4.012   3.796 -2.2159  0.2205  1.0348
 7855TIP3    H244981   6.315   3.933   3.705 -1.1861 -0.1528  0.3057
 7856TIP3   OH244982   5.693   2.296  12.646  0.0459  0.0595 -0.4847
 7856TIP3    H144983   5.716   2.322  12.735 -0.0708 -2.1026  0.2477
 7856TIP3    H244984   5.645   2.214  12.657 -1.7146  0.7581 -2.4407
 7857TIP3   OH244985   4.686   2.396   2.683  0.5554 -0.7882  0.1338
 7857TIP3    H144986   4.604   2.354   2.710  0.5132 -0.8788 -0.1273
 7857TIP3    H244987   4.708   2.455   2.755 -0.1599 -0.1673 -0.1444
 7858TIP3   OH244988   6.141   5.135  17.145 -0.2630  0.1390 -0.5520
 7858TIP3    H144989   6.127   5.195  17.217 -1.9816 -1.6395  0.7124
 7858TIP3    H244990   6.107   5.180  17.068 -0.7633  1.0766  0.2118
 7859TIP3   OH244991   0.268   2.564   2.249 -0.5912 -0.4630 -0.0243
 7859TIP3    H144992   0.249   2.475   2.280 -2.4884 -0.3199 -0.6605
 7859TIP3    H244993   0.217   2.572   2.168 -0.7445  1.3430  0.2237
 7860TIP3   OH244994   2.307   4.819   5.262 -0.6518 -0.2514  0.1410
 7860TIP3    H144995   2.375   4.840   5.198 -1.0970  0.0665 -0.2330
 7860TIP3    H244996   2.277   4.904   5.295  0.0729 -0.4201  1.3241
 7861TIP3   OH244997   6.167   1.051  15.814 -0.0135 -0.0363 -0.0509
 7861TIP3    H144998   6.218   1.057  15.733 -1.9958 -1.5649 -1.5003
 7861TIP3    H244999   6.154   1.143  15.841  3.0480  0.4375  0.2017
 7862TIP3   OH245000   5.792   3.708   3.778  0.2931 -0.2727  0.0405
 7862TIP3    H145001   5.804   3.614   3.788  0.5739 -0.2467 -0.0262
 7862TIP3    H245002   5.698   3.720   3.766  0.2754 -0.5573 -0.1036
 7863TIP3   OH245003   0.965   4.794   0.313 -0.5735 -0.6533  0.4964
 7863TIP3    H145004   0.920   4.865   0.268 -0.2438  0.2726  1.5944
 7863TIP3    H245005   0.985   4.730   0.244 -2.5991 -0.6048 -0.2004
 7864TIP3   OH245006   2.879   5.129   5.151  0.1535  0.6258 -0.0460
 7864TIP3    H145007   2.956   5.181   5.132  0.0469  0.9172  0.3156
 7864TIP3    H245008   2.882   5.057   5.087  1.1868  0.1425  0.5284
 7865TIP3   OH245009   0.723   5.536   1.338  0.5106 -0.4289 -0.0006
 7865TIP3    H145010   0.784   5.533   1.264 -0.5727  0.8696 -1.0125
 7865TIP3    H245011   0.738   5.621   1.378  0.4083 -0.7301  0.6842
 7866TIP3   OH245012   3.524   5.386   1.799  0.2594 -0.1241  0.3145
 7866TIP3    H145013   3.476   5.384   1.881 -2.4386 -0.2514 -1.1636
 7866TIP3    H245014   3.457   5.378   1.731  2.5589 -3.0047 -1.8916
 7867TIP3   OH245015   6.162   3.027  13.889  0.2602  0.2177  0.3240
 7867TIP3    H145016   6.179   3.072  13.806  1.0416 -1.3515 -0.4118
 7867TIP3    H245017   6.215   3.074  13.954 -1.7564  2.6153  0.3728
 7868TIP3   OH245018   5.305   4.748   3.718 -0.4594  0.4726 -0.4292
 7868TIP3    H145019   5.283   4.654   3.714  0.1577  0.2791  0.4328
 7868TIP3    H245020   5.220   4.791   3.725 -0.8709  0.1180 -2.6671
 7869TIP3   OH245021   1.532   6.062   2.870  0.0419  0.0193 -0.6667
 7869TIP3    H145022   1.627   6.060   2.866 -0.0041 -1.0887 -2.4767
 7869TIP3    H245023   1.504   6.006   2.797 -1.9741 -1.0829  0.8397
 7870TIP3   OH245024   2.342   0.612   0.652 -0.5031  0.5331 -0.3198
 7870TIP3    H145025   2.351   0.682   0.587 -0.2793  1.4969  0.7097
 7870TIP3    H245026   2.422   0.617   0.704  0.3056 -1.6241 -1.2502
 7871TIP3   OH245027   2.627   3.214  14.524 -0.1792  0.2171  0.3246
 7871TIP3    H145028   2.687   3.253  14.587  0.3996 -0.4582  0.2065
 7871TIP3    H245029   2.584   3.288  14.482  1.0287  0.7286 -0.0306
 7872TIP3   OH245030   1.973   6.181  11.840 -0.7589  0.1718  0.1179
 7872TIP3    H145031   1.898   6.184  11.780 -1.8234 -0.3992  1.3652
 7872TIP3    H245032   1.954   6.249  11.904 -0.2467 -0.0410  0.5009
 7873TIP3   OH245033   5.101   0.328  14.480 -0.2693  0.0121 -0.0832
 7873TIP3    H145034   5.167   0.381  14.524 -0.5433 -1.4696  2.2854
 7873TIP3    H245035   5.125   0.330  14.387  1.1323  2.1856  0.2735
 7874TIP3   OH245036   5.410   2.382  13.601  0.0377 -0.3493  0.2532
 7874TIP3    H145037   5.370   2.306  13.558  0.5463 -0.7213  0.4220
 7874TIP3    H245038   5.471   2.344  13.664 -0.1616  0.1996  0.7850
 7875TIP3   OH245039   5.447   2.278  15.334 -0.4826 -0.0458  0.3979
 7875TIP3    H145040   5.398   2.349  15.293  0.0773  1.2583  1.8812
 7875TIP3    H245041   5.394   2.200  15.317 -2.0429  0.9887  0.2157
 7876TIP3   OH245042   5.063   1.394  11.393  0.1705 -0.7317 -0.6370
 7876TIP3    H145043   4.981   1.362  11.430  0.0483  0.6826  0.3872
 7876TIP3    H245044   5.115   1.422  11.469  0.7003  0.4356 -1.4050
 7877TIP3   OH245045   6.241   4.077  16.315  0.3234  0.0051  0.0754
 7877TIP3    H145046   6.239   4.105  16.224 -1.1103 -0.6759 -0.1284
 7877TIP3    H245047   6.267   4.155  16.364  0.8523  0.4435 -0.8828
 7878TIP3   OH245048   1.258   6.412   0.723  0.2726  0.2847 -0.2338
 7878TIP3    H145049   1.298   6.497   0.701  0.5213  0.7388  1.7761
 7878TIP3    H245050   1.202   6.431   0.798 -0.4108 -1.1787 -0.3443
 7879TIP3   OH245051   5.612   5.819   5.886  1.1373 -0.0448 -0.3379
 7879TIP3    H145052   5.671   5.808   5.812  0.3222  0.5697 -1.0938
 7879TIP3    H245053   5.528   5.786   5.855  0.1065  2.6428 -0.6431
 7880TIP3   OH245054   4.562   1.430  11.576 -0.3495 -0.6349 -0.2003
 7880TIP3    H145055   4.487   1.389  11.532 -0.1168 -1.7438  0.4084
 7880TIP3    H245056   4.612   1.357  11.612  0.5842  0.1397  0.1225
 7881TIP3   OH245057   3.240   5.251  14.031 -0.4361 -0.2600 -0.3282
 7881TIP3    H145058   3.186   5.173  14.048 -1.3081  0.0268 -1.6362
 7881TIP3    H245059   3.276   5.236  13.944 -1.0998  1.0455 -0.8447
 7882TIP3   OH245060   1.652   3.549  15.431  0.0936 -0.1196 -0.0777
 7882TIP3    H145061   1.667   3.634  15.389 -2.6110 -0.1566 -1.2940
 7882TIP3    H245062   1.557   3.539  15.433  0.2254 -2.0339  2.3499
 7883TIP3   OH245063   6.001   6.283  10.973 -0.6095  0.0854 -0.2588
 7883TIP3    H145064   6.077   6.226  10.960 -0.2052  0.5856 -0.1628
 7883TIP3    H245065   5.961   6.289  10.886 -0.2715  0.1773 -0.4128
 7884TIP3   OH245066   4.168   4.248  12.988  0.0794 -0.5548  0.3788
 7884TIP3    H145067   4.116   4.262  12.909 -0.3232 -0.1976  0.7041
 7884TIP3    H245068   4.250   4.209  12.956  0.1043  0.0050 -0.2579
 7885TIP3   OH245069   5.095   5.857  14.036 -0.6708  0.2323 -0.4696
 7885TIP3    H145070   5.173   5.806  14.016  0.3268  2.4997 -2.8588
 7885TIP3    H245071   5.022   5.798  14.016  0.4108 -0.1586 -3.9855
 7886TIP3   OH245072   2.614   2.616  14.779 -0.1197 -0.0634 -0.0124
 7886TIP3    H145073   2.552   2.689  14.784  1.0969  1.0762 -0.9349
 7886TIP3    H245074   2.582   2.562  14.707 -1.3458 -0.7803  1.0349
 7887TIP3   OH245075   2.414   4.416   3.951 -0.2986  0.0250  1.1850
 7887TIP3    H145076   2.477   4.353   3.985  0.5739  0.3469  0.2263
 7887TIP3    H245077   2.447   4.439   3.864 -1.4380  0.6348  0.8889
 7888TIP3   OH245078   4.023   3.704  11.335  0.2314 -0.3696  0.2818
 7888TIP3    H145079   4.070   3.787  11.336  1.0529 -0.8213  0.4318
 7888TIP3    H245080   4.019   3.680  11.242  0.2408 -0.2964  0.2630
 7889TIP3   OH245081   1.602   1.970   5.632 -0.2127 -0.4011 -0.4019
 7889TIP3    H145082   1.518   2.014   5.642 -0.1404 -0.2501 -0.4564
 7889TIP3    H245083   1.580   1.886   5.592 -0.4611 -0.8464  0.6558
 7890TIP3   OH245084   2.861   6.211  16.483  0.5654  0.5867 -0.4179
 7890TIP3    H145085   2.886   6.141  16.543  4.1178  2.8141  1.0694
 7890TIP3    H245086   2.846   6.168  16.400  1.0447 -2.0765  0.7728
 7891TIP3   OH245087   2.691   5.972  13.705  0.4644  0.0449  0.2577
 7891TIP3    H145088   2.681   6.060  13.669 -0.9852 -0.7793 -1.4789
 7891TIP3    H245089   2.603   5.935  13.705  0.9552 -1.2426  1.4729
 7892TIP3   OH245090   1.386   2.773   4.470  0.0501 -0.6509  0.2017
 7892TIP3    H145091   1.392   2.833   4.545  0.6595  0.5630 -0.7850
 7892TIP3    H245092   1.426   2.821   4.398 -2.1738 -1.0450 -1.3775
 7893TIP3   OH245093   4.973   0.418  15.551  0.3590  0.2773 -0.0264
 7893TIP3    H145094   5.033   0.488  15.526  0.8891 -0.1138  0.1460
 7893TIP3    H245095   4.927   0.396  15.470  2.1415 -1.0509 -0.7515
 7894TIP3   OH245096   1.818   2.484   1.912 -0.1162  0.3057 -0.5620
 7894TIP3    H145097   1.727   2.456   1.904 -0.2616  0.5634  0.1438
 7894TIP3    H245098   1.826   2.557   1.850  0.1252 -0.9070 -2.0192
 7895TIP3   OH245099   5.612   0.502   2.329 -0.0560  0.0461 -0.0717
 7895TIP3    H145100   5.532   0.529   2.283 -1.6551 -3.2883  0.3948
 7895TIP3    H245101   5.614   0.556   2.408 -1.7490  0.4248 -0.2416
 7896TIP3   OH245102   1.902   4.366   2.009  0.1753  0.1241 -0.1489
 7896TIP3    H145103   1.845   4.393   2.081  0.7464 -0.7475  0.6445
 7896TIP3    H245104   1.907   4.443   1.952 -0.8726  0.5774  0.3553
 7897TIP3   OH245105   1.302   0.545   1.835  0.2102 -0.0685 -0.8830
 7897TIP3    H145106   1.383   0.553   1.784  0.3521  1.3329 -0.4920
 7897TIP3    H245107   1.233   0.540   1.769  0.3371  2.3365 -1.2903
 7898TIP3   OH245108   2.496   1.582   3.501  0.5325  0.6031 -0.5844
 7898TIP3    H145109   2.465   1.557   3.588  1.3821  1.6244  0.0305
 7898TIP3    H245110   2.415   1.593   3.449  0.0574 -1.0129 -0.2426
 7899TIP3   OH245111   3.743   6.558   4.696 -0.0866  0.2417 -0.1148
 7899TIP3    H145112   3.774   6.590   4.611  0.1532  0.6447  0.1198
 7899TIP3    H245113   3.816   6.509   4.731 -0.4780 -0.6373 -0.5025
 7900TIP3   OH245114   6.325   3.248  11.520 -0.1134 -0.3489  0.0037
 7900TIP3    H145115   6.250   3.307  11.508 -0.6424 -0.8144  0.8783
 7900TIP3    H245116   6.394   3.285  11.466 -0.5362  0.8934  0.2836
 7901TIP3   OH245117   6.371   5.865  15.481  0.3312 -0.2227  0.4827
 7901TIP3    H145118   6.372   5.892  15.573 -0.1026  1.1767  0.1080
 7901TIP3    H245119   6.326   5.781  15.481  0.6197 -0.3913  1.5887
 7902TIP3   OH245120   3.351   5.742   1.078  0.1532  0.3841  0.5115
 7902TIP3    H145121   3.371   5.662   1.127 -0.0653 -0.2004 -0.3282
 7902TIP3    H245122   3.267   5.771   1.111 -0.0723 -0.1028  0.3760
 7903TIP3   OH245123   0.549   3.758  17.267 -0.0734 -0.0079 -0.3457
 7903TIP3    H145124   0.499   3.801  17.335  0.5546 -0.5465  0.4782
 7903TIP3    H245125   0.629   3.729  17.310 -0.7270 -2.5457 -0.6650
 7904TIP3   OH245126   0.796   3.922   0.256  0.1587  0.0767  0.4196
 7904TIP3    H145127   0.883   3.959   0.266 -0.1119  0.4970  1.2979
 7904TIP3    H245128   0.801   3.869   0.177  1.4582 -0.6408  0.9640
 7905TIP3   OH245129   5.091   0.355   2.753  0.2434 -0.0684 -0.3863
 7905TIP3    H145130   5.054   0.278   2.709  0.5673 -0.6860  0.4003
 7905TIP3    H245131   5.037   0.365   2.832  0.3713  0.3519 -0.3519
 7906TIP3   OH245132   2.089   1.413  11.165 -0.4379 -0.3736 -0.2725
 7906TIP3    H145133   2.141   1.419  11.085  0.0571 -1.1098 -0.0148
 7906TIP3    H245134   2.001   1.390  11.134 -0.1708 -0.9990 -0.5822
 7907TIP3   OH245135   2.213   5.049   1.202 -0.0479  0.0622 -0.1052
 7907TIP3    H145136   2.164   5.073   1.123 -1.4189 -0.2758  0.6084
 7907TIP3    H245137   2.259   4.969   1.179 -1.2410 -0.5942 -0.2654
 7908TIP3   OH245138   6.469   2.411   1.141 -0.4535 -0.3060 -0.2572
 7908TIP3    H145139   6.542   2.388   1.199 -1.4430 -2.4347  0.2399
 7908TIP3    H245140   6.424   2.482   1.187  0.8136  0.5045 -0.1999
 7909TIP3   OH245141   4.711   5.358   4.191 -0.0110 -0.1117 -0.0254
 7909TIP3    H145142   4.647   5.381   4.124  1.1626 -0.7013 -1.3892
 7909TIP3    H245143   4.787   5.414   4.173  1.8604 -2.9807 -1.7540
 7910TIP3   OH245144   0.788   5.789   4.512 -0.1302 -0.3419  0.1724
 7910TIP3    H145145   0.823   5.873   4.541 -2.4074  0.4264  0.9049
 7910TIP3    H245146   0.725   5.811   4.444 -1.2071 -1.3693  0.7858
 7911TIP3   OH245147   3.775   5.912  14.717 -0.2438 -0.1716 -0.5196
 7911TIP3    H145148   3.859   5.953  14.697  0.3690 -1.4343 -0.6619
 7911TIP3    H245149   3.713   5.984  14.720  0.6326  0.6667 -1.5708
 7912TIP3   OH245150   3.065   0.442   4.542  0.1195 -0.1165 -0.2675
 7912TIP3    H145151   2.994   0.505   4.528 -0.1296 -0.5118 -0.7935
 7912TIP3    H245152   3.132   0.468   4.480  0.3301  0.0849  0.0377
 7913TIP3   OH245153   5.946   6.029   6.835  0.2300 -0.1894  0.3535
 7913TIP3    H145154   5.974   5.978   6.758 -2.0610  0.5346 -1.0648
 7913TIP3    H245155   5.962   6.120   6.811  0.0462  0.0171  0.9923
 7914TIP3   OH245156   3.481   4.820  13.168  1.0572 -0.1211 -0.0721
 7914TIP3    H145157   3.518   4.896  13.123  0.5018 -0.0750 -0.4694
 7914TIP3    H245158   3.390   4.817  13.138  1.1812 -1.1827 -0.3774
 7915TIP3   OH245159   0.538   3.973  14.394 -0.5048 -0.3165  0.2576
 7915TIP3    H145160   0.463   4.014  14.439 -0.8773 -1.8385  1.0858
 7915TIP3    H245161   0.572   4.042  14.337 -0.9621  1.2201  1.7624
 7916TIP3   OH245162   6.594   5.316   6.141 -0.1921  0.0687  0.4908
 7916TIP3    H145163   6.548   5.272   6.213 -2.0093 -0.1004 -0.7120
 7916TIP3    H245164   6.628   5.397   6.180 -0.8159 -0.2034  1.6312
 7917TIP3   OH245165   3.777   5.018  14.793  0.3244  0.2130 -0.2076
 7917TIP3    H145166   3.744   4.933  14.762 -0.7991  0.0531  1.3036
 7917TIP3    H245167   3.732   5.032  14.876 -0.2113  2.7389 -0.8422
 7918TIP3   OH245168   1.407   5.630   1.750  0.7012  0.5752  0.1577
 7918TIP3    H145169   1.446   5.546   1.776  0.1683  0.5652  0.9257
 7918TIP3    H245170   1.362   5.611   1.668  1.5146  0.3677 -0.2484
 7919TIP3   OH245171   1.651   6.411  16.183 -0.1183  0.3145  0.3637
 7919TIP3    H145172   1.564   6.371  16.193  0.0682 -0.3199 -0.5153
 7919TIP3    H245173   1.673   6.441  16.272 -1.9289  1.9763  0.3142
 7920TIP3   OH245174   1.155   0.889  15.932  0.2201 -0.3933  0.4652
 7920TIP3    H145175   1.229   0.838  15.899  2.1750  1.5831  1.5691
 7920TIP3    H245176   1.160   0.972  15.885 -1.7903 -0.4587  0.0390
 7921TIP3   OH245177   3.723   4.875   5.542  0.0172 -0.3827 -0.4944
 7921TIP3    H145178   3.759   4.941   5.600  0.2350 -0.2469 -0.7843
 7921TIP3    H245179   3.799   4.830   5.505  0.0003  1.0258 -2.4273
 7922TIP3   OH245180   3.350   5.495   3.480  0.0876  0.2341 -0.2972
 7922TIP3    H145181   3.385   5.408   3.500 -0.0725 -0.2088 -1.8013
 7922TIP3    H245182   3.276   5.506   3.540 -0.1405 -0.8527 -0.3662
 7923TIP3   OH245183   1.834   0.632  14.642  0.4632  0.4939  0.1494
 7923TIP3    H145184   1.869   0.635  14.553 -1.1310  1.0505 -0.4993
 7923TIP3    H245185   1.905   0.665  14.697  0.6532  2.5525 -1.2127
 7924TIP3   OH245186   1.603   0.973   1.651  0.4404  0.2730 -0.7764
 7924TIP3    H145187   1.549   0.924   1.589  0.7888 -0.2168 -0.7027
 7924TIP3    H245188   1.624   1.055   1.606 -3.0312  2.0088  0.3797
 7925TIP3   OH245189   4.541   1.774   0.568 -0.3856 -0.3083  0.4984
 7925TIP3    H145190   4.492   1.745   0.491 -1.7818 -1.3630  1.7397
 7925TIP3    H245191   4.629   1.739   0.554 -0.7497 -0.9066 -0.3792
 7926TIP3   OH245192   2.409   5.039  14.714 -0.2663 -0.0424  0.2811
 7926TIP3    H145193   2.410   4.995  14.799 -2.9385  2.4912  1.8005
 7926TIP3    H245194   2.318   5.065  14.702  0.5252  1.9498 -2.1701
 7927TIP3   OH245195   0.373   5.373   3.118  0.3650  0.1674  0.0355
 7927TIP3    H145196   0.305   5.370   3.185 -0.7328 -2.5709 -1.0854
 7927TIP3    H245197   0.325   5.376   3.035  1.6372 -0.2236 -0.7442
 7928TIP3   OH245198   2.242   3.399  11.822  0.1492  0.3254 -0.1424
 7928TIP3    H145199   2.242   3.305  11.805 -0.3717  0.0393  1.2790
 7928TIP3    H245200   2.211   3.407  11.913 -2.5897  2.0512 -1.1203
 7929TIP3   OH245201   5.931   1.728   4.675 -0.0722  0.1197  0.3628
 7929TIP3    H145202   5.920   1.822   4.661  1.6610  0.3750  0.5516
 7929TIP3    H245203   5.881   1.711   4.756 -0.7056  0.7870  0.1302
 7930TIP3   OH245204   6.761   1.533   3.591 -0.2678 -0.3062 -0.4352
 7930TIP3    H145205   6.820   1.462   3.614  0.5422  0.1838 -0.9379
 7930TIP3    H245206   6.779   1.601   3.656 -0.4181 -0.2233 -0.4798
 7931TIP3   OH245207   2.504   5.738   2.631  0.1634  0.7000  0.1285
 7931TIP3    H145208   2.417   5.778   2.620  0.9412  2.7088  0.8609
 7931TIP3    H245209   2.517   5.687   2.551 -1.7143  0.2609  0.0394
 7932TIP3   OH245210   1.413   4.372  12.840  0.1117 -0.5333  0.0105
 7932TIP3    H145211   1.387   4.332  12.757  0.7744 -1.0804  0.0578
 7932TIP3    H245212   1.449   4.457  12.815 -1.3316  0.0925 -0.0891
 7933TIP3   OH245213   3.475   6.154   3.580 -0.2165  0.9788  0.3172
 7933TIP3    H145214   3.440   6.227   3.633 -1.1933 -0.7839  2.2566
 7933TIP3    H245215   3.401   6.094   3.572  1.1367 -0.7749  0.6032
 7934TIP3   OH245216   2.065   2.207  15.879  0.2196 -0.3136  0.8853
 7934TIP3    H145217   1.999   2.218  15.811  0.5870 -0.0514  0.5687
 7934TIP3    H245218   2.015   2.203  15.960 -0.6691 -4.5595  0.4003
 7935TIP3   OH245219   2.526   2.968  12.309  0.0592  0.6650  0.5781
 7935TIP3    H145220   2.537   3.063  12.313 -1.0034  0.8477 -0.4060
 7935TIP3    H245221   2.592   2.938  12.246  1.3353  0.5553  1.9179
 7936TIP3   OH245222   3.459   4.618  13.880 -0.4116  0.3024 -0.4487
 7936TIP3    H145223   3.549   4.648  13.897 -0.4735  0.1705  0.1518
 7936TIP3    H245224   3.468   4.528  13.851 -0.4758 -0.6129  2.1299
 7937TIP3   OH245225   1.646   5.518  13.128  1.0144 -0.2505 -0.0984
 7937TIP3    H145226   1.645   5.603  13.173  1.3197 -0.7080  0.7966
 7937TIP3    H245227   1.604   5.535  13.044  0.7170  0.7008  0.2270
 7938TIP3   OH245228   6.087   1.100  13.333  0.6430 -0.3052 -0.0728
 7938TIP3    H145229   6.145   1.050  13.390  2.4418  1.0858 -0.5895
 7938TIP3    H245230   6.087   1.051  13.250 -1.1008 -1.7291  0.6993
 7939TIP3   OH245231   0.724   6.196   3.226  0.4075  0.8613 -0.1351
 7939TIP3    H145232   0.652   6.247   3.188 -0.0445  0.9308  0.7799
 7939TIP3    H245233   0.751   6.137   3.156 -1.6788 -0.3548  0.0087
 7940TIP3   OH245234   6.342   2.614  16.005  0.5886  0.6725 -0.2330
 7940TIP3    H145235   6.324   2.651  16.091 -0.9856 -0.4469 -0.0488
 7940TIP3    H245236   6.258   2.582  15.974  1.5084 -0.8593 -1.2760
 7941TIP3   OH245237   1.448   6.078  15.828  0.0925 -0.3511  0.2065
 7941TIP3    H145238   1.373   6.042  15.875  0.6246 -1.1691  0.4614
 7941TIP3    H245239   1.449   6.030  15.745 -0.4484  0.6152 -0.3823
 7942TIP3   OH245240   6.349   5.171   0.678  0.2475 -0.4420 -0.2647
 7942TIP3    H145241   6.408   5.217   0.619 -1.0655  1.0849 -0.4457
 7942TIP3    H245242   6.357   5.217   0.761 -1.7367  0.7387 -0.6851
 7943TIP3   OH245243   0.200   0.312  14.640  0.0981 -0.5275  0.3969
 7943TIP3    H145244   0.218   0.301  14.734  0.8128 -0.7834  0.2364
 7943TIP3    H245245   0.273   0.268  14.596  0.1793  0.2567 -0.2769
 7944TIP3   OH245246   6.656   3.237   1.924 -0.7316 -0.1434  0.2365
 7944TIP3    H145247   6.718   3.305   1.949  0.0038 -1.1754  1.2880
 7944TIP3    H245248   6.703   3.154   1.937 -1.0181 -0.8691 -2.5261
 7945TIP3   OH245249   2.134   6.480  12.348  0.4190  0.2813 -0.1267
 7945TIP3    H145250   2.062   6.417  12.340  0.6058 -0.0793  0.9282
 7945TIP3    H245251   2.093   6.559  12.381  0.1486  0.8124 -1.6485
 7946TIP3   OH245252   0.482   1.458   1.903  0.4213  0.3710  0.0378
 7946TIP3    H145253   0.485   1.527   1.969  0.3041  1.5076 -1.0949
 7946TIP3    H245254   0.566   1.413   1.911 -0.2121 -0.5795  2.0084
 7947TIP3   OH245255   2.022   1.183  16.955 -0.4883  0.3093 -0.2700
 7947TIP3    H145256   2.037   1.089  16.938 -1.5910  0.1648 -0.5091
 7947TIP3    H245257   1.936   1.200  16.917 -1.8062  0.6730  2.6436
 7948TIP3   OH245258   6.269   0.803   1.444 -0.4672  0.2324 -0.6401
 7948TIP3    H145259   6.244   0.852   1.366  0.5017 -0.1403 -1.2027
 7948TIP3    H245260   6.327   0.863   1.491  1.7102 -0.7472 -1.9360
 7949TIP3   OH245261   6.562   3.174  12.290 -0.0117  0.1691  0.1084
 7949TIP3    H145262   6.476   3.208  12.314  0.7136  0.7552  2.0798
 7949TIP3    H245263   6.545   3.087  12.254 -1.5659  1.0370 -1.3845
 7950TIP3   OH245264   6.392   4.599  14.226 -0.4177 -0.4429  0.3469
 7950TIP3    H145265   6.481   4.566  14.221 -0.2412  0.0705 -0.0881
 7950TIP3    H245266   6.343   4.531  14.271  0.1650 -0.7906  0.4617
 7951TIP3   OH245267   6.191   4.981   1.669  0.1617 -0.0034  0.0012
 7951TIP3    H145268   6.097   4.976   1.651  0.1117  3.7798 -1.7990
 7951TIP3    H245269   6.229   5.018   1.589  2.8741  0.5577  1.4103
 7952TIP3   OH245270   0.665   4.780   4.267  1.0249  0.2556 -0.7990
 7952TIP3    H145271   0.622   4.847   4.213  0.7896 -0.2432 -1.2456
 7952TIP3    H245272   0.651   4.698   4.219  1.0357 -0.1620 -0.1018
 7953TIP3   OH245273   4.482   3.338   3.272  1.1315 -0.1942  0.6732
 7953TIP3    H145274   4.405   3.394   3.269  1.7513  0.8927  2.8041
 7953TIP3    H245275   4.457   3.265   3.329  0.8536 -1.2976 -0.7975
 7954TIP3   OH245276   4.513   1.818  16.113  0.0527 -0.5131 -0.1673
 7954TIP3    H145277   4.579   1.887  16.119  0.6455 -0.9910 -1.0729
 7954TIP3    H245278   4.531   1.774  16.030 -0.3915 -1.6916  0.3411
 7955TIP3   OH245279   3.277   3.956  15.653 -0.1264  0.1318  0.0258
 7955TIP3    H145280   3.226   3.970  15.573  0.6313 -0.4351 -0.5645
 7955TIP3    H245281   3.229   4.004  15.721  0.0441  1.8919 -1.0530
 7956TIP3   OH245282   2.504   2.669  11.591 -0.5940 -0.0793  0.4913
 7956TIP3    H145283   2.540   2.755  11.614  0.2525 -0.1713 -0.4046
 7956TIP3    H245284   2.521   2.660  11.497  0.3768 -1.6895  0.7786
 7957TIP3   OH245285   6.516   0.800  12.704 -0.0304 -0.4194 -0.0555
 7957TIP3    H145286   6.527   0.800  12.799  1.6012 -0.6985 -0.2141
 7957TIP3    H245287   6.421   0.798  12.690 -0.2786 -0.7921  1.5587
 7958TIP3   OH245288   5.380   3.846  15.085  0.1037  0.1690  0.0873
 7958TIP3    H145289   5.332   3.783  15.140  1.8558 -0.9429  0.4237
 7958TIP3    H245290   5.396   3.799  15.003 -1.5593  1.4447 -1.0348
 7959TIP3   OH245291   3.956   0.322   5.256  0.4495 -0.4059 -0.1774
 7959TIP3    H145292   4.042   0.280   5.256  0.2426 -0.8449 -0.7778
 7959TIP3    H245293   3.961   0.385   5.184  0.0558 -0.9028 -0.6520
 7960TIP3   OH245294   6.713   1.193   3.867 -0.4914 -0.1091 -0.4747
 7960TIP3    H145295   6.729   1.245   3.946 -0.4527 -2.2708  1.0313
 7960TIP3    H245296   6.633   1.230   3.830  0.3619  1.9952 -0.3858
 7961TIP3   OH245297   0.923   2.052   1.607  0.4787 -0.0662 -0.5004
 7961TIP3    H145298   1.006   2.018   1.576  0.7997  3.2511 -4.0922
 7961TIP3    H245299   0.947   2.125   1.664 -0.0747 -0.7293  0.6192
 7962TIP3   OH245300   2.046   1.030   6.484 -0.0176 -0.4692 -0.0547
 7962TIP3    H145301   2.056   1.119   6.519 -1.0446  0.1198 -1.2064
 7962TIP3    H245302   2.122   0.983   6.519  1.2403  1.1658 -0.4293
 7963TIP3   OH245303   4.754   1.940  13.313 -0.8048  0.4447  0.1939
 7963TIP3    H145304   4.687   1.919  13.378 -0.6495  1.8402  0.8199
 7963TIP3    H245305   4.815   1.999  13.358 -0.0006  0.4326 -0.8364
 7964TIP3   OH245306   5.748   5.552   1.973 -0.0669 -0.2769 -0.3802
 7964TIP3    H145307   5.695   5.559   1.894  0.0255 -1.8588 -0.6164
 7964TIP3    H245308   5.837   5.570   1.944 -0.2430  0.7011 -0.3194
 7965TIP3   OH245309   0.120   1.638  11.488 -0.2204 -0.0792 -0.0664
 7965TIP3    H145310   0.167   1.569  11.534 -0.7287  0.5749  1.5419
 7965TIP3    H245311   0.039   1.598  11.459  0.1453 -0.5284 -0.4731
 7966TIP3   OH245312   5.091   1.206  10.686 -0.2248 -0.4275 -0.0850
 7966TIP3    H145313   4.995   1.204  10.693 -0.1971 -1.3241  0.2050
 7966TIP3    H245314   5.116   1.289  10.726 -0.8600 -0.3605  0.1842
 7967TIP3   OH245315   3.359   0.871   6.372  0.0512  0.7304  0.5221
 7967TIP3    H145316   3.281   0.816   6.378 -0.9997  2.2485  1.5749
 7967TIP3    H245317   3.432   0.811   6.387 -0.6333 -1.2270 -3.0009
 7968TIP3   OH245318   5.511   4.470   2.520  0.0974  0.1103 -0.0969
 7968TIP3    H145319   5.448   4.408   2.557 -0.0319  0.6667  0.6272
 7968TIP3    H245320   5.578   4.414   2.480 -0.5033 -0.4902 -0.2910
 7969TIP3   OH245321   6.743   0.550   5.717 -0.1578  0.8942  0.0368
 7969TIP3    H145322   6.724   0.636   5.678  0.4051  1.1138  0.2431
 7969TIP3    H245323   6.677   0.492   5.679 -1.5098  1.7182  1.0326
 7970TIP3   OH245324   2.969   6.337   4.310  0.2223 -0.5083 -0.1540
 7970TIP3    H145325   2.927   6.278   4.374  0.9536  0.2156  1.0210
 7970TIP3    H245326   3.042   6.286   4.275  1.0829 -0.1993  1.1362
 7971TIP3   OH245327   2.449   2.336  14.018  0.0626  0.6093 -0.5608
 7971TIP3    H145328   2.474   2.321  13.926 -0.5909 -0.8665 -0.5239
 7971TIP3    H245329   2.355   2.356  14.014 -0.4266 -1.3685 -0.0936
 7972TIP3   OH245330   1.169   5.343   2.594  0.0053  0.5023 -0.1199
 7972TIP3    H145331   1.076   5.364   2.593 -0.3066 -0.7744 -0.6844
 7972TIP3    H245332   1.197   5.356   2.503 -0.1613 -1.1892 -0.4567
 7973TIP3   OH245333   0.568   0.347  15.765 -0.0617 -0.0514  0.8251
 7973TIP3    H145334   0.634   0.411  15.738  0.5368 -1.0066 -0.0437
 7973TIP3    H245335   0.567   0.283  15.694 -1.5234 -0.3611  1.1011
 7974TIP3   OH245336   4.336   1.663  16.746 -0.1598  0.4793 -0.2630
 7974TIP3    H145337   4.259   1.666  16.690 -0.0268  1.1110 -0.4115
 7974TIP3    H245338   4.341   1.749  16.786  0.2792  0.3362  0.0055
 7975TIP3   OH245339   2.634   1.742   4.763  0.0730 -0.1823  1.0185
 7975TIP3    H145340   2.668   1.653   4.752  2.6417  0.6520  1.3557
 7975TIP3    H245341   2.597   1.743   4.851  1.8167 -0.4647  1.8074
 7976TIP3   OH245342   0.332   5.754   1.219 -0.0627 -0.1335 -0.3731
 7976TIP3    H145343   0.299   5.766   1.307  1.3085 -0.4105  0.2118
 7976TIP3    H245344   0.255   5.762   1.162 -0.6911  2.0535  0.6636
 7977TIP3   OH245345   6.704   3.195  11.550  0.0098 -0.7467  0.0565
 7977TIP3    H145346   6.634   3.130  11.562 -0.4719 -0.5190 -1.3502
 7977TIP3    H245347   6.741   3.206  11.638 -1.6893 -0.9050  0.8376
 7978TIP3   OH245348   3.192   6.249   0.484  0.1438 -0.5752 -0.3385
 7978TIP3    H145349   3.103   6.281   0.502 -0.9233 -1.1600 -3.8273
 7978TIP3    H245350   3.183   6.154   0.482  1.4071 -0.7787  1.4083
 7979TIP3   OH245351   0.666   6.664  16.682  0.0910  0.3587 -0.1237
 7979TIP3    H145352   0.609   6.696  16.752  1.3209  1.6458  0.3446
 7979TIP3    H245353   0.696   6.578  16.714  0.4097  0.8037  0.8301
 7980TIP3   OH245354   5.641   3.315  16.991 -0.4645  0.3665 -0.4312
 7980TIP3    H145355   5.548   3.336  17.003 -0.2798  1.7244 -1.1429
 7980TIP3    H245356   5.642   3.222  16.968 -1.7402  0.5343 -1.2959
 7981TIP3   OH245357   6.126   2.104  16.397  0.0296  0.6763 -0.4694
 7981TIP3    H145358   6.218   2.116  16.419 -0.0993  0.9213 -0.0605
 7981TIP3    H245359   6.115   2.150  16.313  0.9820 -1.9375 -2.1530
 7982TIP3   OH245360   1.441   0.836   1.475  0.3428 -0.4261  0.2663
 7982TIP3    H145361   1.362   0.888   1.460  1.0042  1.0227  1.5728
 7982TIP3    H245362   1.453   0.788   1.393 -1.5406 -0.2392 -0.1755
 7983TIP3   OH245363   1.833   3.068   0.846  0.0357 -0.4948  0.3148
 7983TIP3    H145364   1.895   3.140   0.835 -0.7203 -0.1388 -2.2062
 7983TIP3    H245365   1.879   2.991   0.812 -0.7141 -0.2918 -1.2510
 7984TIP3   OH245366   5.152   1.561   5.448 -0.1013 -0.1630 -0.1103
 7984TIP3    H145367   5.059   1.577   5.467 -0.2226  0.2800 -1.0052
 7984TIP3    H245368   5.199   1.620   5.507 -0.3536 -0.8226  0.7766
 7985TIP3   OH245369   4.640   5.287   2.329  0.3180 -0.2751  0.2102
 7985TIP3    H145370   4.554   5.254   2.301  0.2585 -0.6265  0.7948
 7985TIP3    H245371   4.671   5.339   2.254 -0.4834  0.0038  0.0542
 7986TIP3   OH245372   6.194   2.085  15.912  0.1687  0.1620  0.1397
 7986TIP3    H145373   6.106   2.075  15.949 -1.0374 -1.0369 -2.7444
 7986TIP3    H245374   6.240   2.143  15.973 -2.7285  1.1050  1.5798
 7987TIP3   OH245375   0.901   6.592   6.258 -0.2561  0.2781 -0.2751
 7987TIP3    H145376   0.956   6.520   6.228 -0.4287 -0.5827  1.3969
 7987TIP3    H245377   0.962   6.664   6.273  0.1976 -0.1459 -0.0511
 7988TIP3   OH245378   1.374   2.545   0.888  0.6161 -0.0305 -0.6962
 7988TIP3    H145379   1.367   2.636   0.859  0.2901  0.3162  0.4306
 7988TIP3    H245380   1.415   2.500   0.814  4.2098  1.7215 -0.0121
 7989TIP3   OH245381   5.212   5.141   3.163 -0.2190 -0.7819 -0.4913
 7989TIP3    H145382   5.260   5.060   3.148  0.2645 -0.1844 -2.4928
 7989TIP3    H245383   5.121   5.119   3.142  0.0013 -0.6988 -1.6145
 7990TIP3   OH245384   0.417   1.334   3.117 -0.4073 -0.3922 -0.2465
 7990TIP3    H145385   0.387   1.397   3.052 -1.3928  0.2403  0.7878
 7990TIP3    H245386   0.485   1.380   3.166  1.6503 -1.4826 -1.9379
 7991TIP3   OH245387   6.715   6.152  17.014  0.4135 -0.3159  0.1300
 7991TIP3    H145388   6.667   6.112  16.941 -0.9292  3.1547 -1.0740
 7991TIP3    H245389   6.731   6.079  17.074  0.3097 -3.0917 -2.9061
 7992TIP3   OH245390   4.757   0.991   2.034  0.1521  0.2084  0.6767
 7992TIP3    H145391   4.755   0.965   1.942  0.6949  0.3764  0.6152
 7992TIP3    H245392   4.812   0.926   2.077 -1.3633 -0.7747  1.1843
 7993TIP3   OH245393   4.293   0.983   3.076 -0.4699 -0.0391 -0.4769
 7993TIP3    H145394   4.276   0.997   2.983  0.5927 -0.6969 -0.7808
 7993TIP3    H245395   4.388   0.978   3.083 -0.5468 -0.2199  0.6176
 7994TIP3   OH245396   0.971   3.863   5.256  0.2349 -0.7442  0.2843
 7994TIP3    H145397   0.980   3.950   5.216  2.1926 -0.7071  0.7399
 7994TIP3    H245398   0.947   3.805   5.184  0.0147 -0.0273 -0.2293
 7995TIP3   OH245399   2.935   4.233   1.405 -0.4845 -0.0988  0.0773
 7995TIP3    H145400   2.893   4.245   1.490 -2.4852 -1.2019 -0.6960
 7995TIP3    H245401   2.993   4.158   1.417  0.7791  0.9655  0.9499
 7996TIP3   OH245402   1.239   2.620  16.770 -0.2211  0.5030  0.9137
 7996TIP3    H145403   1.279   2.545  16.725  0.0543  0.9704  0.3675
 7996TIP3    H245404   1.274   2.696  16.724 -0.1587  0.9821  1.7537
 7997TIP3   OH245405   2.964   3.498   2.547 -0.1949  0.0399 -0.1225
 7997TIP3    H145406   3.012   3.542   2.477  3.2362 -1.7024  0.9134
 7997TIP3    H245407   2.950   3.409   2.516  0.5869 -0.5010  0.9728
 7998TIP3   OH245408   0.377   0.557  11.884  0.0229  0.1937  0.2825
 7998TIP3    H145409   0.344   0.598  11.805  1.2072 -0.4599 -0.5826
 7998TIP3    H245410   0.429   0.483  11.853  0.6709  0.0402  1.6520
 7999TIP3   OH245411   2.585   1.370   3.214 -0.6075 -0.2326 -0.4165
 7999TIP3    H145412   2.492   1.395   3.210 -0.8681 -1.1415 -0.3434
 7999TIP3    H245413   2.583   1.274   3.217  0.2717 -0.2289  1.2737
 8000TIP3   OH245414   5.134   6.351  13.080 -0.2001 -0.2582 -0.3786
 8000TIP3    H145415   5.164   6.267  13.046 -0.7866 -0.8868  0.6090
 8000TIP3    H245416   5.200   6.376  13.145  0.5271  0.5789 -1.4024
 8001TIP3   OH245417   2.462   4.189   3.534 -0.1851  0.0441  0.0934
 8001TIP3    H145418   2.546   4.226   3.507 -0.6414 -0.2974 -1.9384
 8001TIP3    H245419   2.397   4.256   3.511 -1.1628 -2.0875 -4.6662
 8002TIP3   OH245420   1.063   5.616   1.584 -0.5332 -0.3669 -0.5817
 8002TIP3    H145421   0.980   5.572   1.606 -0.6987 -0.5238 -1.4905
 8002TIP3    H245422   1.130   5.549   1.598 -0.5824 -0.3347 -0.1551
 8003TIP3   OH245423   3.969   3.578  17.279  0.2742 -0.3231  0.4888
 8003TIP3    H145424   3.963   3.483  17.271 -1.3733 -0.3173  1.2914
 8003TIP3    H245425   3.907   3.613  17.216  0.1172  0.1917  0.9169
 8004TIP3   OH245426   1.995   0.855  12.128 -0.0712  0.8026 -0.3529
 8004TIP3    H145427   2.072   0.824  12.175  0.0280  1.1080 -0.3097
 8004TIP3    H245428   1.934   0.883  12.197 -0.3652  0.2279 -0.3749
 8005TIP3   OH245429   6.535   3.856  16.614 -0.3586 -0.1405  0.2462
 8005TIP3    H145430   6.594   3.929  16.632 -0.5368 -0.0795  0.5899
 8005TIP3    H245431   6.534   3.849  16.519  1.1539 -0.9114  0.2495
 8006TIP3   OH245432   0.933   6.195   3.001  0.0889 -0.0127 -0.5524
 8006TIP3    H145433   0.862   6.201   2.938 -1.2680  0.9095  0.9777
 8006TIP3    H245434   0.920   6.269   3.060  1.0173 -1.0486  1.0598
 8007TIP3   OH245435   5.783   6.642  13.016 -1.0346 -0.1219 -0.5479
 8007TIP3    H145436   5.875   6.649  13.041 -1.6109  0.3319  1.6341
 8007TIP3    H245437   5.779   6.683  12.930  0.9327 -0.9208 -1.0692
 8008TIP3   OH245438   0.565   0.647   1.692 -0.0535 -0.0479 -0.6278
 8008TIP3    H145439   0.634   0.668   1.629 -0.1517  1.2735 -0.3337
 8008TIP3    H245440   0.573   0.553   1.706 -0.8081 -0.6394 -3.5245
 8009TIP3   OH245441   4.490   2.382   1.466  0.7195  0.5094 -0.4857
 8009TIP3    H145442   4.476   2.401   1.373 -0.6846  2.3797  0.0491
 8009TIP3    H245443   4.438   2.448   1.512  0.7763 -0.8427  1.6437
 8010TIP3   OH245444   0.497   1.150  16.201 -0.1692 -0.0475 -0.0463
 8010TIP3    H145445   0.524   1.074  16.150  0.4122  0.6215 -0.7563
 8010TIP3    H245446   0.564   1.216  16.184 -0.8563  0.7576  0.2702
 8011TIP3   OH245447   0.009   6.085   4.059  0.5037  0.2074  0.1352
 8011TIP3    H145448   0.030   6.145   4.130  0.8107 -0.7991  0.9222
 8011TIP3    H245449   0.046   6.001   4.087  0.8232 -0.1614 -1.3206
 8012TIP3   OH245450   3.754   6.053  17.113 -0.0259 -0.4664  0.0605
 8012TIP3    H145451   3.809   6.095  17.179  0.4218 -0.8838 -0.0398
 8012TIP3    H245452   3.676   6.108  17.107  0.2324 -0.0580  0.4520
 8013TIP3   OH245453   3.207   3.055  14.737 -0.6996 -0.1641  0.0190
 8013TIP3    H145454   3.213   3.142  14.698 -0.2593 -0.1340  0.1461
 8013TIP3    H245455   3.281   3.007  14.701  0.9349  0.4808  2.2903
 8014TIP3   OH245456   0.945   4.194   3.599  0.1434 -0.8175  0.1916
 8014TIP3    H145457   0.969   4.227   3.512 -0.9500  1.9461  0.8366
 8014TIP3    H245458   0.850   4.182   3.594  0.0571 -0.4941  1.0490
 8015TIP3   OH245459   2.871   2.187  11.320 -0.5816 -0.3684  0.0841
 8015TIP3    H145460   2.852   2.165  11.229  0.4079 -0.9574  0.0077
 8015TIP3    H245461   2.942   2.251  11.315 -0.9295  0.0500  0.4243
 8016TIP3   OH245462   2.226   1.517  17.178  0.4624  0.2763 -0.3011
 8016TIP3    H145463   2.251   1.586  17.117  1.3758 -0.5452 -0.8989
 8016TIP3    H245464   2.147   1.549  17.221 -0.0739  0.9769 -1.7619
 8017TIP3   OH245465   2.239   1.962   3.455 -0.1604 -0.3418 -0.3667
 8017TIP3    H145466   2.309   2.026   3.450 -0.6968  0.4683  1.4743
 8017TIP3    H245467   2.171   2.004   3.509 -2.1499 -1.0293 -2.1747
 8018TIP3   OH245468   5.964   6.490  14.505  0.1964 -0.5970 -0.4423
 8018TIP3    H145469   5.953   6.418  14.442  2.8780  0.7452 -2.6432
 8018TIP3    H245470   6.033   6.460  14.564  0.7395 -0.1533 -0.8514
 8019TIP3   OH245471   1.916   1.899  17.039 -0.0476  1.0478 -0.0478
 8019TIP3    H145472   1.845   1.852  17.083  0.4642 -2.6900 -2.7180
 8019TIP3    H245473   1.993   1.844  17.053  1.2398  2.4660 -1.2231
 8020TIP3   OH245474   5.969   1.211   1.228 -0.2311 -0.3709  0.3820
 8020TIP3    H145475   6.009   1.132   1.266  0.7602  0.5023  1.2091
 8020TIP3    H245476   5.949   1.267   1.303  1.4677  1.2507 -0.2898
 8021TIP3   OH245477   2.552   4.738  12.355 -0.0613 -0.2047  0.2298
 8021TIP3    H145478   2.643   4.760  12.376 -0.1201  1.0898 -0.7505
 8021TIP3    H245479   2.501   4.780  12.424 -0.0001  0.3686 -0.0704
 8022TIP3   OH245480   0.914   4.407   4.995  0.3082 -0.0716  0.3580
 8022TIP3    H145481   0.973   4.346   4.951  0.3642  2.4077 -3.4347
 8022TIP3    H245482   0.833   4.403   4.946 -0.3484  1.4936  1.2315
 8023TIP3   OH245483   6.528   3.809   6.308 -0.3637  0.0066 -0.5517
 8023TIP3    H145484   6.472   3.775   6.378 -0.2811 -1.9120 -1.3348
 8023TIP3    H245485   6.607   3.839   6.353 -1.8903  2.6599  0.5552
 8024TIP3   OH245486   4.390   0.083  11.988 -0.3025  0.1073  0.8132
 8024TIP3    H145487   4.333   0.043  12.053  0.9137 -1.4325  0.9741
 8024TIP3    H245488   4.436   0.010  11.947 -0.6781  1.0716 -1.4749
 8025TIP3   OH245489   0.393   6.209   4.705 -0.5125 -0.2138  0.4398
 8025TIP3    H145490   0.375   6.256   4.786 -0.3153 -0.2121  0.4815
 8025TIP3    H245491   0.478   6.168   4.718 -0.1126  0.4334 -0.0612
 8026TIP3   OH245492   3.402   4.467   0.595  0.1501  0.9553  0.2147
 8026TIP3    H145493   3.454   4.389   0.611 -1.1514  0.2479  1.1992
 8026TIP3    H245494   3.316   4.447   0.633 -0.7004  2.2569 -0.9090
 8027TIP3   OH245495   0.898   2.184  13.263 -1.0242  0.2253  0.9512
 8027TIP3    H145496   0.807   2.174  13.236 -1.0520  0.6440  0.8822
 8027TIP3    H245497   0.948   2.133  13.200 -1.2932 -0.9558  1.6541
 8028TIP3   OH245498   0.190   2.194  14.454  0.1159  0.0856  0.0034
 8028TIP3    H145499   0.163   2.120  14.509 -0.5093 -0.5660 -1.1525
 8028TIP3    H245500   0.286   2.189  14.454  0.1516  0.3458  1.3451
 8029TIP3   OH245501   1.292   1.904  11.393 -0.3280  0.2515 -0.2930
 8029TIP3    H145502   1.367   1.872  11.343 -0.0778  0.1276  0.1513
 8029TIP3    H245503   1.229   1.930  11.327 -1.3199 -2.8795 -0.7620
 8030TIP3   OH245504   2.652   6.701  13.450 -0.0894  0.1301 -0.0556
 8030TIP3    H145505   2.626   6.623  13.400  0.5353 -0.8638  1.1204
 8030TIP3    H245506   2.583   6.710  13.517  1.2075 -1.0853  1.5399
 8031TIP3   OH245507   5.699   1.867  15.632  0.2101 -0.2258  0.0710
 8031TIP3    H145508   5.724   1.907  15.548 -0.6508 -1.1376 -0.6394
 8031TIP3    H245509   5.604   1.857  15.627  0.1961 -0.6747  0.9950
 8032TIP3   OH245510   1.831   1.372   3.652 -0.2741  0.0759  0.5370
 8032TIP3    H145511   1.756   1.372   3.711 -1.5369 -0.1919 -1.0077
 8032TIP3    H245512   1.806   1.431   3.581 -0.0647 -1.8717 -1.2404
 8033TIP3   OH245513   0.255   6.346  16.261 -0.1443  0.4050 -0.1484
 8033TIP3    H145514   0.296   6.286  16.199 -0.8330  1.7857 -2.0077
 8033TIP3    H245515   0.269   6.433  16.224 -0.9057  1.2625  1.4565
 8034TIP3   OH245516   5.630   1.249   3.981  0.0520  0.1890 -0.6507
 8034TIP3    H145517   5.614   1.190   3.907 -0.2574 -0.5377 -0.0131
 8034TIP3    H245518   5.714   1.220   4.017  0.3787  0.7725 -0.9273
 8035TIP3   OH245519   2.013   2.219   5.350 -0.2814  0.1664 -0.1873
 8035TIP3    H145520   1.961   2.260   5.281 -0.1906 -0.0953 -0.4147
 8035TIP3    H245521   1.957   2.150   5.385 -1.2493  1.7437  1.5936
 8036TIP3   OH245522   0.245   1.734   0.868  0.1354  0.6989 -0.3611
 8036TIP3    H145523   0.300   1.669   0.824  1.6756  0.5069  1.7075
 8036TIP3    H245524   0.175   1.682   0.908  0.5261  0.4844  0.0502
 8037TIP3   OH245525   4.081   0.769  12.514 -0.0161  0.2776  0.4237
 8037TIP3    H145526   4.056   0.677  12.514  0.1252  0.2277  1.2221
 8037TIP3    H245527   4.173   0.768  12.540  0.1223  0.6129 -0.0511
 8038TIP3   OH245528   2.376   1.932   4.819  0.8742  0.5599  0.2834
 8038TIP3    H145529   2.414   1.958   4.903  1.0414 -1.0895  0.7359
 8038TIP3    H245530   2.281   1.937   4.833  0.9015  0.2191  0.5978
 8039TIP3   OH245531   6.234   5.772  15.754  0.2084  0.8947 -0.4556
 8039TIP3    H145532   6.253   5.678  15.747 -0.6120  0.6906 -0.0500
 8039TIP3    H245533   6.189   5.781  15.837 -0.0165  1.6063 -0.6493
 8040TIP3   OH245534   1.017   0.548  16.799  0.0496  0.1478 -0.3387
 8040TIP3    H145535   0.967   0.467  16.786 -2.7167  1.5582  0.8980
 8040TIP3    H245536   1.073   0.553  16.721 -0.3490 -2.4722 -0.8928
 8041TIP3   OH245537   4.753   4.733  12.077 -0.1492 -1.0138  0.1417
 8041TIP3    H145538   4.816   4.704  12.142 -0.2351 -3.1745 -0.6462
 8041TIP3    H245539   4.682   4.669  12.081 -0.1290 -1.2632 -2.0839
 8042TIP3   OH245540   3.270   2.465   1.297  0.3488  0.3295 -0.1384
 8042TIP3    H145541   3.338   2.405   1.329 -1.5626 -2.7643 -1.5033
 8042TIP3    H245542   3.238   2.509   1.375  1.3991 -0.8902  1.0211
 8043TIP3   OH245543   5.694   0.419  14.790 -0.1654  0.1234 -0.2338
 8043TIP3    H145544   5.640   0.497  14.778  1.7005  1.0105 -6.0103
 8043TIP3    H245545   5.632   0.351  14.814 -2.5409  2.4789  0.8537
 8044TIP3   OH245546   3.426   6.724   0.689  0.8363  0.2049  0.5779
 8044TIP3    H145547   3.346   6.671   0.681 -0.4285  2.0652  0.2240
 8044TIP3    H245548   3.481   6.695   0.616  0.1779 -0.6012  0.3826
 8045TIP3   OH245549   3.353   2.085   4.373  0.0155 -0.5067  0.2238
 8045TIP3    H145550   3.423   2.128   4.422  1.5994  0.8524 -2.9584
 8045TIP3    H245551   3.273   2.112   4.418  1.2007  2.8377  0.6023
 8046TIP3   OH245552   4.556   1.196  12.556  0.6359 -0.6501 -0.4619
 8046TIP3    H145553   4.600   1.121  12.516  1.1478 -0.6215  0.0317
 8046TIP3    H245554   4.482   1.158  12.603  0.4295 -0.7572 -0.8713
 8047TIP3   OH245555   5.147   4.290   4.258 -0.0914  0.0401  0.0220
 8047TIP3    H145556   5.231   4.333   4.242 -0.9663  2.4624  1.3866
 8047TIP3    H245557   5.096   4.355   4.306 -3.1085 -0.9644 -1.5884
 8048TIP3   OH245558   3.159   2.870  16.152 -0.2214  0.1504 -0.3687
 8048TIP3    H145559   3.154   2.946  16.209 -0.6447 -0.2717  0.1616
 8048TIP3    H245560   3.253   2.850  16.146 -0.2459 -0.7967  1.5326
 8049TIP3   OH245561   0.184   3.609  11.660  0.3223  0.2007  0.0269
 8049TIP3    H145562   0.239   3.625  11.737  0.4280  0.0151 -0.0086
 8049TIP3    H245563   0.148   3.522  11.674 -0.8227  0.7336  0.5665
 8050TIP3   OH245564   2.714   5.700   0.291  0.2977  0.6548  0.2367
 8050TIP3    H145565   2.773   5.640   0.337  0.2782 -0.5936 -1.2860
 8050TIP3    H245566   2.630   5.689   0.335  0.1126 -1.0275 -0.4530
 8051TIP3   OH245567   0.386   1.557   0.498 -0.7355 -0.5002  0.6978
 8051TIP3    H145568   0.385   1.500   0.422 -0.7693  1.4644 -0.8705
 8051TIP3    H245569   0.467   1.534   0.544 -0.7410 -1.7691  0.1231
 8052TIP3   OH245570   3.578   5.522   4.288  0.6352  0.2284  0.5243
 8052TIP3    H145571   3.667   5.554   4.279  0.3834  1.0375  0.8310
 8052TIP3    H245572   3.560   5.476   4.206 -0.1612  3.7917 -1.5214
 8053TIP3   OH245573   0.458   0.431   3.189  0.4191 -0.3786  0.1501
 8053TIP3    H145574   0.500   0.370   3.250  0.8613 -0.8834 -0.6481
 8053TIP3    H245575   0.462   0.516   3.234  0.2939 -0.8271  1.0273
 8054TIP3   OH245576   4.652   2.357   1.905 -0.5062 -0.0042 -0.3551
 8054TIP3    H145577   4.654   2.267   1.875 -0.9438  0.5612 -2.2323
 8054TIP3    H245578   4.740   2.374   1.937 -0.5553 -1.2196  0.4951
 8055TIP3   OH245579   6.496   2.562   2.522 -0.1066 -0.0283  0.0298
 8055TIP3    H145580   6.466   2.638   2.572  2.3043  1.0458  0.0288
 8055TIP3    H245581   6.420   2.534   2.472 -1.5000  1.3987  1.2298
 8056TIP3   OH245582   1.658   5.117   2.320 -0.3234 -0.1062 -0.3616
 8056TIP3    H145583   1.568   5.150   2.326 -1.0122 -2.1312  2.0901
 8056TIP3    H245584   1.665   5.081   2.232 -2.1452 -0.5218 -0.3623
 8057TIP3   OH245585   4.514   5.714   3.514 -0.3905  0.1077 -0.2287
 8057TIP3    H145586   4.522   5.809   3.519  1.2598 -0.0611  1.2926
 8057TIP3    H245587   4.431   5.695   3.559 -1.3824  0.8611 -1.6485
 8058TIP3   OH245588   6.092   4.617  16.018  0.5931  0.4219 -0.4244
 8058TIP3    H145589   6.120   4.697  15.973  1.2012 -1.1991 -3.1629
 8058TIP3    H245590   6.114   4.546  15.958 -1.3144 -1.7360  1.2026
 8059TIP3   OH245591   4.154   4.373  14.152  0.7498 -0.4800  0.3768
 8059TIP3    H145592   4.195   4.351  14.236 -2.7122 -1.9108  1.8799
 8059TIP3    H245593   4.116   4.291  14.122 -0.6972  0.6417 -1.0289
 8060TIP3   OH245594   6.404   6.739  12.307  0.1618  0.0410 -0.3732
 8060TIP3    H145595   6.312   6.723  12.328  0.3875 -0.8364 -0.0009
 8060TIP3    H245596   6.406   6.748  12.212 -0.2888 -0.0603 -0.3924
 8061TIP3   OH245597   5.368   2.842   5.230 -0.4641 -0.3905  0.1558
 8061TIP3    H145598   5.379   2.931   5.263  3.6077 -0.4476 -0.5410
 8061TIP3    H245599   5.304   2.850   5.160 -1.3524  1.6531  1.1165
 8062TIP3   OH245600   6.397   2.735  14.855  0.2609 -0.3673 -0.2800
 8062TIP3    H145601   6.367   2.654  14.895  0.2413  0.2434  0.9878
 8062TIP3    H245602   6.318   2.786  14.841  0.5601  1.8102  4.3087
 8063TIP3   OH245603   3.269   4.094  16.080  0.6932  0.5364 -0.7971
 8063TIP3    H145604   3.330   4.046  16.136 -0.6026  1.4186  1.5400
 8063TIP3    H245605   3.318   4.169  16.048  1.3726  0.1973 -0.5594
 8064TIP3   OH245606   0.415   4.322  12.637  0.5384  0.0571 -0.0274
 8064TIP3    H145607   0.491   4.264  12.634 -0.6716 -1.5389 -0.8994
 8064TIP3    H245608   0.394   4.341  12.546 -1.2170 -1.0603  0.0979
 8065TIP3   OH245609   3.580   1.545   0.605 -0.3684 -0.0851  0.5581
 8065TIP3    H145610   3.557   1.507   0.520 -1.0198  1.8135 -0.1569
 8065TIP3    H245611   3.655   1.602   0.586  0.9046 -1.2855  1.6942
 8066TIP3   OH245612   4.960   5.108   3.459  0.0040  0.2752 -0.3478
 8066TIP3    H145613   5.016   5.183   3.440 -0.8887  1.0253 -0.0855
 8066TIP3    H245614   4.961   5.056   3.379 -0.6217  1.3811 -1.0949
 8067TIP3   OH245615   1.793   2.360   1.227  0.4092 -0.1776  0.0304
 8067TIP3    H145616   1.825   2.351   1.316  1.0679  1.7505  0.0367
 8067TIP3    H245617   1.774   2.453   1.217 -0.2183 -0.4368 -1.6606
 8068TIP3   OH245618   0.211   2.395  16.439  0.2014 -0.6681  0.0889
 8068TIP3    H145619   0.235   2.484  16.413  1.6931 -0.7486  1.0412
 8068TIP3    H245620   0.220   2.395  16.535 -1.2102 -1.4490  0.2412
 8069TIP3   OH245621   4.627   6.586  11.703 -0.0868  0.1640  0.0110
 8069TIP3    H145622   4.537   6.597  11.735 -0.2129  1.3123 -0.6902
 8069TIP3    H245623   4.678   6.650  11.752  0.2599 -0.1576  0.0700
 8070TIP3   OH245624   0.188   2.823   5.689  0.1720  0.1342  0.0169
 8070TIP3    H145625   0.206   2.770   5.766  2.0987  0.4411 -0.1756
 8070TIP3    H245626   0.129   2.770   5.636  0.3631 -0.8897  0.8107
 8071TIP3   OH245627   0.314   3.552  16.734 -0.3134 -0.0627  0.0254
 8071TIP3    H145628   0.405   3.568  16.755 -0.4987 -0.6078  1.3066
 8071TIP3    H245629   0.266   3.568  16.815 -1.3620  0.2154 -0.6196
 8072TIP3   OH245630   4.822   3.612  11.919  0.3243 -0.4875  0.1892
 8072TIP3    H145631   4.836   3.551  11.991  2.2234  0.3637  0.6308
 8072TIP3    H245632   4.906   3.658  11.911 -0.3991  0.6437 -1.4397
 8073TIP3   OH245633   1.941   6.629   4.684  0.5055 -0.0432  0.2938
 8073TIP3    H145634   1.976   6.565   4.747  0.3483  0.7755  1.2494
 8073TIP3    H245635   2.002   6.703   4.689  0.5042  0.0234 -0.5575
 8074TIP3   OH245636   5.391   0.755   1.764 -0.0810 -0.3213 -0.2723
 8074TIP3    H145637   5.447   0.764   1.687  1.1961 -1.6908  0.4447
 8074TIP3    H245638   5.429   0.815   1.828 -0.9800  0.6112 -0.5707
 8075TIP3   OH245639   5.403   5.892   4.738  0.4577 -0.6869  0.3548
 8075TIP3    H145640   5.374   5.935   4.818  1.5080  0.1486  0.3109
 8075TIP3    H245641   5.324   5.888   4.683  0.0752  0.1054  0.8304
 8076TIP3   OH245642   1.853   1.527  16.184  0.0328  0.5695  0.0197
 8076TIP3    H145643   1.764   1.551  16.210 -0.7726 -1.3690 -0.7337
 8076TIP3    H245644   1.910   1.582  16.238 -1.6165  0.5575  1.8920
 8077TIP3   OH245645   3.413   2.009  15.027 -0.3152  0.1192  0.6768
 8077TIP3    H145646   3.374   2.071  14.965  0.3513  0.1321  0.2629
 8077TIP3    H245647   3.431   1.931  14.975 -0.7902 -0.2909  1.1105
 8078TIP3   OH245648   3.533   0.188   5.399  0.3833  0.1632 -0.2020
 8078TIP3    H145649   3.489   0.249   5.457 -1.9032 -0.3634 -1.2505
 8078TIP3    H245650   3.502   0.102   5.427 -0.0158 -0.1593 -1.5667
 8079TIP3   OH245651   6.233   5.658   1.470  0.3848  0.5438  0.2520
 8079TIP3    H145652   6.187   5.574   1.470  2.1283 -0.5635 -2.6089
 8079TIP3    H245653   6.304   5.647   1.533  1.0720 -0.5203 -0.6510
 8080TIP3   OH245654   0.292   6.017  12.315  0.3110  0.3464 -0.3949
 8080TIP3    H145655   0.244   6.026  12.397 -1.7209  0.7956 -1.5752
 8080TIP3    H245656   0.336   5.932  12.322  0.1770  0.3838  1.1374
 8081TIP3   OH245657   2.256   4.238   0.723 -0.3176  0.4122 -0.3040
 8081TIP3    H145658   2.258   4.232   0.628 -0.0407  0.3098 -0.2947
 8081TIP3    H245659   2.265   4.147   0.753 -0.4747  0.4371 -0.1828
 8082TIP3   OH245660   0.610   2.634  15.389 -0.6677 -0.3872 -0.1303
 8082TIP3    H145661   0.530   2.687  15.394 -0.8515 -0.5092 -1.4289
 8082TIP3    H245662   0.580   2.544  15.385 -0.3378 -0.6981  2.5662
 8083TIP3   OH245663   6.777   5.147   5.033  0.5658 -0.0647  0.0495
 8083TIP3    H145664   6.707   5.175   4.975  0.6377 -0.7244 -0.3735
 8083TIP3    H245665   6.740   5.153   5.121  0.2919  0.4718 -0.1006
 8084TIP3   OH245666   4.482   4.370   5.061  0.2545  0.5005 -0.7301
 8084TIP3    H145667   4.538   4.341   5.133 -0.3887  0.0943 -0.3798
 8084TIP3    H245668   4.489   4.300   4.996  0.0664  0.3999 -0.6407
 8085TIP3   OH245669   3.707   3.467  12.495  0.1522 -0.0779 -0.2005
 8085TIP3    H145670   3.650   3.392  12.477  0.7691 -0.8372  0.9039
 8085TIP3    H245671   3.700   3.522  12.417 -1.6270 -0.4454 -0.3445
 8086TIP3   OH245672   5.691   6.574  15.846 -0.1580 -0.0065 -0.2503
 8086TIP3    H145673   5.601   6.565  15.815 -1.3962  1.9131  2.3680
 8086TIP3    H245674   5.694   6.519  15.924  1.6031 -1.5464 -1.3299
 8087TIP3   OH245675   3.007   6.334   3.218  0.1545 -0.3772  0.0542
 8087TIP3    H145676   2.959   6.328   3.301 -0.9585 -2.3171 -0.6621
 8087TIP3    H245677   3.024   6.427   3.207 -2.4071  0.3051  0.9786
 8088TIP3   OH245678   1.040   4.647   5.432  0.6659 -0.2886  0.3528
 8088TIP3    H145679   1.065   4.586   5.363  0.5305  0.5141 -0.4158
 8088TIP3    H245680   1.103   4.719   5.425 -0.1548  0.4349  0.1787
 8089TIP3   OH245681   0.887   5.068  11.443  0.1003  0.9309  0.2633
 8089TIP3    H145682   0.868   5.157  11.472  0.6571  0.3068  2.7641
 8089TIP3    H245683   0.983   5.065  11.436 -0.0040  1.1723 -2.2952
 8090TIP3   OH245684   5.079   5.266   4.818 -0.2361  0.5628  0.2078
 8090TIP3    H145685   5.063   5.173   4.803 -0.3562  0.4318  1.1129
 8090TIP3    H245686   5.150   5.288   4.757  2.4823 -1.0290  2.5251
 8091TIP3   OH245687   6.576   5.230  12.686  0.2380 -0.2214  0.2506
 8091TIP3    H145688   6.568   5.318  12.649 -1.5084 -0.3591  0.2171
 8091TIP3    H245689   6.551   5.171  12.614  0.9995 -0.7266  0.3906
 8092TIP3   OH245690   2.686   5.739  14.746  0.5009 -0.0569  0.5233
 8092TIP3    H145691   2.713   5.668  14.689 -0.5652  0.2040 -0.3581
 8092TIP3    H245692   2.749   5.809  14.730  1.2669 -0.6161  1.0346
 8093TIP3   OH245693   1.328   3.228   0.087  1.4376 -0.4797  0.8861
 8093TIP3    H145694   1.377   3.307   0.107  2.1608 -1.0509  1.3766
 8093TIP3    H245695   1.280   3.250   0.007  0.9782  0.7292  1.4704
 8094TIP3   OH245696   0.363   1.629  14.057 -0.4573  0.9036 -0.4615
 8094TIP3    H145697   0.327   1.542  14.076 -1.7867  1.4105 -0.5575
 8094TIP3    H245698   0.381   1.666  14.143 -0.0272  0.6134 -0.4165
 8095TIP3   OH245699   1.491   3.776  16.634 -0.1135 -0.0538  0.2950
 8095TIP3    H145700   1.452   3.689  16.625 -0.7068  0.3063 -0.9355
 8095TIP3    H245701   1.584   3.760  16.650 -0.6035 -0.9270  2.5321
 8096TIP3   OH245702   5.630   3.019  11.586 -0.0387 -0.0307 -0.5618
 8096TIP3    H145703   5.620   2.936  11.539  0.5397 -0.1845 -0.4144
 8096TIP3    H245704   5.665   3.080  11.521  0.8721 -0.2735 -0.3178
 8097TIP3   OH245705   1.659   6.542   2.373 -0.3678 -0.1600  0.2840
 8097TIP3    H145706   1.750   6.571   2.367 -1.0132  1.9348 -0.1798
 8097TIP3    H245707   1.637   6.550   2.466  0.7302 -3.5534  0.9569
 8098TIP3   OH245708   5.902   2.174  15.653 -0.2341 -0.7051  0.2023
 8098TIP3    H145709   5.973   2.183  15.716 -0.9448 -1.6102  1.1667
 8098TIP3    H245710   5.823   2.191  15.705 -0.7094  1.1789 -1.0288
 8099TIP3   OH245711   2.808   0.558   0.325  0.2375  0.0105  0.3423
 8099TIP3    H145712   2.824   0.619   0.254 -1.1479 -0.2707 -0.2458
 8099TIP3    H245713   2.874   0.489   0.313 -0.2223 -0.2378 -0.9286
 8100TIP3   OH245714   2.499   0.494  12.332  0.1487  0.1820 -0.5260
 8100TIP3    H145715   2.427   0.490  12.268 -1.4173  1.2319  1.0795
 8100TIP3    H245716   2.558   0.561  12.297 -0.6649  0.7160 -0.9212
 8101TIP3   OH245717   6.078   1.407  11.944  0.1169 -0.1999 -0.1609
 8101TIP3    H145718   6.099   1.451  11.861 -1.7012 -1.2951 -1.2812
 8101TIP3    H245719   6.149   1.343  11.956  0.9787  0.7178 -0.2830
 8102TIP3   OH245720   6.281   5.674   3.972 -0.4164 -0.0140 -0.4517
 8102TIP3    H145721   6.364   5.653   4.016 -0.6269 -0.7483 -0.3839
 8102TIP3    H245722   6.306   5.690   3.881 -0.2785 -0.9409 -0.5882
 8103TIP3   OH245723   1.205   2.946   3.598  0.0096  0.3484  0.0121
 8103TIP3    H145724   1.271   2.959   3.529 -0.4332 -0.3829 -0.5513
 8103TIP3    H245725   1.196   3.033   3.638  0.8003  0.6176 -0.3690
 8104TIP3   OH245726   1.480   4.614  16.113  0.5088 -0.2324 -0.0518
 8104TIP3    H145727   1.491   4.586  16.021  0.1500  0.4514 -0.3042
 8104TIP3    H245728   1.415   4.683  16.109 -0.2483 -0.8770  0.8494
 8105TIP3   OH245729   1.604   0.460   4.712 -0.0871  0.3190  0.5232
 8105TIP3    H145730   1.660   0.404   4.767 -0.5420 -0.2045  0.4623
 8105TIP3    H245731   1.580   0.404   4.638 -0.0998  0.7788  0.1808
 8106TIP3   OH245732   1.437   5.162  16.498  0.1984  0.6997 -0.4308
 8106TIP3    H145733   1.376   5.089  16.499 -0.3579  1.1065 -1.8649
 8106TIP3    H245734   1.434   5.198  16.587 -1.5207  0.5919 -0.4038
 8107TIP3   OH245735   5.053   4.071   5.457 -0.2760  0.6005  0.2316
 8107TIP3    H145736   5.019   4.157   5.479  0.2025  0.4597  1.6050
 8107TIP3    H245737   5.101   4.043   5.535  1.2489 -0.0756 -0.8847
 8108TIP3   OH245738   0.207   1.025  15.488 -0.8459 -0.4720 -0.2651
 8108TIP3    H145739   0.269   1.056  15.554  0.1220 -1.4804 -0.6689
 8108TIP3    H245740   0.233   0.935  15.471 -0.5281  0.0019 -2.6376
 8109TIP3   OH245741   0.510   4.461  12.916  0.0695  0.1701  0.1824
 8109TIP3    H145742   0.565   4.452  12.837  1.4973 -2.0254  1.3210
 8109TIP3    H245743   0.518   4.376  12.960 -2.8557  0.3931  1.3620
 8110TIP3   OH245744   3.175   2.352  11.300 -0.0059 -0.2689 -0.1185
 8110TIP3    H145745   3.248   2.410  11.320 -0.2120  0.2863 -0.9111
 8110TIP3    H245746   3.158   2.366  11.207 -1.5715  0.1589  0.2032
 8111TIP3   OH245747   4.268   6.157  11.474 -0.4741 -0.1649 -0.0416
 8111TIP3    H145748   4.223   6.079  11.444  1.8368 -1.7710  0.4167
 8111TIP3    H245749   4.199   6.223  11.484 -2.2868 -1.6751 -1.8439
 8112TIP3   OH245750   4.221   6.008   6.460  0.3831  0.2323 -0.0068
 8112TIP3    H145751   4.135   5.973   6.439  0.8862 -1.8603  1.2096
 8112TIP3    H245752   4.257   6.036   6.376 -0.5960 -0.9260 -0.8310
 8113TIP3   OH245753   2.123   6.413  11.576  0.1123 -0.6116  0.1836
 8113TIP3    H145754   2.113   6.479  11.507 -0.6554 -1.0462 -0.1389
 8113TIP3    H245755   2.046   6.357  11.566  0.1300 -0.8334  1.2360
 8114TIP3   OH245756   0.732   0.248  13.241  0.0214  0.4675  0.6067
 8114TIP3    H145757   0.765   0.186  13.176 -0.4029  0.1284  0.7137
 8114TIP3    H245758   0.680   0.310  13.190  0.9533  1.1155  0.4094
 8115TIP3   OH245759   4.559   0.106  17.170 -0.4312  0.2537  0.6533
 8115TIP3    H145760   4.503   0.118  17.246  0.2644  0.1259  1.1966
 8115TIP3    H245761   4.625   0.042  17.199 -0.5264 -0.2754 -0.2529
 8116TIP3   OH245762   2.938   5.487   5.805  0.4125  0.1030 -0.4078
 8116TIP3    H145763   2.852   5.526   5.820 -0.5528 -2.2035  0.4982
 8116TIP3    H245764   3.001   5.551   5.838 -0.9660  1.6433 -0.6985
 8117TIP3   OH245765   6.442   6.332  12.659  0.3336  0.1076 -0.3635
 8117TIP3    H145766   6.500   6.401  12.691  0.8398 -0.4666 -0.0203
 8117TIP3    H245767   6.446   6.341  12.563  0.6119  0.3785 -0.3307
 8118TIP3   OH245768   1.180   2.263   3.097  0.1971  0.2051  0.3302
 8118TIP3    H145769   1.221   2.334   3.048 -0.0727  0.9964  1.2256
 8118TIP3    H245770   1.235   2.252   3.174  1.8256 -2.4177 -1.0349
 8119TIP3   OH245771   6.330   6.403  17.139 -0.3461 -0.4206 -0.2024
 8119TIP3    H145772   6.284   6.486  17.146  0.4115 -0.0975  1.2749
 8119TIP3    H245773   6.302   6.367  17.054 -1.2551  0.9726 -0.5221
 8120TIP3   OH245774   3.354   3.392  12.864  0.2655  1.2572 -0.3231
 8120TIP3    H145775   3.416   3.320  12.855  0.4514  1.5412 -1.4913
 8120TIP3    H245776   3.408   3.469  12.882  0.5097  1.8682 -3.1651
 8121TIP3   OH245777   5.373   1.815  15.272 -0.5136  0.7756  0.1845
 8121TIP3    H145778   5.400   1.877  15.204 -2.5579  2.3849  0.7501
 8121TIP3    H245779   5.453   1.767  15.293  0.4478  0.9854 -2.5228
 8122TIP3   OH245780   0.475   0.980  12.726  0.4488  0.1502 -0.1447
 8122TIP3    H145781   0.458   0.888  12.710  3.2057 -0.2883 -1.1235
 8122TIP3    H245782   0.570   0.986  12.734  0.4513  3.0309 -1.0039
 8123TIP3   OH245783   6.331   4.080   5.122 -0.3988  0.3773  0.1501
 8123TIP3    H145784   6.402   4.145   5.120 -0.5236  0.5151  0.1595
 8123TIP3    H245785   6.289   4.089   5.037 -0.6469  0.5687  0.2912
 8124TIP3   OH245786   2.937   2.625  12.683  0.1953 -0.1187 -0.0482
 8124TIP3    H145787   2.953   2.703  12.735  0.9865 -0.0436 -0.3937
 8124TIP3    H245788   2.988   2.556  12.727  0.3063 -0.2117 -0.3231
 8125TIP3   OH245789   0.957   0.515   5.055 -0.1392 -0.4083 -0.0561
 8125TIP3    H145790   1.038   0.476   5.023  0.0438  1.1546 -1.6866
 8125TIP3    H245791   0.985   0.597   5.096 -0.8028 -0.3522  0.2963
 8126TIP3   OH245792   2.095   3.107   4.899 -0.0814  0.1992  0.4192
 8126TIP3    H145793   2.033   3.041   4.869  1.3405  0.1783 -2.9135
 8126TIP3    H245794   2.138   3.068   4.975 -0.4531 -2.0029 -0.4332
 8127TIP3   OH245795   3.305   2.885   1.169 -0.4947  0.5127  0.4695
 8127TIP3    H145796   3.257   2.932   1.101  1.9796  2.5577 -0.0161
 8127TIP3    H245797   3.289   2.793   1.150 -1.6231  1.0629 -1.5534
 8128TIP3   OH245798   6.510   4.396   1.753 -0.2918 -0.1825  0.2675
 8128TIP3    H145799   6.522   4.334   1.825 -0.0705 -0.2916  0.1362
 8128TIP3    H245800   6.417   4.416   1.754 -0.1284  0.5930  1.2352
 8129TIP3   OH245801   3.092   0.495  13.836 -0.0147 -0.3501  0.4173
 8129TIP3    H145802   3.094   0.536  13.750 -2.6396  1.8078  1.2539
 8129TIP3    H245803   3.127   0.407  13.821  3.4036  1.1645 -1.9940
 8130TIP3   OH245804   0.258   5.528  15.368  0.5149 -0.5222 -0.0397
 8130TIP3    H145805   0.307   5.584  15.427 -0.2780 -0.4874  0.6114
 8130TIP3    H245806   0.168   5.530  15.403  0.3538 -1.7034 -0.3585
 8131TIP3   OH245807   1.813   1.008   1.208  0.2123  0.1827  0.5378
 8131TIP3    H145808   1.806   1.081   1.146 -0.4416  0.2220  0.6507
 8131TIP3    H245809   1.846   1.047   1.289 -1.0939  0.5394  0.9091
 8132TIP3   OH245810   4.487   6.624   0.220  0.3147 -0.0117 -0.0275
 8132TIP3    H145811   4.444   6.636   0.135 -0.0381  0.6302  0.2330
 8132TIP3    H245812   4.551   6.696   0.224 -1.0484  1.1955  1.0852
 8133TIP3   OH245813   0.716   4.124  17.246  0.1275 -0.1690 -0.5581
 8133TIP3    H145814   0.780   4.053  17.257  1.1407  0.6501 -0.9691
 8133TIP3    H245815   0.721   4.173  17.328  0.1825  0.0044 -0.6632
 8134TIP3   OH245816   2.905   6.279   2.882  0.1879  0.1801  0.3713
 8134TIP3    H145817   2.895   6.297   2.975  3.0771 -0.1894  0.8365
 8134TIP3    H245818   2.859   6.196   2.868  0.3158 -0.1109  1.6275
 8135TIP3   OH245819   3.270   2.407  16.233 -0.2855  0.2044  0.3717
 8135TIP3    H145820   3.270   2.312  16.245  0.6133 -0.0858 -1.5757
 8135TIP3    H245821   3.190   2.437  16.275 -1.1889 -1.5702 -0.0170
 8136TIP3   OH245822   6.103   1.875   4.958 -0.1087  0.5136  0.4777
 8136TIP3    H145823   6.071   1.888   4.869  2.1377 -1.4526 -0.7318
 8136TIP3    H245824   6.060   1.795   4.988  0.7554 -0.0373  0.2878
 8137TIP3   OH245825   2.592   1.627  13.316 -0.1421 -0.4373 -0.1512
 8137TIP3    H145826   2.514   1.649  13.366  0.7209  1.1920  0.5331
 8137TIP3    H245827   2.559   1.576  13.242 -1.6354 -1.3525  1.0911
 8138TIP3   OH245828   6.349   0.746  13.163 -0.4442  0.1534 -0.2395
 8138TIP3    H145829   6.307   0.673  13.117 -0.1143 -1.7206  2.2423
 8138TIP3    H245830   6.442   0.738  13.139 -0.1397 -1.3154  1.2459
 8139TIP3   OH245831   6.559   1.877  13.220  0.4080  0.1068  0.4385
 8139TIP3    H145832   6.612   1.799  13.205  1.3467  1.0617 -1.5508
 8139TIP3    H245833   6.478   1.843  13.259  1.1491 -1.7386  0.4927
 8140TIP3   OH245834   5.462   5.647  13.279  0.1208  0.6144  0.2170
 8140TIP3    H145835   5.373   5.674  13.254  1.4693  3.5332 -1.9750
 8140TIP3    H245836   5.480   5.694  13.360 -0.9912 -1.7516  1.9769
 8141TIP3   OH245837   4.193   6.001  13.062 -0.7367  0.2604 -0.1241
 8141TIP3    H145838   4.274   5.954  13.040 -0.6422  0.5561 -0.4355
 8141TIP3    H245839   4.163   5.962  13.144  1.1735  1.9111  1.4899
 8142TIP3   OH245840   2.548   4.328   2.061 -0.4689 -0.0830  0.0349
 8142TIP3    H145841   2.461   4.358   2.089  0.0233  1.1293  0.2848
 8142TIP3    H245842   2.534   4.235   2.039 -1.9975  0.2683 -0.6545
 8143TIP3   OH245843   6.310   6.222   1.874  0.0046 -0.0489 -0.6463
 8143TIP3    H145844   6.320   6.226   1.779 -1.1063  1.3491 -0.7421
 8143TIP3    H245845   6.373   6.287   1.907 -0.1189 -0.0155 -0.4771
 8144TIP3   OH245846   6.530   4.923   5.457 -0.0605  0.2601 -0.3361
 8144TIP3    H145847   6.481   4.857   5.507 -0.1122  0.6586  0.1532
 8144TIP3    H245848   6.569   4.979   5.524  0.1774  0.5891 -0.7442
 8145TIP3   OH245849   6.304   5.942   2.994  0.3221 -0.0020  0.0913
 8145TIP3    H145850   6.283   6.035   2.995  0.2607 -0.0034 -0.6716
 8145TIP3    H245851   6.232   5.900   3.041  0.1351  0.2920  0.0635
 8146TIP3   OH245852   5.678   0.762   3.409  0.1980  0.7092  0.1489
 8146TIP3    H145853   5.737   0.687   3.403  0.1245  0.6972 -0.5514
 8146TIP3    H245854   5.633   0.764   3.324 -0.4191  1.0361  0.4761
 8147TIP3   OH245855   4.213   6.278   0.263 -0.5943  0.6799 -0.2319
 8147TIP3    H145856   4.215   6.224   0.342 -3.2597  0.6229 -0.0844
 8147TIP3    H245857   4.255   6.360   0.289  1.1947 -0.3483  0.3099
 8148TIP3   OH245858   5.215   6.596   3.509  0.4755  0.7045  0.1199
 8148TIP3    H145859   5.171   6.513   3.527  0.1340  0.6014 -1.0895
 8148TIP3    H245860   5.156   6.662   3.547 -0.1275  0.4874 -0.4066
 8149TIP3   OH245861   0.224   3.084   2.499 -0.0087  0.1285  0.0055
 8149TIP3    H145862   0.257   3.000   2.467  1.4301 -0.6130  2.9731
 8149TIP3    H245863   0.297   3.144   2.487 -0.4327  0.5253 -0.5903
 8150TIP3   OH245864   6.200   3.630   4.563 -0.1686 -0.1537  0.3208
 8150TIP3    H145865   6.136   3.593   4.624 -1.5777  0.2216 -0.8907
 8150TIP3    H245866   6.172   3.720   4.550  1.5266  0.5036  0.9535
 8151TIP3   OH245867   6.542   0.618  14.248  0.7300  0.0539 -0.2457
 8151TIP3    H145868   6.618   0.601  14.303  1.2762  1.7567 -0.4158
 8151TIP3    H245869   6.544   0.549  14.182  1.8148 -0.2309  0.0684
 8152TIP3   OH245870   6.624   1.298   1.824  0.3258 -0.4671  0.3793
 8152TIP3    H145871   6.630   1.360   1.897 -4.6596  0.2183  0.5440
 8152TIP3    H245872   6.596   1.216   1.865 -0.1741 -0.7513 -0.5141
 8153TIP3   OH245873   1.004   1.516  15.896  0.3627  0.8493 -0.2046
 8153TIP3    H145874   0.922   1.479  15.929 -0.3886  1.1315 -1.6771
 8153TIP3    H245875   1.002   1.607  15.923  0.7683  0.5888  0.7650
 8154TIP3   OH245876   1.977   0.243  12.698 -0.6851 -0.6279 -0.1936
 8154TIP3    H145877   2.011   0.297  12.770  0.4538 -0.9949 -0.4520
 8154TIP3    H245878   2.014   0.283  12.619  1.0117 -2.3440 -0.3359
 8155TIP3   OH245879   4.505   2.134  11.351 -0.3418  0.0132  0.0203
 8155TIP3    H145880   4.562   2.150  11.275 -1.4325  0.2509 -0.7729
 8155TIP3    H245881   4.444   2.208  11.352 -0.7915 -0.3529  0.7094
 8156TIP3   OH245882   2.449   5.845  15.806 -0.5017  0.3245 -0.5357
 8156TIP3    H145883   2.545   5.842  15.803 -0.5276 -0.9359 -0.3773
 8156TIP3    H245884   2.424   5.875  15.719  0.0394  1.1876 -0.4169
 8157TIP3   OH245885   2.771   3.952  12.927 -0.1945  0.1992 -0.1962
 8157TIP3    H145886   2.731   3.942  12.841 -0.6461  0.8444 -0.0625
 8157TIP3    H245887   2.769   3.864  12.964 -3.2386  0.5064  0.5725
 8158TIP3   OH245888   0.264   3.924  16.512  0.6799  0.4982 -0.7677
 8158TIP3    H145889   0.196   3.865  16.478  2.0104 -1.8552  0.3777
 8158TIP3    H245890   0.251   3.923  16.607  0.9609  1.8322 -0.6952
 8159TIP3   OH245891   4.862   5.570  12.122  0.1807 -0.4639  0.2474
 8159TIP3    H145892   4.862   5.646  12.180 -0.0499  0.1984 -0.6194
 8159TIP3    H245893   4.893   5.498  12.178 -0.7414 -0.0016  1.4105
 8160TIP3   OH245894   4.677   1.130  15.564  0.4643 -0.3158  0.1247
 8160TIP3    H145895   4.650   1.074  15.636 -1.8943  1.7605  0.9828
 8160TIP3    H245896   4.726   1.201  15.605 -0.2890  0.5153 -0.3726
 8161TIP3   OH245897   4.832   5.801  16.889  0.0563  0.2993 -0.0371
 8161TIP3    H145898   4.918   5.767  16.916 -0.6785 -1.0880  0.6695
 8161TIP3    H245899   4.852   5.871  16.827  1.7483  1.2304  1.4755
 8162TIP3   OH245900   1.494   2.239   5.434 -0.2183 -0.1970  0.0399
 8162TIP3    H145901   1.450   2.154   5.430 -0.6750  0.0607 -2.4606
 8162TIP3    H245902   1.580   2.223   5.394  1.2134 -0.2082  2.8839
 8163TIP3   OH245903   3.867   6.400   2.622 -0.0404 -0.3037 -0.1079
 8163TIP3    H145904   3.959   6.425   2.615 -0.2973  0.2859 -1.7250
 8163TIP3    H245905   3.870   6.307   2.645  0.9176  0.1755  1.9926
 8164TIP3   OH245906   6.149   2.244   0.669  0.5692  0.3560 -0.3632
 8164TIP3    H145907   6.101   2.260   0.750  0.3503  0.7067 -0.5548
 8164TIP3    H245908   6.240   2.263   0.691  0.1781  3.5780 -0.9454
 8165TIP3   OH245909   6.129   2.240  14.960  0.4807 -0.4104  0.0391
 8165TIP3    H145910   6.074   2.313  14.990 -2.9104 -2.7607  0.1963
 8165TIP3    H245911   6.101   2.226  14.869  1.6302 -1.0319 -0.2282
 8166TIP3   OH245912   2.558   3.167   0.091 -0.2054  0.1142  0.1560
 8166TIP3    H145913   2.499   3.124   0.153 -0.7744  1.6343  0.6912
 8166TIP3    H245914   2.597   3.239   0.140  2.1716 -0.8509 -0.1744
 8167TIP3   OH245915   2.993   4.429   2.794  0.4244 -0.0017  0.0445
 8167TIP3    H145916   2.970   4.411   2.703 -1.0834 -0.6379  0.5296
 8167TIP3    H245917   2.954   4.514   2.813  1.3789  0.4826 -0.1101
 8168TIP3   OH245918   0.278   6.759  15.923  0.3802  0.0707  0.0851
 8168TIP3    H145919   0.365   6.759  15.883  0.5078 -2.0708  0.2678
 8168TIP3    H245920   0.258   6.852  15.937  2.4775  0.6226 -0.2826
 8169TIP3   OH245921   4.336   3.933   3.955  0.3138 -0.5007  0.0278
 8169TIP3    H145922   4.283   3.960   4.030  3.0976 -0.5709  2.1791
 8169TIP3    H245923   4.273   3.896   3.893 -2.1307 -0.4564  2.3137
 8170TIP3   OH245924   1.489   3.140   1.993  0.0821  0.7324 -1.1303
 8170TIP3    H145925   1.565   3.082   1.985  0.6973  1.5530 -1.2784
 8170TIP3    H245926   1.444   3.131   1.909 -1.2628 -1.4558 -0.2895
 8171TIP3   OH245927   4.110   4.237  16.649  0.0638 -0.0725 -0.4688
 8171TIP3    H145928   4.106   4.273  16.737 -3.3265  3.4246 -1.7584
 8171TIP3    H245929   4.033   4.180  16.643  0.6435 -0.8252 -1.0226
 8172TIP3   OH245930   4.859   6.118   0.120  1.3634 -0.0217  0.3979
 8172TIP3    H145931   4.852   6.209   0.091  2.0527 -0.2918 -0.6321
 8172TIP3    H245932   4.939   6.116   0.174 -0.1234  0.5711  2.7900
 8173TIP3   OH245933   2.917   6.198   4.539  0.0324 -0.2439  0.0927
 8173TIP3    H145934   2.949   6.261   4.603  2.8228  1.2043 -2.4846
 8173TIP3    H245935   2.980   6.125   4.545 -0.8655 -1.0144  0.3287
 8174TIP3   OH245936   4.815   3.703   2.961 -0.7266 -0.0446 -0.1121
 8174TIP3    H145937   4.782   3.614   2.977  0.0981 -0.0416  1.9241
 8174TIP3    H245938   4.904   3.702   2.997 -1.2118  1.9891  1.2872
 8175TIP3   OH245939   2.279   2.669  13.828 -0.2471 -0.1705  0.0096
 8175TIP3    H145940   2.372   2.687  13.811 -0.6533  1.7436 -0.3955
 8175TIP3    H245941   2.238   2.670  13.742 -1.1993  2.6906  0.4035
 8176TIP3   OH245942   0.190   0.112   2.492 -0.0996 -0.2801 -0.4920
 8176TIP3    H145943   0.209   0.175   2.422 -0.5743  0.2407 -0.1669
 8176TIP3    H245944   0.216   0.157   2.572 -2.0548  0.2337 -0.0853
 8177TIP3   OH245945   2.399   4.683  17.104 -0.7588 -0.5987 -0.2127
 8177TIP3    H145946   2.382   4.725  17.189 -0.3854 -2.2240  0.7119
 8177TIP3    H245947   2.395   4.589  17.123 -1.9096 -1.0241 -2.2680
 8178TIP3   OH245948   4.218   0.388   3.135  0.0654  0.4382 -0.1062
 8178TIP3    H145949   4.266   0.457   3.088 -1.6759  2.2826  0.6636
 8178TIP3    H245950   4.158   0.352   3.069 -0.3617  1.0155 -0.0397
 8179TIP3   OH245951   0.690   5.434   3.390 -0.0144 -0.0199  0.5782
 8179TIP3    H145952   0.724   5.430   3.480 -0.6786 -0.3629  0.8256
 8179TIP3    H245953   0.619   5.498   3.395  1.3190  1.5906 -0.1961
 8180TIP3   OH245954   4.343   0.639   0.280 -0.8216 -0.4024 -0.0902
 8180TIP3    H145955   4.266   0.635   0.336 -1.0415 -0.6303 -0.4054
 8180TIP3    H245956   4.337   0.561   0.224 -1.9688  1.0807 -2.1943
 8181TIP3   OH245957   0.993   2.120   0.719  0.1137  0.5959  0.6882
 8181TIP3    H145958   1.032   2.187   0.776 -0.1670  0.2650  1.2795
 8181TIP3    H245959   1.059   2.051   0.714  0.7269  1.2478 -0.5580
 8182TIP3   OH245960   4.234   4.108   5.989  0.1752  0.2049  0.0755
 8182TIP3    H145961   4.146   4.084   6.017  0.4187 -0.4249  0.3167
 8182TIP3    H245962   4.222   4.142   5.900 -0.3257  0.2441  0.1530
 8183TIP3   OH245963   5.444   1.385  17.258 -0.4193 -0.5054 -0.1203
 8183TIP3    H145964   5.484   1.301  17.239  0.9419 -0.3597  1.8439
 8183TIP3    H245965   5.356   1.379  17.219 -0.3417 -2.7877 -0.0794
 8184TIP3   OH245966   4.632   1.035   0.845 -0.0298 -0.1150 -0.5155
 8184TIP3    H145967   4.713   0.988   0.863 -0.0636  0.3635  1.0651
 8184TIP3    H245968   4.565   0.988   0.896  0.1180  2.1152  1.9678
 8185TIP3   OH245969   5.823   5.902  12.624  0.4833 -0.3199 -0.0918
 8185TIP3    H145970   5.756   5.906  12.693  1.6502 -0.0032  1.0756
 8185TIP3    H245971   5.899   5.948  12.662  1.9022 -2.0141 -0.7239
 8186TIP3   OH245972   2.554   0.180   6.561 -0.4986 -0.3305 -0.1110
 8186TIP3    H145973   2.622   0.227   6.513 -0.2062  1.7802  2.1354
 8186TIP3    H245974   2.601   0.114   6.612 -0.4696 -0.6958 -0.6117
 8187TIP3   OH245975   2.165   4.148  15.566 -0.1711 -0.2982 -0.6443
 8187TIP3    H145976   2.114   4.129  15.644  0.4910  1.3265  0.2475
 8187TIP3    H245977   2.101   4.178  15.501 -0.4968  0.5209  0.0425
 8188TIP3   OH245978   0.103   5.104  15.769  0.1800  0.0838  0.3062
 8188TIP3    H145979   0.026   5.149  15.802 -0.1453 -0.4921  0.3498
 8188TIP3    H245980   0.133   5.050  15.842  0.0218 -0.4668 -0.0296
 8189TIP3   OH245981   3.088   3.511   2.105  0.0487  0.1813  0.1740
 8189TIP3    H145982   2.999   3.530   2.135 -0.7597 -0.1020 -1.8809
 8189TIP3    H245983   3.116   3.591   2.062  0.4215 -0.0522 -0.0211
 8190TIP3   OH245984   1.370   2.710  15.455  0.2371 -0.4492 -0.0153
 8190TIP3    H145985   1.376   2.777  15.386 -1.5695  0.2833  0.4752
 8190TIP3    H245986   1.293   2.735  15.505  1.9716 -0.4376  2.8789
 8191TIP3   OH245987   4.850   5.305  16.520 -0.5157  0.2523  0.8465
 8191TIP3    H145988   4.907   5.319  16.445  0.8885 -0.5323  1.7254
 8191TIP3    H245989   4.762   5.323  16.487 -0.2372 -2.2183 -1.6359
 8192TIP3   OH245990   3.192   0.154  16.739  0.5225  0.3233  0.9265
 8192TIP3    H145991   3.147   0.079  16.778  2.1926  0.0558  2.4436
 8192TIP3    H245992   3.221   0.206  16.813  0.3884  1.9008 -0.0927
 8193TIP3   OH245993   6.081   3.944  12.013 -0.6559 -0.2896 -0.0784
 8193TIP3    H145994   6.038   4.016  11.965 -0.4807 -0.1080  0.0341
 8193TIP3    H245995   6.008   3.889  12.042 -0.7500 -0.5213 -0.7421
 8194TIP3   OH245996   3.696   3.619  11.674 -0.2312 -0.7758  0.3796
 8194TIP3    H145997   3.758   3.548  11.685  1.4658  0.3191 -1.3542
 8194TIP3    H245998   3.742   3.682  11.618 -2.7632  0.2899 -0.6602
 8195TIP3   OH245999   3.615   1.497   4.353  0.5256 -0.4060  0.1087
 8195TIP3    H146000   3.542   1.437   4.369 -0.3644  0.6550  0.2225
 8195TIP3    H246001   3.692   1.442   4.349 -0.2869 -1.5684  0.0158
 8196TIP3   OH246002   3.076   5.860   3.462  0.3829 -0.1179 -0.1270
 8196TIP3    H146003   3.114   5.945   3.439 -0.0769  0.2508  0.4487
 8196TIP3    H246004   3.095   5.850   3.555 -2.4313  0.8979  0.6425
 8197TIP3   OH246005   6.696   4.040   1.767 -0.6560 -0.4733 -0.4796
 8197TIP3    H146006   6.712   4.003   1.853  1.8100 -1.3968 -1.2316
 8197TIP3    H246007   6.700   4.135   1.780  0.7226 -0.6154  0.2975
 8198TIP3   OH246008   0.282   0.369   1.399 -0.0327 -0.2853 -0.4351
 8198TIP3    H146009   0.252   0.454   1.430  1.3698 -0.8209  2.7701
 8198TIP3    H246010   0.213   0.340   1.339 -1.4293  2.2865 -0.2114
 8199TIP3   OH246011   1.322   5.312   6.272  0.4920 -0.0417 -0.1486
 8199TIP3    H146012   1.371   5.381   6.316 -0.8443 -0.2151  1.7157
 8199TIP3    H246013   1.390   5.251   6.242  1.5005 -0.0606  1.9660
 8200TIP3   OH246014   2.775   1.463  12.904 -0.5225 -0.7545 -0.7160
 8200TIP3    H146015   2.867   1.479  12.924 -0.3912 -0.1523 -1.7198
 8200TIP3    H246016   2.774   1.443  12.810 -1.3842 -1.0432 -0.6558
 8201TIP3   OH246017   1.146   2.131  14.413  0.3004 -0.2677 -0.3519
 8201TIP3    H146018   1.149   2.041  14.445  0.7300 -0.5489 -1.1542
 8201TIP3    H246019   1.142   2.123  14.318 -1.2330  0.5446 -0.3922
 8202TIP3   OH246020   3.095   2.873  16.647 -0.0608 -0.3242 -0.4015
 8202TIP3    H146021   3.010   2.917  16.651  0.9973  1.8173 -0.4075
 8202TIP3    H246022   3.103   2.847  16.555 -0.5792 -0.2922 -0.4626
 8203TIP3   OH246023   6.433   4.855   2.767 -0.3842  0.1948 -0.2627
 8203TIP3    H146024   6.488   4.829   2.841 -0.0505  1.5356 -0.0258
 8203TIP3    H246025   6.495   4.887   2.701 -0.6705 -1.0020 -1.1682
 8204TIP3   OH246026   0.909   0.899   3.365  0.5183 -0.2839  0.0174
 8204TIP3    H146027   0.887   0.806   3.378  1.0714 -0.3471  0.5701
 8204TIP3    H246028   1.003   0.903   3.382  0.8833  0.0409 -1.8891
 8205TIP3   OH246029   2.647   3.648  13.138  0.3598 -0.1812 -0.2793
 8205TIP3    H146030   2.695   3.577  13.179 -2.3750 -0.8784  2.0472
 8205TIP3    H246031   2.650   3.720  13.201 -2.2423 -0.5751  0.4352
 8206TIP3   OH246032   2.779   4.195  16.084  0.3024  0.0577  0.5973
 8206TIP3    H146033   2.773   4.284  16.048  1.3191 -0.7124 -1.6049
 8206TIP3    H246034   2.693   4.157  16.071  0.4648  0.0253 -0.4003
 8207TIP3   OH246035   2.498   0.792   1.201 -0.4510 -0.4219  0.2815
 8207TIP3    H146036   2.592   0.792   1.220 -0.5341 -2.8124  1.1042
 8207TIP3    H246037   2.463   0.864   1.252  0.9401  0.6417 -0.2003
 8208TIP3   OH246038   2.789   2.656   3.814  0.4802 -0.4651  0.3700
 8208TIP3    H146039   2.703   2.624   3.785  1.5279 -1.9425 -1.3281
 8208TIP3    H246040   2.776   2.679   3.906 -1.8945  0.0197 -0.0180
 8209TIP3   OH246041   4.328   3.201   0.704  0.5292 -0.4538  0.1941
 8209TIP3    H146042   4.364   3.195   0.616 -1.1395  0.0261 -0.5672
 8209TIP3    H246043   4.233   3.195   0.692  0.2475 -0.2204  1.9383
 8210TIP3   OH246044   0.902   0.105   0.288 -0.5776 -0.4663 -0.1229
 8210TIP3    H146045   0.984   0.115   0.337 -0.1149 -0.5152 -0.8813
 8210TIP3    H246046   0.880   0.012   0.298  0.7230 -1.0037 -1.8727
 8211TIP3   OH246047   1.114   1.191   5.825  0.2907 -0.0732 -0.0071
 8211TIP3    H146048   1.073   1.243   5.895  0.4014  0.7686 -0.5542
 8211TIP3    H246049   1.041   1.162   5.771  0.2286 -0.4918  0.2979
 8212TIP3   OH246050   0.279   3.405   4.962 -0.0536  0.1634  0.5379
 8212TIP3    H146051   0.343   3.467   4.997  1.0055 -1.1060  0.9317
 8212TIP3    H246052   0.283   3.330   5.021  0.9753 -1.5940 -1.6065
 8213TIP3   OH246053   6.148   4.927  13.835 -0.0378 -0.6965  0.0959
 8213TIP3    H146054   6.194   4.852  13.874 -0.2346 -0.5771  0.5702
 8213TIP3    H246055   6.066   4.932  13.884 -0.6469 -1.0356 -0.8843
 8214TIP3   OH246056   0.759   1.648  16.499 -0.1023 -1.0320  0.2603
 8214TIP3    H146057   0.815   1.707  16.549 -2.2767  2.6781 -1.3027
 8214TIP3    H246058   0.819   1.594  16.448  2.1044  1.4103  0.0830
 8215TIP3   OH246059   6.174   5.008  12.516  0.8368 -0.4087  0.1931
 8215TIP3    H146060   6.091   5.019  12.561  0.5878 -0.5741 -0.2158
 8215TIP3    H246061   6.199   5.096  12.489  1.0109 -0.3044  0.6952
 8216TIP3   OH246062   5.215   0.941   1.584 -0.7064  0.3287 -0.2525
 8216TIP3    H146063   5.231   1.001   1.657 -0.2767 -0.4299  0.2927
 8216TIP3    H246064   5.294   0.887   1.580 -1.7520 -1.3109  0.3455
 8217TIP3   OH246065   0.379   5.683  15.068 -0.5578 -0.2434  0.4480
 8217TIP3    H146066   0.293   5.723  15.064 -1.0160 -1.0106  1.8063
 8217TIP3    H246067   0.423   5.726  15.141  0.1430 -0.0257 -0.0813
 8218TIP3   OH246068   3.192   3.640  14.505 -0.1683 -0.5020  0.6197
 8218TIP3    H146069   3.283   3.667  14.512 -0.6942  1.2557  1.2324
 8218TIP3    H246070   3.170   3.607  14.592 -0.3159 -0.1941  0.7028
 8219TIP3   OH246071   4.198   0.337   5.006 -0.1836 -0.3450  0.7949
 8219TIP3    H146072   4.217   0.423   5.042  0.8690 -0.1656 -0.1399
 8219TIP3    H246073   4.282   0.292   5.005 -0.4576 -0.8615 -0.0776
 8220TIP3   OH246074   4.363   5.185  16.812 -0.6887 -0.8155 -0.0473
 8220TIP3    H146075   4.437   5.244  16.797 -0.3499 -1.4693 -1.0636
 8220TIP3    H246076   4.301   5.237  16.862  0.0335  0.0785 -0.0582
 8221TIP3   OH246077   6.260   2.564   4.463  0.3969 -0.3534 -0.3091
 8221TIP3    H146078   6.202   2.639   4.473  1.4378  0.4758 -0.2986
 8221TIP3    H246079   6.299   2.574   4.376  0.2380 -1.1138 -0.4815
 8222TIP3   OH246080   5.579   6.633  12.244  0.0090 -0.0526 -0.1664
 8222TIP3    H146081   5.622   6.591  12.319 -0.1531  0.7691  0.4093
 8222TIP3    H246082   5.488   6.643  12.272 -0.3260 -0.8026 -0.9509
 8223TIP3   OH246083   2.989   1.132   2.186  0.5795 -0.5168  0.4713
 8223TIP3    H146084   3.005   1.175   2.102  0.5008  0.7203  1.0539
 8223TIP3    H246085   3.007   1.200   2.251  1.4634 -1.6933  1.5056
 8224TIP3   OH246086   4.912   6.348  16.300 -0.0176  0.1183 -0.4745
 8224TIP3    H146087   4.894   6.276  16.361 -0.8556 -0.6299 -1.5807
 8224TIP3    H246088   5.000   6.378  16.325  0.1583 -0.9729  0.3072
 8225TIP3   OH246089   6.136   5.043  11.309  0.2737  0.0579 -0.2479
 8225TIP3    H146090   6.150   4.997  11.226  0.7393  2.5599 -1.6645
 8225TIP3    H246091   6.124   5.135  11.284  0.9524  0.9990  2.4913
 8226TIP3   OH246092   5.143   6.276  13.724 -0.1218  0.5271  0.0016
 8226TIP3    H146093   5.149   6.268  13.819  1.8647 -2.6544 -0.2291
 8226TIP3    H246094   5.083   6.206  13.698  1.5433 -0.5494 -1.1748
 8227TIP3   OH246095   0.904   2.121  11.912 -0.2612  0.1227  0.2743
 8227TIP3    H146096   0.941   2.166  11.988 -0.6489 -1.1739  1.2864
 8227TIP3    H246097   0.979   2.087  11.864 -0.0303  0.5381  0.3393
 8228TIP3   OH246098   2.988   2.104  14.608  0.2861 -0.5410 -0.0164
 8228TIP3    H146099   2.969   2.089  14.516  0.9951  0.3821 -0.3200
 8228TIP3    H246100   2.933   2.041  14.654 -1.1854 -0.0300 -0.9998
 8229TIP3   OH246101   3.290   0.743   5.612  0.1094 -0.1061 -0.5360
 8229TIP3    H146102   3.386   0.741   5.620  0.1140  0.2139 -0.5263
 8229TIP3    H246103   3.273   0.797   5.535 -0.0798  0.2025 -0.2757
 8230TIP3   OH246104   1.989   3.188  13.535  0.3127 -0.2640  0.1564
 8230TIP3    H146105   2.049   3.251  13.494 -0.0097  0.4846  0.8093
 8230TIP3    H246106   2.045   3.134  13.591  0.2274  1.4272  1.9816
 8231TIP3   OH246107   4.321   0.438   3.826  0.3617  0.3201  0.0956
 8231TIP3    H146108   4.406   0.468   3.856 -0.2385  0.9725  1.2174
 8231TIP3    H246109   4.259   0.471   3.891 -0.6913 -0.6060 -0.3911
 8232TIP3   OH246110   6.280   1.427   0.678 -0.5988 -0.0386  0.1604
 8232TIP3    H146111   6.314   1.410   0.590 -0.1016  1.1818  0.1040
 8232TIP3    H246112   6.223   1.503   0.667 -0.7477 -0.0429  0.8630
 8233TIP3   OH246113   2.345   4.592   1.060 -0.6454  0.1829  0.3789
 8233TIP3    H146114   2.380   4.674   1.096  2.5588 -1.6705  1.9492
 8233TIP3    H246115   2.376   4.524   1.120 -1.9480 -2.3815 -1.6207
 8234TIP3   OH246116   0.594   0.558   4.365  0.6118  0.0959 -0.6384
 8234TIP3    H146117   0.659   0.622   4.336  0.1909  0.3407 -1.0555
 8234TIP3    H246118   0.509   0.600   4.349  0.3454 -0.1273  0.1035
 8235TIP3   OH246119   5.219   6.364   0.376 -0.1245  0.0925  0.0146
 8235TIP3    H146120   5.288   6.429   0.390 -0.4102  0.2914  0.5023
 8235TIP3    H246121   5.229   6.302   0.449  0.7101 -0.9233 -0.9132
 8236TIP3   OH246122   2.581   5.602   0.978  0.3063 -0.1317 -0.1667
 8236TIP3    H146123   2.514   5.535   0.970  1.2002 -1.0231 -0.4471
 8236TIP3    H246124   2.546   5.678   0.933 -0.5687 -0.5301 -0.1656
 8237TIP3   OH246125   0.864   5.511   1.061 -0.1697 -0.3953  0.0655
 8237TIP3    H146126   0.906   5.597   1.071  0.1405 -0.4069 -0.9496
 8237TIP3    H246127   0.790   5.528   1.002  0.0158 -0.8529 -0.3076
 8238TIP3   OH246128   4.762   3.374  14.696  0.2770 -0.9314  0.1309
 8238TIP3    H146129   4.808   3.302  14.654 -0.4343 -1.6751  0.6135
 8238TIP3    H246130   4.689   3.333  14.743  0.1182  0.0474  0.7763
 8239TIP3   OH246131   5.753   1.201   0.188 -0.0347 -0.4201  0.0488
 8239TIP3    H146132   5.702   1.121   0.200  1.7020 -1.7848 -1.1497
 8239TIP3    H246133   5.837   1.171   0.152 -0.2297  2.1267 -2.9676
 8240TIP3   OH246134   6.448   4.574  10.650 -0.1036  0.6790 -0.9585
 8240TIP3    H146135   6.437   4.529  10.734  2.5253  1.7281  0.0514
 8240TIP3    H246136   6.409   4.660  10.664  2.6934  1.8804  0.2663
 8241TIP3   OH246137   0.318   1.118  16.690 -0.0990 -0.0286  0.2622
 8241TIP3    H146138   0.357   1.033  16.671  0.9700  0.2380  1.1245
 8241TIP3    H246139   0.287   1.150  16.606  2.0377 -0.0423 -0.6035
 8242TIP3   OH246140   5.276   3.178  12.130 -0.8499 -0.1913  0.0761
 8242TIP3    H146141   5.216   3.200  12.059 -0.5845 -0.5117 -0.2527
 8242TIP3    H246142   5.300   3.262  12.169  0.1885  0.1296 -1.1820
 8243TIP3   OH246143   1.434   5.108  13.536  0.1887  0.4399 -0.2520
 8243TIP3    H146144   1.505   5.046  13.519 -1.0253 -0.8990 -0.7286
 8243TIP3    H246145   1.427   5.111  13.631  0.8722  0.5779 -0.2026
 8244TIP3   OH246146   0.440   6.190  11.302  0.0180  0.0066  0.2993
 8244TIP3    H146147   0.512   6.239  11.261  0.3686  0.6754  1.6560
 8244TIP3    H246148   0.448   6.102  11.267 -1.4858  1.1291 -3.3501
 8245TIP3   OH246149   6.354   0.334  16.325  0.3296 -0.4327  0.8319
 8245TIP3    H146150   6.290   0.272  16.358  0.5737 -1.0784  0.1167
 8245TIP3    H246151   6.418   0.342  16.396  1.0496 -2.0887  0.4263
 8246TIP3   OH246152   3.102   3.688   2.419 -0.5223 -0.0060  0.3601
 8246TIP3    H146153   3.186   3.721   2.387 -0.6869 -1.3550 -1.6735
 8246TIP3    H246154   3.037   3.747   2.383 -0.6334 -0.8989 -0.9691
 8247TIP3   OH246155   3.517   0.520   2.076  0.2829  0.2235  0.1152
 8247TIP3    H146156   3.588   0.577   2.044 -0.0336  1.0593  0.8513
 8247TIP3    H246157   3.441   0.578   2.080 -0.8234 -0.9719 -1.9442
 8248TIP3   OH246158   2.944   6.368  16.046  0.6952 -0.4552 -0.3712
 8248TIP3    H146159   2.911   6.305  15.981  0.1239 -0.9253  0.3674
 8248TIP3    H246160   2.880   6.439  16.046 -0.3673 -1.3723  1.0700
 8249TIP3   OH246161   3.345   5.321   4.400 -0.2046 -0.2578 -0.2390
 8249TIP3    H146162   3.350   5.354   4.311 -0.8095 -0.8944 -0.5155
 8249TIP3    H246163   3.377   5.231   4.394  2.5203  0.5544  0.6994
 8250TIP3   OH246164   3.067   4.661   3.980 -0.1841 -0.1992 -0.2511
 8250TIP3    H146165   3.017   4.583   4.004 -0.4316  0.2401  0.7449
 8250TIP3    H246166   3.154   4.645   4.015  0.1029 -0.5350 -1.1037
 8251TIP3   OH246167   1.090   4.025  12.439 -0.0590 -0.1973 -0.3476
 8251TIP3    H146168   1.178   3.988  12.450  0.4728  1.1069 -0.0230
 8251TIP3    H246169   1.031   3.952  12.456  0.9492 -0.8504  0.4895
 8252TIP3   OH246170   2.554   5.855   2.321 -0.5279  1.0541 -0.3261
 8252TIP3    H146171   2.476   5.829   2.272 -1.1839 -0.2228  1.3017
 8252TIP3    H246172   2.624   5.798   2.288 -1.2184 -0.6043  0.9147
 8253TIP3   OH246173   5.563   2.323   5.251 -0.3074 -0.1304  0.2202
 8253TIP3    H146174   5.564   2.385   5.324 -1.5251  0.6511 -0.4034
 8253TIP3    H246175   5.472   2.323   5.220 -0.2269 -1.8321 -0.1411
 8254TIP3   OH246176   1.683   3.643   4.271  0.1241  0.1791 -0.0438
 8254TIP3    H146177   1.620   3.692   4.324 -0.4667 -0.5355 -0.0584
 8254TIP3    H246178   1.741   3.601   4.336 -0.9472 -1.1557  0.0934
 8255TIP3   OH246179   5.915   3.872   6.748 -0.0510  0.2065 -0.1886
 8255TIP3    H146180   5.887   3.781   6.742  0.0846  0.1859 -0.5977
 8255TIP3    H246181   5.837   3.920   6.776 -0.3107  0.0559 -0.6450
 8256TIP3   OH246182   5.702   1.251   3.471 -0.3358 -0.2350 -0.3294
 8256TIP3    H146183   5.610   1.266   3.494  0.0800  0.6672  0.8272
 8256TIP3    H246184   5.710   1.156   3.467 -1.4600 -0.3285 -1.1001
 8257TIP3   OH246185   5.433   3.226  12.815  0.1226 -0.2890  0.1636
 8257TIP3    H146186   5.511   3.265  12.852  0.4538  0.0550 -0.8738
 8257TIP3    H246187   5.384   3.299  12.779 -0.5152 -0.5443  0.4877
 8258TIP3   OH246188   1.959   4.345   1.488  0.2549  0.2417 -0.0273
 8258TIP3    H146189   2.049   4.326   1.460  0.1250  0.1819 -0.4050
 8258TIP3    H246190   1.944   4.436   1.464  0.5691  0.5674  0.9803
 8259TIP3   OH246191   6.124   3.630   2.144  0.5415 -0.0277  0.1420
 8259TIP3    H146192   6.148   3.693   2.075  1.2655 -0.2333  0.2062
 8259TIP3    H246193   6.060   3.573   2.102 -1.3508  1.6687  0.5182
 8260TIP3   OH246194   6.122   3.987   1.563 -0.7967 -0.1046  0.0190
 8260TIP3    H146195   6.133   3.954   1.652 -0.2192  0.4703  0.1748
 8260TIP3    H246196   6.036   3.957   1.536 -0.7367 -0.7841  0.5561
 8261TIP3   OH246197   5.925   1.983   0.741  0.3061 -0.3000 -0.2437
 8261TIP3    H146198   6.008   1.950   0.776  0.9322  0.4638 -0.9427
 8261TIP3    H246199   5.947   2.069   0.705 -0.8296 -0.0206 -0.3145
 8262TIP3   OH246200   6.617   0.083  14.138  0.2231  0.3471 -0.0059
 8262TIP3    H146201   6.603   0.042  14.224  0.0034 -1.8301 -1.0022
 8262TIP3    H246202   6.535   0.129  14.120  0.3135  0.9334  0.9736
 8263TIP3   OH246203   0.040   2.091   5.176  0.1864  0.4090  0.1813
 8263TIP3    H146204  -0.011   2.146   5.235 -0.5503  1.0223 -0.9852
 8263TIP3    H246205   0.130   2.123   5.184  0.1769  0.2222  1.2296
 8264TIP3   OH246206   4.339   1.938  14.961  0.0199  0.5999  0.0099
 8264TIP3    H146207   4.290   1.948  15.042  1.2616 -1.7472  1.1599
 8264TIP3    H246208   4.293   1.868  14.914  0.4734  0.5364 -0.3482
 8265TIP3   OH246209   5.376   0.539   5.496  0.0359  0.1271  0.0334
 8265TIP3    H146210   5.339   0.487   5.567 -0.8895 -0.1592 -0.6503
 8265TIP3    H246211   5.358   0.489   5.417 -0.2482  1.1484 -0.5679
 8266TIP3   OH246212   6.554   0.839   6.416  0.1991 -0.3640  0.4731
 8266TIP3    H146213   6.462   0.840   6.391  0.7483  1.2706 -1.8928
 8266TIP3    H246214   6.557   0.885   6.500 -1.2475 -1.5915  1.2307
 8267TIP3   OH246215   5.046   3.066   1.506 -0.1946 -0.8275  0.6512
 8267TIP3    H146216   5.059   3.009   1.582 -4.5146 -2.4628  0.4548
 8267TIP3    H246217   5.084   3.018   1.433  2.3820 -0.0617  1.3645
 8268TIP3   OH246218   5.611   2.115   4.922 -0.4639  0.1551 -1.0582
 8268TIP3    H146219   5.536   2.173   4.905 -1.6548 -0.9028  0.3360
 8268TIP3    H246220   5.592   2.036   4.872 -0.2013 -0.0606 -0.8187
 8269TIP3   OH246221   1.356   2.049  15.076 -0.2717  0.2387 -0.2911
 8269TIP3    H146222   1.290   2.032  15.008 -1.4456 -0.7091  1.0338
 8269TIP3    H246223   1.331   2.134  15.113 -0.4504  0.1179 -0.1332
 8270TIP3   OH246224   5.903   4.421  12.668  0.7885  0.1919 -0.6390
 8270TIP3    H146225   5.983   4.473  12.673 -0.0601  1.5733 -0.9782
 8270TIP3    H246226   5.836   4.474  12.712  0.0913 -1.0246 -0.1726
 8271TIP3   OH246227   2.178   6.555  16.610  0.2210 -0.3464 -0.0214
 8271TIP3    H146228   2.092   6.543  16.570 -0.2903 -0.7597  1.1892
 8271TIP3    H246229   2.198   6.648  16.596 -1.1528  0.1520  1.1017
 8272TIP3   OH246230   0.308   6.046  14.523  0.2182 -0.1792  0.4140
 8272TIP3    H146231   0.331   6.036  14.431 -0.2196  2.0872  0.0070
 8272TIP3    H246232   0.255   6.125  14.526  0.2790 -0.1687  2.6282
 8273TIP3   OH246233   2.408   0.848  11.369 -0.1388 -0.3540 -0.1625
 8273TIP3    H146234   2.387   0.796  11.446  1.7931  0.6661  1.1353
 8273TIP3    H246235   2.503   0.838  11.358  0.3393  2.7617  0.1593
 8274TIP3   OH246236   5.112   0.581   2.403  0.2788 -0.1834  0.4096
 8274TIP3    H146237   5.017   0.569   2.410  0.2790 -0.4498 -0.0145
 8274TIP3    H246238   5.149   0.508   2.452  0.2765  0.5466  1.5694
 8275TIP3   OH246239   1.510   5.940   4.615  0.2705 -0.4980 -0.0899
 8275TIP3    H146240   1.462   5.941   4.698 -0.1334  1.4358 -0.2950
 8275TIP3    H246241   1.602   5.944   4.641  0.1301  0.6908  0.2957
 8276TIP3   OH246242   0.904   0.792  17.027  0.1605  0.2146  0.0253
 8276TIP3    H146243   0.883   0.701  17.005  0.5209 -0.3340  1.7498
 8276TIP3    H246244   0.827   0.842  17.002 -0.2320 -0.6340 -0.5072
 8277TIP3   OH246245   1.192   0.206   5.791  0.5965 -0.2024 -0.2433
 8277TIP3    H146246   1.214   0.267   5.721 -1.2897  0.0893 -0.6315
 8277TIP3    H246247   1.259   0.138   5.785  1.7242  0.9172 -0.9127
 8278TIP3   OH246248   4.022   4.069  13.760  0.3217 -0.6138  0.4172
 8278TIP3    H146249   3.983   4.097  13.677  0.0094 -1.2875  0.3260
 8278TIP3    H246250   4.021   3.973  13.755 -1.2828 -0.7316  1.9235
 8279TIP3   OH246251   0.017   3.079   1.650 -0.1838  0.3247  0.0779
 8279TIP3    H146252  -0.076   3.056   1.652  0.0953 -0.8483  0.4045
 8279TIP3    H246253   0.027   3.145   1.718 -0.6216 -0.2043  0.6690
 8280TIP3   OH246254   2.983   5.962  13.175  0.0184 -0.5918 -0.0542
 8280TIP3    H146255   2.891   5.979  13.196 -0.5396  0.7138 -3.0222
 8280TIP3    H246256   3.032   6.022  13.231 -1.0376 -0.0535  0.3290
 8281TIP3   OH246257   4.853   0.822  15.440  0.7518 -0.0435 -0.0067
 8281TIP3    H146258   4.884   0.731  15.432 -0.5503 -0.4027 -1.4211
 8281TIP3    H246259   4.898   0.855  15.518  1.9853 -1.5964  0.0034
 8282TIP3   OH246260   3.630   5.493  16.657 -0.1978 -0.1408 -0.3958
 8282TIP3    H146261   3.619   5.585  16.635  0.1060 -0.1812 -0.7261
 8282TIP3    H246262   3.721   5.474  16.633 -0.4265 -0.6713 -0.8550
 8283TIP3   OH246263   0.927   5.359   3.918  0.6786  0.4146  0.1170
 8283TIP3    H146264   0.967   5.284   3.961 -1.2821 -0.0020  1.3354
 8283TIP3    H246265   0.834   5.336   3.910  0.7270  0.8521 -3.5821
 8284TIP3   OH246266   4.296   3.472  15.342 -0.0310 -0.1204 -0.2496
 8284TIP3    H146267   4.336   3.466  15.255  1.9543  2.1915  0.3973
 8284TIP3    H246268   4.207   3.505  15.326  0.6887  1.3728 -1.3799
 8285TIP3   OH246269   1.281   2.621   0.477  0.5831  0.1326 -0.3941
 8285TIP3    H146270   1.299   2.646   0.386  1.4224 -1.6539 -0.7692
 8285TIP3    H246271   1.258   2.703   0.520  1.1671  1.1900 -1.9846
 8286TIP3   OH246272   1.975   3.932   1.414 -0.0861 -0.5673 -0.2766
 8286TIP3    H146273   1.901   3.963   1.466 -0.2677  0.8713 -1.3380
 8286TIP3    H246274   1.945   3.848   1.377 -2.1398  1.0016 -2.5082
 8287TIP3   OH246275   1.084   1.373  12.838  0.3140  0.2204  0.3769
 8287TIP3    H146276   1.144   1.304  12.810  0.6556  0.3697  0.7297
 8287TIP3    H246277   1.141   1.444  12.867 -0.0194  0.9278 -0.6075
 8288TIP3   OH246278   1.263   2.121  12.205  0.0495 -0.1374  0.1015
 8288TIP3    H146279   1.344   2.077  12.180  1.1784  0.4852  2.4479
 8288TIP3    H246280   1.229   2.071  12.278  0.1064  1.4474  1.2800
 8289TIP3   OH246281   4.579   6.701   3.169 -0.1387 -0.0086  0.0482
 8289TIP3    H146282   4.500   6.664   3.130 -0.3730  0.6989 -0.1682
 8289TIP3    H246283   4.594   6.782   3.121  0.2202  0.3057  0.6704
 8290TIP3   OH246284   3.796   0.120  13.307 -0.6728  0.2203 -0.1704
 8290TIP3    H146285   3.783   0.135  13.400  1.5500 -2.2490  0.6624
 8290TIP3    H246286   3.857   0.190  13.279 -0.5149  0.3459  0.4788
 8291TIP3   OH246287   2.974   6.385   0.679  0.4823  0.2472 -0.2790
 8291TIP3    H146288   3.005   6.297   0.699 -2.0996 -0.3466  1.5943
 8291TIP3    H246289   2.889   6.373   0.637 -0.3784  1.8224  0.8900
 8292TIP3   OH246290   4.888   4.233   2.226 -0.1743 -0.4336  0.4798
 8292TIP3    H146291   4.827   4.302   2.203 -2.6921 -2.9897 -1.1500
 8292TIP3    H246292   4.880   4.225   2.321 -4.7464 -2.4579  0.1849
 8293TIP3   OH246293   5.551   3.185   1.717 -0.0070  0.1244 -1.2064
 8293TIP3    H146294   5.474   3.163   1.771  0.2403 -0.6836 -1.1647
 8293TIP3    H246295   5.519   3.177   1.627  0.5826 -2.5660 -1.2609
 8294TIP3   OH246296   4.512   5.480   4.062 -0.1021 -0.6433 -0.2994
 8294TIP3    H146297   4.481   5.406   4.010  1.2889 -1.2603 -0.2940
 8294TIP3    H246298   4.531   5.548   3.997 -0.1597 -0.7461 -0.4238
 8295TIP3   OH246299   3.222   0.958   1.113  0.4307 -0.1037  0.6009
 8295TIP3    H146300   3.242   0.892   1.180  4.1797 -1.1425 -1.2335
 8295TIP3    H246301   3.179   0.910   1.043  1.3468 -0.1945  0.0908
 8296TIP3   OH246302   3.619   4.553   1.385  0.4100  0.5547  0.3007
 8296TIP3    H146303   3.570   4.598   1.316 -1.0705  1.4836  1.8802
 8296TIP3    H246304   3.576   4.468   1.392  0.8269  0.2975 -0.1698
 8297TIP3   OH246305   6.777   0.165   4.874  1.1707 -0.1557  0.6215
 8297TIP3    H146306   6.773   0.193   4.966  0.1499 -1.0924  0.8880
 8297TIP3    H246307   6.846   0.098   4.873  1.4318  0.1104  0.6260
 8298TIP3   OH246308   5.248   4.061   4.761  0.1840 -0.3821 -0.4092
 8298TIP3    H146309   5.247   3.995   4.692 -0.1845 -0.1730 -0.6013
 8298TIP3    H246310   5.160   4.097   4.762 -0.3013 -1.4881  1.2243
 8299TIP3   OH246311   5.464   1.832   0.053 -0.4193 -0.0512  0.0934
 8299TIP3    H146312   5.396   1.765   0.055  1.3820 -2.0415 -0.5688
 8299TIP3    H246313   5.543   1.786   0.081  0.4837  2.4472  2.0137
 8300TIP3   OH246314   4.587   1.583   2.819  0.1984 -0.2692  0.2897
 8300TIP3    H146315   4.638   1.506   2.841 -0.4082 -0.7575  0.0038
 8300TIP3    H246316   4.496   1.557   2.834 -0.1535 -0.2232 -1.5586
 8301TIP3   OH246317   6.011   3.874   4.597  0.3491 -0.4424  0.2003
 8301TIP3    H146318   5.975   3.873   4.685  1.7452 -0.8352  0.7862
 8301TIP3    H246319   6.050   3.961   4.587  0.2432 -0.4173 -0.0255
 8302TIP3   OH246320   6.553   2.246  16.222 -0.1463 -0.2095  0.3511
 8302TIP3    H146321   6.516   2.168  16.263  0.9396 -0.2585  1.2913
 8302TIP3    H246322   6.648   2.233  16.226  0.0392  0.9235  0.0583
 8303TIP3   OH246323   0.467   6.432  13.953 -0.7341 -0.0818 -0.5389
 8303TIP3    H146324   0.446   6.407  13.863 -0.2765  0.3018 -0.7565
 8303TIP3    H246325   0.472   6.350  14.001 -2.1790 -0.2242 -0.5933
 8304TIP3   OH246326   1.917   5.881  17.102  0.3038 -0.6879 -0.5980
 8304TIP3    H146327   1.917   5.976  17.106  4.1650 -0.5944  1.6227
 8304TIP3    H246328   1.912   5.861  17.008  2.3289  1.8426 -1.3567
 8305TIP3   OH246329   0.772   2.727  11.954 -0.2211  0.4647 -0.1545
 8305TIP3    H146330   0.779   2.633  11.969 -0.5662  0.7119  1.9153
 8305TIP3    H246331   0.845   2.748  11.896  0.7069 -0.8753  0.4694
 8306TIP3   OH246332   4.798   6.414  11.378 -0.0385  0.6277  0.2205
 8306TIP3    H146333   4.883   6.370  11.374 -0.4838 -0.1836 -1.8926
 8306TIP3    H246334   4.737   6.346  11.405 -0.6585 -0.1118 -2.6389
 8307TIP3   OH246335   2.603   1.824   4.095 -0.2222 -0.1048  0.1812
 8307TIP3    H146336   2.675   1.806   4.034 -0.5708 -1.0524  0.0366
 8307TIP3    H246337   2.625   1.909   4.134 -0.1912  0.7540 -1.5768
 8308TIP3   OH246338   3.270   2.456   4.996  0.3425 -0.5201 -0.3627
 8308TIP3    H146339   3.300   2.546   4.992 -1.2117  0.0568  0.2872
 8308TIP3    H246340   3.308   2.421   5.076 -0.1260 -0.0123  0.0902
 8309TIP3   OH246341   1.894   2.401  14.471  0.5456  0.4666  0.5868
 8309TIP3    H146342   1.949   2.474  14.500 -0.0589  1.1409  0.0637
 8309TIP3    H246343   1.946   2.323  14.490  1.0691  1.0093  1.4480
 8310TIP3   OH246344   6.617   0.268  15.829 -0.4919 -0.0252 -0.0164
 8310TIP3    H146345   6.586   0.324  15.900 -0.7308  0.8738 -0.8092
 8310TIP3    H246346   6.602   0.179  15.860  0.5327  0.3030  1.5684
 8311TIP3   OH246347   3.630   1.467  16.055  0.3767  0.1886  0.4521
 8311TIP3    H146348   3.668   1.491  16.139  1.5762 -0.6596  0.1789
 8311TIP3    H246349   3.603   1.376  16.065  0.4393  0.1104 -0.0466
 8312TIP3   OH246350   3.192   5.974   3.919 -0.3467 -0.0427  0.4841
 8312TIP3    H146351   3.195   6.042   3.987 -1.1096 -2.6405  3.3766
 8312TIP3    H246352   3.282   5.968   3.888 -0.0389  1.4460  0.9834
 8313TIP3   OH246353   6.475   0.437   3.765  0.0141 -0.2442 -0.1613
 8313TIP3    H146354   6.415   0.471   3.832  0.0731 -0.3720 -0.0425
 8313TIP3    H246355   6.562   0.467   3.792  0.2263 -1.4921  0.6106
 8314TIP3   OH246356   1.237   3.597   5.309 -0.3185 -0.2775 -0.2968
 8314TIP3    H146357   1.152   3.622   5.345  0.1201 -1.2268  1.4830
 8314TIP3    H246358   1.282   3.679   5.293 -0.5272  0.1872  1.3851
 8315TIP3   OH246359   3.906   2.424   1.259 -0.1942  0.0256  0.0421
 8315TIP3    H146360   3.814   2.425   1.234 -0.1310  0.7234 -0.1692
 8315TIP3    H246361   3.910   2.476   1.339 -0.3917 -2.1546  1.5677
 8316TIP3   OH246362   2.147   1.512  16.918  0.2579  0.4245  0.1549
 8316TIP3    H146363   2.164   1.487  17.009  0.5023  0.2481  0.0605
 8316TIP3    H246364   2.162   1.432  16.868 -0.8659  0.2506  0.0629
 8317TIP3   OH246365   6.758   2.090   1.114 -0.5162 -0.4259 -0.5554
 8317TIP3    H146366   6.664   2.081   1.131 -0.6769  0.0785 -1.1326
 8317TIP3    H246367   6.785   2.166   1.167 -0.5930 -0.1079 -0.9699
 8318TIP3   OH246368   5.613   0.087   4.595  0.2124 -0.0365  0.4788
 8318TIP3    H146369   5.641   0.009   4.547  3.0606  1.3734 -0.3567
 8318TIP3    H246370   5.541   0.122   4.542  2.1235  0.5069 -1.9914
 8319TIP3   OH246371   1.883   0.174  14.665 -0.0314 -0.8454 -0.7162
 8319TIP3    H146372   1.911   0.091  14.702  0.2880 -0.6007 -0.4081
 8319TIP3    H246373   1.964   0.224  14.653 -0.2454 -0.4861 -0.6787
 8320TIP3   OH246374   3.022   6.489  14.829 -0.1809 -0.0958  0.3743
 8320TIP3    H146375   2.961   6.433  14.877  1.7231 -2.2459  0.4673
 8320TIP3    H246376   2.980   6.503  14.744 -1.9712  0.7605  1.3367
 8321TIP3   OH246377   5.525   6.032  15.021 -0.5641  0.0059  0.2651
 8321TIP3    H146378   5.579   6.108  15.001 -0.4157 -0.5444 -1.6715
 8321TIP3    H246379   5.500   5.998  14.935 -1.5608 -1.4708  1.1021
 8322TIP3   OH246380   3.763   4.424  13.408 -0.0485 -0.3615  0.0469
 8322TIP3    H146381   3.738   4.514  13.429  2.2224  0.5592 -0.8142
 8322TIP3    H246382   3.681   4.375  13.408 -1.1900  1.4257  1.8348
 8323TIP3   OH246383   4.130   0.514   2.110 -0.2697 -0.2444  0.3095
 8323TIP3    H146384   4.172   0.460   2.177 -0.6556 -0.5662  0.2924
 8323TIP3    H246385   4.203   0.558   2.065  0.0548 -0.8715  0.2189
 8324TIP3   OH246386   4.518   3.112  10.877  0.2954 -0.0062  0.2304
 8324TIP3    H146387   4.504   3.043  10.942 -0.1274  0.0944  0.2486
 8324TIP3    H246388   4.505   3.069  10.793 -0.9831  0.2660  0.2675
 8325TIP3   OH246389   6.270   0.660   2.496 -0.0574  0.3779 -0.3800
 8325TIP3    H146390   6.294   0.616   2.414 -0.0757 -0.5267  0.0874
 8325TIP3    H246391   6.175   0.662   2.495 -0.1025 -0.6261  0.1049
 8326TIP3   OH246392   0.863   5.578   2.236 -0.0337  0.6470  0.4142
 8326TIP3    H146393   0.780   5.538   2.262  0.1731 -0.2761 -0.2932
 8326TIP3    H246394   0.844   5.619   2.151  0.2828  0.2559  0.1529
 8327TIP3   OH246395   4.551   1.665  12.546  0.1602 -0.1227  0.5670
 8327TIP3    H146396   4.564   1.696  12.456 -0.7377  1.7742  1.0387
 8327TIP3    H246397   4.639   1.661  12.582  0.6114 -1.6433 -0.5754
 8328TIP3   OH246398   4.979   1.898   4.917  0.6322  0.8681 -0.0132
 8328TIP3    H146399   4.902   1.896   4.973  0.5182  0.9650 -0.1626
 8328TIP3    H246400   4.967   1.823   4.858  0.8397  0.6609  0.2062
 8329TIP3   OH246401   4.631   5.995   4.613 -0.1371 -0.3445  0.1407
 8329TIP3    H146402   4.686   6.008   4.536  1.1524 -2.2629  0.6738
 8329TIP3    H246403   4.624   5.900   4.622 -1.4885 -0.1572  1.5615
 8330TIP3   OH246404   5.383   5.052   3.469 -0.4105  0.2677  0.2392
 8330TIP3    H146405   5.301   5.100   3.472 -0.1811  0.8386 -1.5096
 8330TIP3    H246406   5.442   5.102   3.525 -1.5018 -0.7925  2.4886
 8331TIP3   OH246407   2.655   0.267  10.924 -0.3652 -0.3345  0.5856
 8331TIP3    H146408   2.562   0.276  10.902 -0.8418 -0.2210  2.4408
 8331TIP3    H246409   2.676   0.177  10.899  0.1136  0.6802 -3.2881
 8332TIP3   OH246410   4.238   2.094   2.372  0.8824 -0.9162 -0.2595
 8332TIP3    H146411   4.204   2.169   2.420  0.9729 -0.6938 -0.5395
 8332TIP3    H246412   4.299   2.052   2.433  0.3564 -1.1257  0.1227
 8333TIP3   OH246413   6.713   6.778   2.463 -0.6199  0.4844  0.2463
 8333TIP3    H146414   6.805   6.799   2.449 -0.5495 -0.5859 -1.1406
 8333TIP3    H246415   6.707   6.752   2.555  0.5676  0.1002  0.2254
 8334TIP3   OH246416   3.393   4.664   6.544  0.1099  0.5895 -0.6957
 8334TIP3    H146417   3.459   4.610   6.500 -0.0667 -0.2674  0.0536
 8334TIP3    H246418   3.309   4.627   6.516 -0.0671  1.5822 -1.5315
 8335TIP3   OH246419   5.550   4.431  13.085 -0.0378  0.4404  0.1092
 8335TIP3    H146420   5.581   4.361  13.027  0.0825 -0.2595  1.0062
 8335TIP3    H246421   5.454   4.429  13.075  0.0308  0.8990 -0.7119
 8336TIP3   OH246422   4.215   2.668  15.369  0.1126  0.1588 -0.0865
 8336TIP3    H146423   4.280   2.675  15.439  0.9356  0.7395 -0.8930
 8336TIP3    H246424   4.260   2.702  15.291 -0.0867 -2.2668 -1.3554
 8337TIP3   OH246425   0.619   6.682   3.609  0.1957  0.0032  0.0858
 8337TIP3    H146426   0.539   6.712   3.565  0.4567  0.5437 -0.0370
 8337TIP3    H246427   0.670   6.762   3.622  0.6041 -0.3034  0.3927
 8338TIP3   OH246428   1.790   6.211   2.161 -0.1293 -0.6107 -0.2029
 8338TIP3    H146429   1.741   6.180   2.237 -0.9488 -1.7183 -1.1637
 8338TIP3    H246430   1.867   6.254   2.199 -0.1319 -1.7961  1.2339
 8339TIP3   OH246431   5.214   6.561  13.808 -0.0778  0.2275 -0.2840
 8339TIP3    H146432   5.126   6.551  13.844  0.2822  0.1562  0.5972
 8339TIP3    H246433   5.228   6.481  13.757 -0.1416 -0.2273  0.4032
 8340TIP3   OH246434   0.955   5.438  13.617  0.5257  0.3772  0.0483
 8340TIP3    H146435   1.028   5.377  13.619  1.3216  1.2474 -0.9745
 8340TIP3    H246436   0.911   5.421  13.534  1.3196  1.7933 -0.6895
 8341TIP3   OH246437   4.726   0.076   0.651  0.2793 -0.6748 -0.2759
 8341TIP3    H146438   4.720  -0.019   0.640 -0.5957 -0.9509  2.0564
 8341TIP3    H246439   4.812   0.091   0.689 -0.4603 -0.8360  1.5522
 8342TIP3   OH246440   0.759   2.134   2.788 -0.0040  0.4435 -0.6737
 8342TIP3    H146441   0.817   2.148   2.714  1.3418  1.0571  0.4484
 8342TIP3    H246442   0.786   2.199   2.853 -0.5120 -0.6724  0.7251
 8343TIP3   OH246443   1.706   0.512   3.028  0.1924  0.2904 -0.0839
 8343TIP3    H146444   1.780   0.550   3.076 -0.6999  2.3170 -0.2163
 8343TIP3    H246445   1.710   0.419   3.049  1.3246  0.7143  1.8856
 8344TIP3   OH246446   1.598   3.281   0.661 -0.0646  0.2747 -0.4035
 8344TIP3    H146447   1.581   3.210   0.722  1.1773  0.0175 -0.3221
 8344TIP3    H246448   1.533   3.269   0.591 -0.6723 -0.1837  0.2308
 8345TIP3   OH246449   3.862   3.357   1.365 -0.3451  0.3680 -0.1409
 8345TIP3    H146450   3.932   3.363   1.430 -0.3894 -0.0880 -0.0452
 8345TIP3    H246451   3.886   3.282   1.311  0.3856  1.5229 -1.4936
 8346TIP3   OH246452   1.727   4.476   5.128  0.4030  0.2181  0.0443
 8346TIP3    H146453   1.707   4.443   5.041  2.3007 -0.0236 -0.3479
 8346TIP3    H246454   1.708   4.570   5.123  1.7536  0.4668 -1.0787
 8347TIP3   OH246455   5.502   6.432   3.740  0.0631 -0.0069  0.2796
 8347TIP3    H146456   5.466   6.344   3.730  0.3140 -0.1082  0.2695
 8347TIP3    H246457   5.439   6.477   3.797  1.3654 -1.0464  2.6679
 8348TIP3   OH246458   5.115   5.206   5.611  0.5931 -0.0912  0.1609
 8348TIP3    H146459   5.043   5.149   5.640 -0.0436  0.4958 -0.2205
 8348TIP3    H246460   5.128   5.182   5.519 -1.2693  1.9047 -0.7350
 8349TIP3   OH246461   2.345   1.762  13.249 -0.1151  0.2841  0.3015
 8349TIP3    H146462   2.331   1.717  13.332  2.9431  0.8271  1.2506
 8349TIP3    H246463   2.337   1.694  13.182 -2.4313 -0.2024  0.9739
 8350TIP3   OH246464   6.094   0.399  13.620  0.3276  0.1920 -0.2998
 8350TIP3    H146465   6.077   0.375  13.529 -0.8737  0.8262 -0.2702
 8350TIP3    H246466   6.176   0.447  13.618 -0.4183  1.4860 -1.2862
 8351TIP3   OH246467   0.336   4.782  16.870  0.5129  0.4649  0.0715
 8351TIP3    H146468   0.278   4.713  16.837 -1.4572  1.7742  0.6356
 8351TIP3    H246469   0.382   4.742  16.943 -0.9963 -0.1198  0.7361
 8352TIP3   OH246470   5.671   1.531   1.836 -0.2928  0.3890 -0.4249
 8352TIP3    H146471   5.700   1.621   1.822  0.9271 -0.1415 -1.4121
 8352TIP3    H246472   5.722   1.501   1.912 -1.6553  0.9221  0.7494
 8353TIP3   OH246473   3.053   2.105   1.738  0.3316  0.1958  0.3522
 8353TIP3    H146474   3.008   2.026   1.768  1.7388 -0.4115  0.9335
 8353TIP3    H246475   3.027   2.114   1.647  0.2970 -1.0581  0.2201
 8354TIP3   OH246476   3.933   3.593  14.439 -0.1231 -0.5839 -0.5986
 8354TIP3    H146477   3.906   3.667  14.495  2.0834 -1.0582  1.2406
 8354TIP3    H246478   3.868   3.592  14.369 -0.1543  3.2596 -0.8814
 8355TIP3   OH246479   4.150   4.991   6.642 -0.3584  0.0028  0.4256
 8355TIP3    H146480   4.216   4.932   6.677 -1.9565 -1.7653  0.6474
 8355TIP3    H246481   4.190   5.028   6.563  0.8728 -1.0459  0.5248
 8356TIP3   OH246482   2.448   0.106  14.134 -0.3515  0.0238 -0.0251
 8356TIP3    H146483   2.424   0.095  14.226 -0.3554 -0.4875 -0.0874
 8356TIP3    H246484   2.457   0.017  14.100  1.4290  0.1806 -0.0618
 8357TIP3   OH246485   5.439   4.016   1.818 -0.0426  0.2925 -0.6189
 8357TIP3    H146486   5.459   4.040   1.908  0.5225 -2.3014  0.0576
 8357TIP3    H246487   5.378   3.942   1.826 -0.7843  0.6676 -2.4060
 8358TIP3   OH246488   0.704   1.194  12.756 -0.3033  0.3827 -0.4816
 8358TIP3    H146489   0.639   1.217  12.823 -0.5872  1.4584 -1.0942
 8358TIP3    H246490   0.754   1.122  12.794 -0.6084  0.8143  0.7865
 8359TIP3   OH246491   4.619   4.851  15.061 -1.1188 -0.1496  0.2049
 8359TIP3    H146492   4.557   4.779  15.077  0.3109 -1.5978 -0.5270
 8359TIP3    H246493   4.641   4.884  15.149 -0.3460 -1.8953  0.7061
 8360TIP3   OH246494   2.050   5.448  15.748 -0.0457 -0.7430 -0.0699
 8360TIP3    H146495   2.082   5.359  15.764 -2.7892 -1.8328 -0.0922
 8360TIP3    H246496   2.058   5.460  15.653  0.5930 -0.8295 -0.0333
 8361TIP3   OH246497   5.303   4.388   0.883  0.2578 -0.1316 -0.1809
 8361TIP3    H146498   5.229   4.328   0.893 -1.2938  1.8127  0.7144
 8361TIP3    H246499   5.297   4.417   0.792  0.4603 -0.6125 -0.3535
 8362TIP3   OH246500   5.820   6.607   1.627 -0.5658  0.5641  0.2462
 8362TIP3    H146501   5.798   6.629   1.718  0.5092  0.9060  0.4368
 8362TIP3    H246502   5.823   6.511   1.626 -0.1983  0.5680  0.6678
 8363TIP3   OH246503   1.016   6.420   5.536  1.1741 -0.2506 -0.8231
 8363TIP3    H146504   1.069   6.499   5.543 -1.0224  1.3145 -0.6196
 8363TIP3    H246505   1.052   6.361   5.602  1.9853  1.1538  0.0542
 8364TIP3   OH246506   5.549   2.118   1.397 -0.2586 -0.6417  0.1001
 8364TIP3    H146507   5.512   2.133   1.310 -1.7900 -0.4608  0.7511
 8364TIP3    H246508   5.622   2.057   1.382  0.1300  0.1343 -1.4086
 8365TIP3   OH246509   3.163   4.390  13.649 -0.5302 -0.2256  0.6066
 8365TIP3    H146510   3.235   4.429  13.599 -1.0869 -1.7121 -1.5140
 8365TIP3    H246511   3.141   4.456  13.714  1.0688  1.3343 -0.3287
 8366TIP3   OH246512   3.203   4.411   2.022 -0.9538  0.2725  0.7927
 8366TIP3    H146513   3.278   4.454   2.064  0.3439 -1.6153  0.5212
 8366TIP3    H246514   3.135   4.478   2.021  0.7152  2.0659  1.0431
 8367TIP3   OH246515   4.579   1.940   1.351 -0.2549  0.4529 -0.2263
 8367TIP3    H146516   4.562   1.960   1.442  2.6890  0.8285  0.3388
 8367TIP3    H246517   4.576   2.024   1.306  3.0421  1.0744  0.4902
 8368TIP3   OH246518   5.641   1.179   2.758 -0.5198  0.3440  0.6691
 8368TIP3    H146519   5.566   1.201   2.702 -0.1954  1.7278  0.7589
 8368TIP3    H246520   5.621   1.091   2.790 -0.8996 -0.3522 -1.3091
 8369TIP3   OH246521   0.570   0.714  14.224 -0.0299  0.0593  0.2835
 8369TIP3    H146522   0.648   0.758  14.258 -0.1364  0.2391  0.2969
 8369TIP3    H246523   0.510   0.711  14.298 -0.9855  2.1144 -0.3383
 8370TIP3   OH246524   2.066   3.226   0.885 -0.4192 -0.3682  0.5022
 8370TIP3    H146525   2.118   3.187   0.815 -0.3195  0.1375  0.2920
 8370TIP3    H246526   2.096   3.316   0.890  0.1932 -0.6261  1.7921
 8371TIP3   OH246527   1.134   0.997   1.839 -0.2110  0.1596 -0.1548
 8371TIP3    H146528   1.179   0.922   1.878 -0.5698  0.4760  0.8814
 8371TIP3    H246529   1.204   1.061   1.823  0.0969 -0.3814 -1.0475
 8372TIP3   OH246530   5.996   3.673  11.285 -0.3888 -0.1353 -0.2195
 8372TIP3    H146531   6.027   3.754  11.246 -1.4691  0.6818  0.5477
 8372TIP3    H246532   5.955   3.625  11.213  0.2211  0.0096 -0.6690
 8373TIP3   OH246533   5.445   1.280   3.526 -0.6109 -0.2209 -0.6160
 8373TIP3    H146534   5.388   1.272   3.450 -1.5933  0.2039  0.0631
 8373TIP3    H246535   5.390   1.320   3.594  0.4384  0.0446  0.1059
 8374TIP3   OH246536   5.702   4.196  12.925  0.6154 -0.2923 -0.2068
 8374TIP3    H146537   5.792   4.185  12.956  0.8166 -0.7551 -0.9400
 8374TIP3    H246538   5.659   4.112  12.942  0.3747 -0.1312 -0.0180
 8375TIP3   OH246539   6.348   0.809  14.568  0.0377 -0.3838  0.6160
 8375TIP3    H146540   6.408   0.877  14.539 -1.2823  0.4871 -0.2092
 8375TIP3    H246541   6.308   0.844  14.647  0.2602 -0.7516  0.8937
 8376TIP3   OH246542   3.245   3.709  15.179 -0.7691  0.5034  0.0090
 8376TIP3    H146543   3.245   3.738  15.088  0.1660 -0.6510 -0.3750
 8376TIP3    H246544   3.328   3.664  15.191 -0.9439  0.4941  1.4005
 8377TIP3   OH246545   0.080   5.903   3.389  0.0506 -0.4320 -0.1726
 8377TIP3    H146546   0.026   5.861   3.455  0.0661 -0.2972 -0.0743
 8377TIP3    H246547   0.062   5.996   3.399  1.5864 -0.2176  1.0261
 8378TIP3   OH246548   4.445   2.569   1.815  0.0908 -0.4743  0.6109
 8378TIP3    H146549   4.487   2.493   1.856  2.6112  1.3227  1.6089
 8378TIP3    H246550   4.498   2.586   1.737 -0.4359  0.2962  0.4145
 8379TIP3   OH246551   2.832   3.150  11.083  0.4473  0.2024 -0.1599
 8379TIP3    H146552   2.789   3.076  11.041 -1.7972  0.8923  0.7846
 8379TIP3    H246553   2.848   3.213  11.012  0.1807 -0.1972 -0.5714
 8380TIP3   OH246554   4.511   3.330  13.487  0.2240  0.0593  0.0161
 8380TIP3    H146555   4.486   3.404  13.542  0.1012  0.6121 -0.7724
 8380TIP3    H246556   4.564   3.368  13.417  0.4592 -0.6465 -0.2032
 8381TIP3   OH246557   5.735   3.316  11.168 -0.2320 -0.3218 -0.2961
 8381TIP3    H146558   5.655   3.366  11.150  0.5886  0.7610 -1.1147
 8381TIP3    H246559   5.806   3.372  11.136  0.8757 -1.1887  0.5503
 8382TIP3   OH246560   4.720   0.590   5.858 -0.6510 -0.0784 -0.1969
 8382TIP3    H146561   4.802   0.549   5.887 -0.6773 -0.6289 -0.8919
 8382TIP3    H246562   4.748   0.673   5.818 -0.5424  0.2881  0.6252
 8383TIP3   OH246563   0.475   1.496   0.869 -0.0698 -0.5667  0.2462
 8383TIP3    H146564   0.510   1.473   0.783  1.5020 -1.0214  0.9742
 8383TIP3    H246565   0.551   1.497   0.927 -1.1545 -0.7777  1.7435
 8384TIP3   OH246566   2.362   3.571   1.693 -0.5533 -0.0723  0.0238
 8384TIP3    H146567   2.355   3.478   1.671  1.1252 -0.5352  1.2761
 8384TIP3    H246568   2.442   3.600   1.650 -0.4549  0.5067  0.5782
 8385TIP3   OH246569   2.720   3.647   3.920 -0.4215  0.0931  0.0278
 8385TIP3    H146570   2.720   3.639   3.825 -0.8255  1.3490 -0.0913
 8385TIP3    H246571   2.728   3.741   3.937 -2.6156  0.1403  1.1987
 8386TIP3   OH246572   5.137   4.565  13.868 -0.2592  0.1698  0.4132
 8386TIP3    H146573   5.217   4.517  13.848 -1.1441 -1.0209 -0.3574
 8386TIP3    H246574   5.092   4.575  13.784 -0.8689  0.9526  0.8064
 8387TIP3   OH246575   3.498   0.169   0.242 -0.1239  0.5844 -0.3527
 8387TIP3    H146576   3.430   0.177   0.309 -1.2536  0.6119 -1.4758
 8387TIP3    H246577   3.457   0.121   0.171  1.5828 -1.0077 -0.3660
 8388TIP3   OH246578   2.745   6.366  14.173  0.4935 -0.2731  0.4691
 8388TIP3    H146579   2.750   6.460  14.190  1.5172  0.0426 -1.3198
 8388TIP3    H246580   2.651   6.348  14.166  0.1110  1.8743 -4.8405
 8389TIP3   OH246581   3.892   0.266  14.430 -0.2342  0.5380 -1.0628
 8389TIP3    H146582   3.979   0.228  14.444 -1.1664 -0.7443  2.2875
 8389TIP3    H246583   3.907   0.360  14.424  1.2849  0.6208  2.1442
 8390TIP3   OH246584   0.573   1.669  14.957  0.1611 -0.6374 -0.0488
 8390TIP3    H146585   0.612   1.590  14.918  0.1676 -0.4967 -0.3363
 8390TIP3    H246586   0.645   1.731  14.962  0.4668 -1.0797  1.4070
 8391TIP3   OH246587   5.098   6.062   2.060 -0.1659 -0.2930  0.3919
 8391TIP3    H146588   5.025   6.119   2.086 -1.1465  0.0151 -2.5567
 8391TIP3    H246589   5.175   6.118   2.067 -0.5378  0.1282  1.3413
 8392TIP3   OH246590   0.743   2.003  14.143 -0.1143 -0.0269  0.0409
 8392TIP3    H146591   0.743   2.043  14.055  1.8426  0.1330  0.0743
 8392TIP3    H246592   0.662   1.951  14.145 -0.9199  1.0764 -1.3227
 8393TIP3   OH246593   3.738   4.659  16.565  0.4147  0.5756 -0.0445
 8393TIP3    H146594   3.742   4.754  16.563  0.2672  0.6062  0.6694
 8393TIP3    H246595   3.646   4.639  16.587  0.9774  0.3592  2.4727
 8394TIP3   OH246596   0.452   4.963   0.193  0.1429  0.4557  0.1882
 8394TIP3    H146597   0.406   4.930   0.271 -0.7620  0.8589 -0.1551
 8394TIP3    H246598   0.382   4.995   0.136  0.6257 -1.4239 -1.5866
 8395TIP3   OH246599   2.037   3.281   3.191  0.3823 -0.2626 -0.0351
 8395TIP3    H146600   1.971   3.215   3.212  2.2388 -1.4837  2.4345
 8395TIP3    H246601   2.082   3.297   3.274  1.2746  2.7318 -0.9778
 8396TIP3   OH246602   4.981   5.415  10.956 -0.1944  0.0299 -0.2394
 8396TIP3    H146603   4.977   5.443  10.864  0.5924  1.0450  0.0106
 8396TIP3    H246604   5.039   5.339  10.955 -0.2020  0.0239 -0.5831
 8397TIP3   OH246605   5.437   2.201  17.038 -0.0379  0.0492  0.0428
 8397TIP3    H146606   5.446   2.162  17.125 -1.3577 -0.4651 -0.0410
 8397TIP3    H246607   5.354   2.249  17.042  1.0710  2.1119 -0.1566
 8398TIP3   OH246608   3.830   3.525  13.547 -0.4438 -0.1174 -0.2295
 8398TIP3    H146609   3.786   3.484  13.622  0.4287 -0.0585  0.3374
 8398TIP3    H246610   3.889   3.456  13.514  0.6643  0.4839  0.4192
 8399TIP3   OH246611   4.287   2.311  11.928 -0.3105  0.6971  0.4164
 8399TIP3    H146612   4.203   2.268  11.909  1.0825 -1.7816 -0.5428
 8399TIP3    H246613   4.310   2.282  12.016  0.8851 -1.0853 -0.4304
 8400TIP3   OH246614   0.065   3.574  15.166 -0.5002  0.3169 -0.7176
 8400TIP3    H146615   0.034   3.659  15.199  0.3472 -0.5014  2.5605
 8400TIP3    H246616   0.136   3.596  15.106  1.7615  2.0446  2.3067
 8401TIP3   OH246617   3.061   4.984   2.158 -0.0119 -0.6847  0.4881
 8401TIP3    H146618   3.141   4.947   2.121 -0.2258  0.1597 -0.8469
 8401TIP3    H246619   3.091   5.034   2.234  0.9432  0.8072 -0.8058
 8402TIP3   OH246620   2.924   3.629  13.914  0.0298 -0.1387  0.1922
 8402TIP3    H146621   3.019   3.621  13.907  0.3950  3.1054  0.1377
 8402TIP3    H246622   2.909   3.668  14.000 -1.1390  0.5609 -0.2968
 8403TIP3   OH246623   6.236   2.259  11.497 -0.1477  0.3070 -0.7663
 8403TIP3    H146624   6.177   2.333  11.512 -0.0522  0.0944  0.8882
 8403TIP3    H246625   6.219   2.233  11.407 -1.0464  1.5829 -1.0028
 8404TIP3   OH246626   2.445   1.554   5.553 -0.1831 -0.0566 -0.2394
 8404TIP3    H146627   2.403   1.472   5.577  0.7812 -0.3185  0.6287
 8404TIP3    H246628   2.539   1.535   5.555  0.2744  1.7123  2.8724
 8405TIP3   OH246629   1.371   3.950  14.857 -0.3473  0.1772  0.3916
 8405TIP3    H146630   1.337   3.912  14.777  0.3393  1.0003 -0.3133
 8405TIP3    H246631   1.416   3.878  14.902  0.5604  0.0455 -0.7010
 8406TIP3   OH246632   6.426   2.390   1.657 -0.1379  0.1313  0.4699
 8406TIP3    H146633   6.383   2.466   1.695  0.8597  1.0473 -0.2001
 8406TIP3    H246634   6.452   2.418   1.570 -0.8728 -1.3879 -0.2759
 8407TIP3   OH246635   2.807   6.589   0.426 -0.5493  0.2162 -0.0279
 8407TIP3    H146636   2.816   6.584   0.330 -0.0037 -2.8936  0.0870
 8407TIP3    H246637   2.728   6.539   0.445  0.8542 -1.6203  1.2853
 8408TIP3   OH246638   5.684   5.886   5.290 -0.1189 -0.2230  0.1878
 8408TIP3    H146639   5.642   5.960   5.247 -1.1942 -1.6351 -1.3298
 8408TIP3    H246640   5.692   5.819   5.222  2.6707 -0.8328  0.9705
 8409TIP3   OH246641   5.769   0.795   5.339  0.7018  0.4080 -0.3530
 8409TIP3    H146642   5.799   0.837   5.258  0.0108  2.2572  0.2835
 8409TIP3    H246643   5.850   0.769   5.383  1.1023 -0.1955 -1.4199
 8410TIP3   OH246644   5.565   3.171  14.367 -0.2613 -0.0615  0.1990
 8410TIP3    H146645   5.567   3.154  14.461  2.5895 -0.9717  0.0622
 8410TIP3    H246646   5.656   3.193  14.345 -1.0330  0.9880 -2.2050
 8411TIP3   OH246647   0.185   5.043  14.354 -0.2518 -0.3722  0.3354
 8411TIP3    H146648   0.138   5.016  14.433 -1.4002 -0.4399 -0.3404
 8411TIP3    H246649   0.137   5.120  14.323 -0.0446 -0.5700 -0.4908
 8412TIP3   OH246650   3.688   1.291   5.049 -0.0489  0.2110  0.1043
 8412TIP3    H146651   3.764   1.232   5.048 -0.2719 -0.0750 -0.2470
 8412TIP3    H246652   3.702   1.350   4.975 -1.1086 -1.0758 -1.2057
 8413TIP3   OH246653   5.542   0.183  14.840  0.5740 -0.0222 -0.0802
 8413TIP3    H146654   5.505   0.111  14.891  1.8363  0.0398  0.9778
 8413TIP3    H246655   5.474   0.205  14.776 -0.3301 -1.3044  0.4033
 8414TIP3   OH246656   4.129   0.875   1.147 -0.1491 -0.7372 -0.0554
 8414TIP3    H146657   4.143   0.941   1.079  1.1028 -0.8321  0.0834
 8414TIP3    H246658   4.182   0.800   1.119 -0.0024 -0.9507  0.7726
 8415TIP3   OH246659   5.286   5.503  15.519  0.4101  0.3342  0.1477
 8415TIP3    H146660   5.356   5.562  15.493  0.8904 -0.1810  0.2524
 8415TIP3    H246661   5.266   5.525  15.610 -1.9759  2.8434 -0.8378
 8416TIP3   OH246662   6.217   4.857   4.915 -0.1455 -0.1247  0.3757
 8416TIP3    H146663   6.259   4.837   4.831 -0.7612 -1.7882  0.4362
 8416TIP3    H246664   6.283   4.907   4.963  0.7048 -0.2859 -0.5861
 8417TIP3   OH246665   6.414   4.707   3.422  0.2432 -0.1295 -0.2655
 8417TIP3    H146666   6.469   4.764   3.476 -1.6853  0.3021  1.3563
 8417TIP3    H246667   6.387   4.763   3.349  1.4783 -0.1960 -0.8078
 8418TIP3   OH246668   2.707   6.287   1.743  0.0744  0.2084 -0.0552
 8418TIP3    H146669   2.655   6.248   1.673  1.0467  0.6496 -1.0492
 8418TIP3    H246670   2.686   6.381   1.740  0.1677  0.2401  0.2088
 8419TIP3   OH246671   3.786   3.706   2.116 -0.0038 -0.1587  0.1335
 8419TIP3    H146672   3.691   3.692   2.110 -0.0632  0.2055  0.2326
 8419TIP3    H246673   3.817   3.694   2.026 -0.1009 -0.5819  0.1530
 8420TIP3   OH246674   3.090   2.803   0.770  0.3420  0.1427  0.5003
 8420TIP3    H146675   3.070   2.862   0.843 -0.2902 -1.2979  1.5304
 8420TIP3    H246676   3.146   2.735   0.808  0.4082 -0.3692 -0.4786
 8421TIP3   OH246677   0.161   0.197   1.984 -0.1688  0.4453  0.2753
 8421TIP3    H146678   0.200   0.208   1.898  1.9014  1.7100  1.2875
 8421TIP3    H246679   0.068   0.212   1.970 -0.0955 -0.8247 -1.9519
 8422TIP3   OH246680   3.385   4.590   0.923 -0.3428  0.0224 -0.2013
 8422TIP3    H146681   3.329   4.527   0.877  0.2837 -0.9524  0.3152
 8422TIP3    H246682   3.323   4.649   0.967 -0.9681 -0.6606 -0.1326
 8423TIP3   OH246683   2.093   2.483  11.137  0.2781 -0.4050 -0.1625
 8423TIP3    H146684   2.007   2.449  11.160  0.2556 -1.5189 -1.7351
 8423TIP3    H246685   2.078   2.534  11.058  1.0161 -0.3737 -0.2854
 8424TIP3   OH246686   3.232   3.846  14.132  0.2666 -0.3978  0.1136
 8424TIP3    H146687   3.226   3.861  14.037 -0.5961  0.6246  0.3181
 8424TIP3    H246688   3.154   3.887  14.168  0.0516 -1.6847  1.1869
 8425TIP3   OH246689   4.022   5.292  16.239 -0.2895  0.3487  0.4049
 8425TIP3    H146690   4.034   5.197  16.237 -1.1204  0.2340 -0.7928
 8425TIP3    H246691   4.036   5.316  16.330  2.6615 -0.5284  0.2977
 8426TIP3   OH246692   2.918   3.388  15.582 -0.1256  0.2329 -0.5816
 8426TIP3    H146693   2.938   3.350  15.496 -0.5300 -0.2709 -0.4558
 8426TIP3    H246694   2.826   3.367  15.596 -0.0509  0.2932 -0.0087
 8427TIP3   OH246695   2.961   1.064  11.969  0.2254  0.7103  0.1284
 8427TIP3    H146696   2.909   1.131  11.924  2.3302  0.5050 -2.9716
 8427TIP3    H246697   2.938   1.073  12.061 -2.2858  3.2046 -0.5942
 8428TIP3   OH246698   5.550   5.939   5.586  0.3086 -0.3925 -0.5391
 8428TIP3    H146699   5.541   5.989   5.667  0.6086  0.3443 -0.9426
 8428TIP3    H246700   5.581   6.004   5.522  1.6420 -1.3088 -0.8534
 8429TIP3   OH246701   5.765   4.921   2.828 -0.0444  0.3897 -0.0428
 8429TIP3    H146702   5.722   4.899   2.911  0.9679  1.3917  0.7769
 8429TIP3    H246703   5.704   4.890   2.761 -1.2714  0.2984  1.0660
 8430TIP3   OH246704   4.243   5.278   1.769  0.1293  0.1268 -0.0231
 8430TIP3    H146705   4.276   5.274   1.679  1.5724  0.4493  0.4708
 8430TIP3    H246706   4.258   5.190   1.804 -0.3909  0.0152 -0.0662
 8431TIP3   OH246707   3.304   1.908  15.261  0.3188  0.4902  0.4567
 8431TIP3    H146708   3.340   1.940  15.178 -2.5077 -1.1556 -1.5947
 8431TIP3    H246709   3.239   1.972  15.286 -0.5972 -0.2342 -0.0089
 8432TIP3   OH246710   0.092   4.649  14.746 -0.6718  0.0963  0.1684
 8432TIP3    H146711   0.139   4.635  14.664 -1.2607 -1.0447 -0.0024
 8432TIP3    H246712   0.127   4.731  14.781  0.3503  0.0433 -0.6899
 8433TIP3   OH246713   0.555   3.676  13.286 -0.1967 -0.3913 -0.6405
 8433TIP3    H146714   0.589   3.624  13.359  0.4847  0.4809 -0.3220
 8433TIP3    H246715   0.621   3.744  13.272 -2.0066  1.6494  0.2593
 8434TIP3   OH246716   0.994   5.552   3.761  0.0323  0.3666 -0.2302
 8434TIP3    H146717   1.024   5.632   3.805 -1.5112  0.4309  0.7588
 8434TIP3    H246718   0.983   5.488   3.831 -0.7384 -0.0802 -0.7489
 8435TIP3   OH246719   2.241   0.996   5.501  0.0089  0.2528  0.2815
 8435TIP3    H146720   2.155   0.974   5.538  0.0194  1.0236  0.7790
 8435TIP3    H246721   2.264   1.080   5.540  0.9894  0.0669  0.1392
 8436TIP3   OH246722   0.690   3.619   5.334  0.1936 -0.2475 -0.4302
 8436TIP3    H146723   0.746   3.684   5.376  0.7614 -1.4533  0.7372
 8436TIP3    H246724   0.750   3.550   5.306 -0.7117 -1.8001  1.2749
 8437TIP3   OH246725   5.932   1.803  13.317  0.3226 -0.4027  0.7982
 8437TIP3    H146726   6.004   1.777  13.260 -0.7737  0.5084 -1.0968
 8437TIP3    H246727   5.855   1.758  13.281 -1.3296  3.8297 -1.5662
 8438TIP3   OH246728   3.480   0.189   2.969 -0.0604 -0.2438 -0.3133
 8438TIP3    H146729   3.546   0.243   2.927  0.2836 -1.7063 -1.7765
 8438TIP3    H246730   3.399   0.241   2.965  1.0744  1.9917  2.3985
 8439TIP3   OH246731   2.991   3.764   4.157  0.2104 -0.0033  0.0371
 8439TIP3    H146732   3.052   3.787   4.227  0.7120  0.3308 -0.5032
 8439TIP3    H246733   2.973   3.846   4.112 -0.2225 -0.1928 -0.1437
 8440TIP3   OH246734   0.262   5.764   2.525 -0.1641  0.1559 -0.1038
 8440TIP3    H146735   0.301   5.765   2.437 -1.2751  0.3580 -0.6168
 8440TIP3    H246736   0.305   5.836   2.571  0.7521 -0.2318 -0.3269
 8441TIP3   OH246737   6.738   1.539  14.288  0.3071 -0.5201 -0.8003
 8441TIP3    H146738   6.662   1.597  14.282  0.3804 -0.3937 -0.5214
 8441TIP3    H246739   6.702   1.457  14.324  0.5408  0.0188  0.7539
 8442TIP3   OH246740   1.222   2.721   6.201 -0.0642  0.4711 -0.0978
 8442TIP3    H146741   1.230   2.799   6.146 -1.3963  0.6235 -0.1149
 8442TIP3    H246742   1.236   2.752   6.290 -2.0297  1.0490  0.0515
 8443TIP3   OH246743   5.181   3.833  12.598  0.7252  0.3572  0.5643
 8443TIP3    H146744   5.118   3.805  12.664  1.0111 -1.0562  0.2866
 8443TIP3    H246745   5.183   3.760  12.535 -0.5636  2.1981 -1.7837
 8444TIP3   OH246746   5.231   3.811   2.284  0.6543  0.1530 -0.0294
 8444TIP3    H146747   5.155   3.754   2.287  0.8871 -0.1463  0.3788
 8444TIP3    H246748   5.268   3.805   2.372 -0.6098  2.7342  0.7614
 8445TIP3   OH246749   0.549   5.123   5.585  0.2475  0.1150  0.0666
 8445TIP3    H146750   0.549   5.067   5.507  0.1626 -1.6330  1.2605
 8445TIP3    H246751   0.565   5.063   5.658  0.5239  1.7211  1.3996
 8446TIP3   OH246752   4.813   4.965   2.456 -0.4205  0.0770  0.4240
 8446TIP3    H146753   4.811   5.054   2.491  0.0153  0.4682 -0.5017
 8446TIP3    H246754   4.814   4.977   2.361  1.1014 -0.8575  0.2854
 8447TIP3   OH246755   0.313   2.770  12.373 -0.2735 -0.3311  0.0752
 8447TIP3    H146756   0.358   2.695  12.414  1.6675 -0.6807 -2.4333
 8447TIP3    H246757   0.290   2.739  12.286  0.9819  2.0697 -1.2104
 8448TIP3   OH246758   0.325   6.576   4.075 -0.5705  0.5812 -0.1930
 8448TIP3    H146759   0.277   6.627   4.010 -0.5537  0.0465 -0.6374
 8448TIP3    H246760   0.404   6.548   4.029 -0.1907  0.8250  0.2963
 8449TIP3   OH246761   2.558   5.601  11.768  0.3116 -0.2008 -0.5733
 8449TIP3    H146762   2.484   5.550  11.733 -0.0719 -0.2888  0.3099
 8449TIP3    H246763   2.561   5.680  11.715 -0.0693 -0.4492 -0.9732
 8450TIP3   OH246764   0.250   4.066  14.067  0.1293  0.1085  0.2276
 8450TIP3    H146765   0.219   4.142  14.018 -0.0652  0.1030  0.3386
 8450TIP3    H246766   0.227   4.086  14.158 -3.5881 -1.7722 -0.1021
 8451TIP3   OH246767   2.086   5.939  15.291  0.4325 -0.1672  0.0571
 8451TIP3    H146768   2.133   5.883  15.353  1.3929  0.4078 -0.1311
 8451TIP3    H246769   2.008   5.967  15.339 -0.8754 -2.8380 -0.3509
 8452TIP3   OH246770   0.431   4.310   5.286 -0.1098  0.1052 -0.4198
 8452TIP3    H146771   0.473   4.241   5.338 -1.1886 -0.0705  0.2251
 8452TIP3    H246772   0.480   4.389   5.308 -0.7915  0.1151  1.1768
 8453TIP3   OH246773   4.978   2.668  15.193  0.6276 -0.2555 -0.3916
 8453TIP3    H146774   5.042   2.706  15.133  0.9855 -1.6075 -0.9137
 8453TIP3    H246775   4.908   2.733  15.198  0.6465 -0.0433 -2.1919
 8454TIP3   OH246776   6.686   4.777   0.353  0.2165  0.5403  0.2770
 8454TIP3    H146777   6.624   4.719   0.309  1.1370 -0.6919  0.5538
 8454TIP3    H246778   6.632   4.833   0.408 -0.8502  1.2639 -1.4201
 8455TIP3   OH246779   5.005   5.413   0.274 -0.0137  0.0595 -0.5318
 8455TIP3    H146780   5.036   5.431   0.363  1.1736  1.3636 -1.1836
 8455TIP3    H246781   4.911   5.433   0.277  0.1909  0.9728  0.2089
 8456TIP3   OH246782   5.058   6.527   5.701 -0.6908 -0.1246 -0.6955
 8456TIP3    H146783   4.994   6.567   5.641  0.9034  1.9218 -1.1826
 8456TIP3    H246784   5.053   6.580   5.780 -1.5632 -1.7511  0.3887
 8457TIP3   OH246785   2.460   3.100  14.959  0.6644 -0.5220 -0.0394
 8457TIP3    H146786   2.430   3.020  14.915 -1.6150  0.3999 -0.2700
 8457TIP3    H246787   2.465   3.165  14.890  0.4378  0.0671  0.4881
 8458TIP3   OH246788   5.551   2.100   5.943  0.1103 -0.9764  0.1372
 8458TIP3    H146789   5.627   2.136   5.897 -0.6807  1.3134  0.5153
 8458TIP3    H246790   5.503   2.052   5.875  0.9343 -0.9166 -0.5142
 8459TIP3   OH246791   0.714   0.984   2.535 -0.4743  0.1706 -0.3586
 8459TIP3    H146792   0.634   1.017   2.576 -0.2098  0.0299  0.2852
 8459TIP3    H246793   0.684   0.917   2.474 -0.7849 -0.7737  0.7747
 8460TIP3   OH246794   0.172   5.142   3.350  0.1906 -0.4756 -0.2119
 8460TIP3    H146795   0.204   5.228   3.325 -0.5334  0.3514  1.5808
 8460TIP3    H246796   0.104   5.122   3.285  0.2165  0.3926 -0.5181
 8461TIP3   OH246797   6.375   4.672  15.814  0.3883 -0.2040  0.3431
 8461TIP3    H146798   6.427   4.727  15.755  0.7823  1.9653  2.5629
 8461TIP3    H246799   6.425   4.590  15.821  1.4138  0.3114 -0.6725
 8462TIP3   OH246800   1.715   2.154  13.895 -0.0895  0.8613 -0.3011
 8462TIP3    H146801   1.679   2.089  13.834 -0.3724  0.4246  0.3272
 8462TIP3    H246802   1.810   2.141  13.890 -0.0645  1.2955 -1.1607
 8463TIP3   OH246803   2.403   2.751   5.550  0.2030  0.1535  0.8319
 8463TIP3    H146804   2.336   2.704   5.500  1.0937  0.2085 -0.4844
 8463TIP3    H246805   2.353   2.807   5.610 -1.0189  1.1580 -0.9953
 8464TIP3   OH246806   5.323   5.231  15.460 -0.1325  0.3902 -0.5305
 8464TIP3    H146807   5.289   5.296  15.522  0.1076  2.3853 -2.4029
 8464TIP3    H246808   5.400   5.195  15.503 -1.0371  0.3119  1.1230
 8465TIP3   OH246809   5.967   2.790   0.266  0.3421 -0.2589 -0.3261
 8465TIP3    H146810   5.950   2.823   0.178  1.3783 -1.6738 -1.1111
 8465TIP3    H246811   6.050   2.830   0.292  0.3497 -0.3199 -0.2535
 8466TIP3   OH246812   5.561   5.429   4.921 -0.4347 -0.0783  0.3362
 8466TIP3    H146813   5.604   5.364   4.865 -0.3732 -0.7702  1.1597
 8466TIP3    H246814   5.502   5.377   4.976 -1.1324  0.6845  0.3160
 8467TIP3   OH246815   6.765   3.808   0.058  0.1485  0.2684  0.6259
 8467TIP3    H146816   6.815   3.828   0.137 -1.3321 -0.1182  1.6914
 8467TIP3    H246817   6.829   3.767  -0.000  1.2392  0.4361  1.6667
 8468TIP3   OH246818   2.314   4.871   4.850  0.8191  0.1857  0.1586
 8468TIP3    H146819   2.398   4.828   4.861  1.0118 -0.7494 -3.6059
 8468TIP3    H246820   2.254   4.801   4.824 -0.5707  1.1913  0.5044
 8469TIP3   OH246821   0.980   2.656  15.730  0.3561  0.8787  0.2961
 8469TIP3    H146822   0.911   2.611  15.682  0.7389 -0.4827  0.9700
 8469TIP3    H246823   0.973   2.622  15.820  2.4115  0.0383  0.2107
 8470TIP3   OH246824   0.669   2.136   2.412  0.0025 -0.7567 -0.0432
 8470TIP3    H146825   0.631   2.199   2.351 -1.7407  0.0142  1.7134
 8470TIP3    H246826   0.600   2.071   2.424  0.5287 -1.1927  0.6950
 8471TIP3   OH246827   1.197   4.980  15.712  0.2557  0.9941 -0.1917
 8471TIP3    H146828   1.177   5.071  15.693 -0.5475  1.0883  0.9674
 8471TIP3    H246829   1.275   4.960  15.660  0.0157  2.1193 -1.0053
 8472TIP3   OH246830   5.480   2.530   4.823  0.2344 -0.3709 -0.4413
 8472TIP3    H146831   5.433   2.611   4.803  2.3595  0.7733 -1.1322
 8472TIP3    H246832   5.516   2.544   4.911  1.3752 -0.1386 -0.9266
 8473TIP3   OH246833   5.578   3.631  16.171 -0.0081  0.3633 -0.8567
 8473TIP3    H146834   5.520   3.684  16.115 -2.3307 -0.2284  0.8321
 8473TIP3    H246835   5.600   3.555  16.117 -0.9868  0.5191 -1.5079
 8474TIP3   OH246836   3.909   5.233  15.372 -0.1317 -0.4274 -0.3060
 8474TIP3    H146837   3.965   5.218  15.448 -1.9847 -0.0368  1.2070
 8474TIP3    H246838   3.913   5.151  15.323  0.1618 -1.1367  0.8636
 8475TIP3   OH246839   5.105   2.964  15.685  1.0434  0.3504  0.0503
 8475TIP3    H146840   5.181   2.913  15.712 -0.3590 -1.9805 -0.0800
 8475TIP3    H246841   5.106   3.041  15.741  2.3519 -0.6680  1.5093
 8476TIP3   OH246842   4.337   5.163  12.892  0.6520 -0.7051  0.3505
 8476TIP3    H146843   4.362   5.210  12.813  0.4303  0.2608  0.8478
 8476TIP3    H246844   4.323   5.073  12.862  1.1037 -0.4749 -0.6028
 8477TIP3   OH246845   6.653   2.335  14.587  0.0838 -0.6695  0.1794
 8477TIP3    H146846   6.689   2.399  14.648 -0.3416  1.2906 -1.5386
 8477TIP3    H246847   6.558   2.350  14.589  0.0035 -1.0467 -0.4725
 8478TIP3   OH246848   5.519   5.264  14.016  0.3471  0.2458 -0.2827
 8478TIP3    H146849   5.502   5.181  14.061 -2.7643 -0.6164 -2.6763
 8478TIP3    H246850   5.586   5.243  13.951  0.6173 -0.0167  0.0794
 8479TIP3   OH246851   0.358   3.189   2.257 -0.0726  0.0879  0.3896
 8479TIP3    H146852   0.353   3.279   2.223 -2.7191  1.5911  4.0175
 8479TIP3    H246853   0.405   3.197   2.340 -1.1288 -1.6934  1.2222
 8480TIP3   OH246854   5.691   5.876   0.435 -0.1346  0.2367  0.0438
 8480TIP3    H146855   5.763   5.915   0.485 -0.7054  0.3676  0.7942
 8480TIP3    H246856   5.684   5.930   0.356  0.7792  0.0317 -0.1854
 8481TIP3   OH246857   2.399   5.703   5.199  0.3767  0.8366  0.2699
 8481TIP3    H146858   2.399   5.671   5.289  0.5583  1.8233  0.6375
 8481TIP3    H246859   2.426   5.628   5.146 -1.1834 -0.1777  0.8679
 8482TIP3   OH246860   5.692   5.483  13.592 -0.0280  0.3718  0.0760
 8482TIP3    H146861   5.639   5.416  13.636  0.4917 -0.8146 -1.0331
 8482TIP3    H246862   5.687   5.460  13.499  2.7335 -0.0519 -0.0510
 8483TIP3   OH246863   0.917   5.318  11.067 -0.0461 -0.8821 -0.7049
 8483TIP3    H146864   0.976   5.390  11.047 -1.2720  0.8808  1.5609
 8483TIP3    H246865   0.879   5.293  10.983  2.2180 -0.5650 -1.8761
 8484TIP3   OH246866   5.945   3.211   1.757 -0.3353 -0.2431  0.4398
 8484TIP3    H146867   5.955   3.302   1.732  0.3983  0.0682  1.7950
 8484TIP3    H246868   6.013   3.165   1.707  0.5671  0.2436  1.1974
 8485TIP3   OH246869   2.036   2.341   1.644 -0.7726  0.4720 -0.0833
 8485TIP3    H146870   2.016   2.252   1.615 -1.6821  1.3528 -2.4560
 8485TIP3    H246871   2.012   2.342   1.737 -1.5939 -1.5014 -0.2183
 8486TIP3   OH246872   0.935   2.874   5.398 -0.6103 -0.0217  0.0018
 8486TIP3    H146873   0.909   2.942   5.335  0.3144  1.2878  0.9887
 8486TIP3    H246874   0.879   2.799   5.377 -3.0593  1.6702  0.1362
 8487TIP3   OH246875   3.187   1.817   0.453  0.0130  0.4765  0.3330
 8487TIP3    H146876   3.199   1.911   0.450 -1.0712  0.6339 -2.7888
 8487TIP3    H246877   3.094   1.804   0.434  0.1200 -1.2344  0.7962
 8488TIP3   OH246878   1.815   0.186  15.192  0.1995  0.6984 -0.2320
 8488TIP3    H146879   1.822   0.267  15.242 -0.3560  1.2528 -1.0178
 8488TIP3    H246880   1.723   0.183  15.164  0.4890  0.4068 -1.1977
 8489TIP3   OH246881   3.427   6.112   0.623 -0.0105  0.1394 -0.7258
 8489TIP3    H146882   3.375   6.177   0.575 -2.4794 -0.9668  0.2815
 8489TIP3    H246883   3.442   6.151   0.709 -1.4556 -0.5197 -0.1361
 8490TIP3   OH246884   6.098   6.286  12.763  0.6524  0.1337 -0.2245
 8490TIP3    H146885   6.049   6.340  12.825  2.6924  0.1181  1.5425
 8490TIP3    H246886   6.189   6.315  12.774  1.3969 -1.5995 -1.4319
 8491TIP3   OH246887   4.890   1.941  11.407 -0.1979 -0.3490 -0.4798
 8491TIP3    H146888   4.884   2.000  11.333  0.6722  0.7764  0.3197
 8491TIP3    H246889   4.925   1.994  11.479  1.8770 -2.1011 -0.0654
 8492TIP3   OH246890   4.153   6.126   5.741  0.4132 -0.4342  0.3875
 8492TIP3    H146891   4.116   6.136   5.653  2.1648 -0.0664 -0.3686
 8492TIP3    H246892   4.090   6.168   5.799 -0.9118 -0.9181 -0.6492
 8493TIP3   OH246893   0.953   6.159   3.986 -0.3509  0.5365  0.2131
 8493TIP3    H146894   1.032   6.115   4.019  0.1658  1.9776  1.0332
 8493TIP3    H246895   0.954   6.142   3.892 -1.2799 -2.8121  0.6999
 8494TIP3   OH246896   5.996   1.705   6.153  0.0020  0.0587  0.5171
 8494TIP3    H146897   5.977   1.649   6.228 -1.3307  1.4938  1.3019
 8494TIP3    H246898   5.911   1.722   6.113  0.6468 -0.3249 -1.0883
 8495TIP3   OH246899   0.980   3.573  11.922  0.2825 -0.0245  0.1313
 8495TIP3    H146900   0.941   3.579  12.009  1.4524  0.6945  0.6286
 8495TIP3    H246901   1.051   3.637  11.923 -0.5156  0.9629 -1.8027
 8496TIP3   OH246902   5.193   3.728  16.333  0.1060 -0.3175  0.6909
 8496TIP3    H146903   5.203   3.736  16.427 -2.8602  1.4428  0.9840
 8496TIP3    H246904   5.251   3.796  16.297  0.3249 -0.1695  1.3062
 8497TIP3   OH246905   5.117   4.816  16.613  0.1857  0.8198 -0.2265
 8497TIP3    H146906   5.101   4.777  16.699 -0.6213 -2.3563 -1.6693
 8497TIP3    H246907   5.032   4.850  16.586  0.2918  1.2204 -0.0669
 8498TIP3   OH246908   2.878   5.504  11.224  0.4359  0.3750  0.2442
 8498TIP3    H146909   2.908   5.415  11.202 -0.5277 -0.2599  1.3712
 8498TIP3    H246910   2.949   5.561  11.195  1.8480 -0.9069  1.0358
 8499TIP3   OH246911   2.921   1.689  11.961 -0.5823 -0.1835  0.4464
 8499TIP3    H146912   2.849   1.709  11.902  0.9159 -1.9660 -2.1756
 8499TIP3    H246913   2.948   1.600  11.937  2.6509  0.5080  1.0875
 8500TIP3   OH246914   1.335   0.434   6.125 -0.6790  0.2435  0.1908
 8500TIP3    H146915   1.424   0.414   6.096 -0.8172 -0.3582  0.1600
 8500TIP3    H246916   1.329   0.529   6.121 -0.2865  0.2471 -0.5518
 8501TIP3   OH246917   1.589   5.575  14.140 -0.2977 -0.0140  0.8576
 8501TIP3    H146918   1.594   5.512  14.213  0.3343 -0.1720  0.6904
 8501TIP3    H246919   1.574   5.659  14.182 -2.3111 -0.4055  1.0196
 8502TIP3   OH246920   0.346   6.457   2.239 -0.1287 -0.2307  0.7437
 8502TIP3    H146921   0.394   6.527   2.285 -0.0322  0.1012  0.1583
 8502TIP3    H246922   0.395   6.378   2.258 -0.2217 -0.1353  1.3965
 8503TIP3   OH246923   0.221   0.656   3.258  0.3820  0.1460 -0.2432
 8503TIP3    H146924   0.268   0.664   3.175  0.0522  0.8233 -0.3743
 8503TIP3    H246925   0.224   0.744   3.295  1.2014 -0.3165  0.8470
 8504TIP3   OH246926   5.291   1.947  13.698 -0.4842  0.1256 -0.9270
 8504TIP3    H146927   5.386   1.943  13.708 -0.2987 -0.3740 -2.5701
 8504TIP3    H246928   5.268   2.038  13.719  0.2985  0.1551 -0.1767
 8505TIP3   OH246929   3.519   4.181   3.885 -0.1460  0.0802  0.0537
 8505TIP3    H146930   3.557   4.170   3.798 -0.0787 -0.8000  0.1837
 8505TIP3    H246931   3.455   4.110   3.892 -0.2717  0.2483  0.6623
 8506TIP3   OH246932   2.590   1.092   3.670  0.4334  0.1103 -0.4543
 8506TIP3    H146933   2.635   1.133   3.744  0.2414 -0.8996  0.2312
 8506TIP3    H246934   2.502   1.074   3.702  0.5218 -0.8648 -0.7268
 8507TIP3   OH246935   3.579   5.820  11.814  0.6824  0.5316  0.4199
 8507TIP3    H146936   3.516   5.793  11.881  0.9620 -0.9126  0.1495
 8507TIP3    H246937   3.644   5.871  11.862 -0.3719  1.5456  0.8029
 8508TIP3   OH246938   4.583   1.729   5.790  0.2162 -0.3547  0.2830
 8508TIP3    H146939   4.547   1.642   5.775 -2.7837  0.8308 -0.2411
 8508TIP3    H246940   4.561   1.748   5.881 -0.6458  0.4448 -0.0766
 8509TIP3   OH246941   5.490   4.811   6.025  0.4152 -0.0918 -0.5378
 8509TIP3    H146942   5.453   4.851   6.104  0.8661  0.9267 -0.8356
 8509TIP3    H246943   5.443   4.853   5.953 -1.4286 -2.4110 -0.8248
 8510TIP3   OH246944   3.181   0.107   3.138  0.1435  0.6918 -0.1836
 8510TIP3    H146945   3.210   0.177   3.079  0.5651  0.6447 -0.0369
 8510TIP3    H246946   3.255   0.095   3.198 -0.4809  1.0864  0.6773
 8511TIP3   OH246947   0.449   5.441  12.668 -0.0370  0.4032 -0.0483
 8511TIP3    H146948   0.506   5.507  12.628  1.0161 -0.3020  0.2390
 8511TIP3    H246949   0.509   5.372  12.696 -1.0593 -0.4221  0.1615
 8512TIP3   OH246950   5.097   2.953  15.365 -0.2503  0.8671  0.5057
 8512TIP3    H146951   5.169   2.890  15.370  1.4078  2.5588 -0.7912
 8512TIP3    H246952   5.115   3.016  15.435 -1.3705  0.4433  1.1926
 8513TIP3   OH246953   1.743   1.325  12.697  0.2609 -0.7790  0.0351
 8513TIP3    H146954   1.676   1.258  12.681  0.3009 -0.9162  0.4256
 8513TIP3    H246955   1.708   1.377  12.770 -0.3663  0.4371 -1.0949
 8514TIP3   OH246956   5.183   4.786  16.352 -0.9589 -0.3372 -0.7177
 8514TIP3    H146957   5.159   4.781  16.445 -0.5119 -1.0748 -0.6326
 8514TIP3    H246958   5.232   4.705  16.336  1.5326  1.0888 -0.8617
 8515TIP3   OH246959   4.368   2.446   2.226 -0.5440  0.2523  0.1435
 8515TIP3    H146960   4.366   2.469   2.319 -0.0862 -0.4429  0.3308
 8515TIP3    H246961   4.461   2.440   2.204 -0.6398 -0.6818 -0.0739
 8516TIP3   OH246962   1.281   5.648  15.859  0.2764 -0.7364  0.1790
 8516TIP3    H146963   1.361   5.605  15.886 -0.8053 -1.4712  2.4863
 8516TIP3    H246964   1.216   5.578  15.852 -0.7341  0.1008  0.7796
 8517TIP3   OH246965   3.297   0.799  13.369  0.4098  1.1279 -0.6931
 8517TIP3    H146966   3.382   0.802  13.415  0.4801 -0.2929 -0.6835
 8517TIP3    H246967   3.303   0.721  13.314 -0.9547  0.9233 -0.5688
 8518TIP3   OH246968   2.999   6.050  12.586  0.3091 -0.7386 -0.2922
 8518TIP3    H146969   3.001   6.108  12.663 -0.5130  0.5738 -1.2267
 8518TIP3    H246970   3.049   5.973  12.614  0.6578  0.0095  1.3092
 8519TIP3   OH246971   3.038   2.489  13.305  0.4467  0.1439 -0.4789
 8519TIP3    H146972   3.012   2.398  13.318  0.8666 -0.5856 -3.7839
 8519TIP3    H246973   3.038   2.527  13.392 -1.5871 -2.5032  0.8155
 8520TIP3   OH246974   4.406   6.765   5.374 -0.2510 -0.0695 -0.2376
 8520TIP3    H146975   4.394   6.858   5.391  0.7261  0.3224 -1.5312
 8520TIP3    H246976   4.342   6.744   5.307 -0.1280 -0.2150 -0.3116
 8521TIP3   OH246977   3.027   5.397   2.683 -0.4697 -0.1946  0.0171
 8521TIP3    H146978   2.936   5.368   2.678 -0.6595  0.6023 -2.1902
 8521TIP3    H246979   3.077   5.324   2.646 -0.3869  0.0585 -0.3687
 8522TIP3   OH246980   4.883   5.292  11.251  0.3007  0.6133  0.2759
 8522TIP3    H146981   4.972   5.323  11.267  0.7142  0.2443 -1.1493
 8522TIP3    H246982   4.835   5.372  11.226  0.1353  0.8676  1.3810
 8523TIP3   OH246983   1.207   1.946   0.715 -0.1805 -0.5128 -0.5969
 8523TIP3    H146984   1.205   1.873   0.776  1.1868  0.1454  0.2820
 8523TIP3    H246985   1.293   1.985   0.727 -1.2818  1.9815 -0.1560
 8524TIP3   OH246986   2.558   0.033   5.412  0.0466 -0.4285 -0.5358
 8524TIP3    H146987   2.519   0.097   5.353 -1.1859 -0.9287 -0.2842
 8524TIP3    H246988   2.569   0.079   5.495 -0.5146 -0.4317 -0.4562
 8525TIP3   OH246989   4.196   3.526   1.709 -0.0459  0.3990  0.6092
 8525TIP3    H146990   4.276   3.556   1.666 -0.1293  1.0975  0.9235
 8525TIP3    H246991   4.223   3.451   1.761 -0.1508 -1.1919 -1.5162
 8526TIP3   OH246992   0.158   6.734  12.643  0.3476 -0.2157 -0.0982
 8526TIP3    H146993   0.064   6.731  12.656  0.4544  0.2628  0.8774
 8526TIP3    H246994   0.195   6.693  12.720  0.9554  0.4400 -0.0258
 8527TIP3   OH246995   1.956   4.355   2.826  0.0455  0.3306 -0.0176
 8527TIP3    H146996   2.014   4.393   2.892 -0.6943  1.0502  0.2417
 8527TIP3    H246997   1.982   4.396   2.744  0.9579 -0.5532 -0.1796
 8528TIP3   OH246998   1.075   1.595   3.022  0.1997 -0.6327 -0.5211
 8528TIP3    H146999   1.147   1.532   3.023 -0.5136 -1.4548  0.2108
 8528TIP3    H247000   1.016   1.566   3.091 -0.4072  0.5461 -0.5167
 8529TIP3   OH247001   6.213   5.512   0.716  0.2642 -0.0830  0.4591
 8529TIP3    H147002   6.307   5.499   0.703  0.5391  0.1996  2.0047
 8529TIP3    H247003   6.202   5.518   0.811 -1.3384 -0.2408  0.3115
 8530TIP3   OH247004   6.654   0.177   0.507 -0.0657 -0.2155 -0.1715
 8530TIP3    H147005   6.710   0.249   0.533  1.8893 -1.2312 -1.3655
 8530TIP3    H247006   6.657   0.116   0.581  1.3811 -0.7841 -0.6669
 8531TIP3   OH247007   1.705   4.535  14.621  0.0981  0.2613 -0.4562
 8531TIP3    H147008   1.670   4.577  14.542  0.8816 -0.7561 -1.3768
 8531TIP3    H247009   1.676   4.444  14.614  0.5947  0.0465  0.1903
 8532TIP3   OH247010   2.087   1.560   1.868 -0.0985  0.3344 -0.6206
 8532TIP3    H147011   2.139   1.554   1.948 -2.3408  0.5756  0.9759
 8532TIP3    H247012   2.048   1.474   1.858 -3.0685  1.3418  1.0234
 8533TIP3   OH247013   0.449   4.280  13.127 -0.1158 -0.1769 -0.0478
 8533TIP3    H147014   0.364   4.323  13.117 -0.6753 -0.9423  1.2472
 8533TIP3    H247015   0.428   4.190  13.150  1.0360 -0.1770  1.1129
 8534TIP3   OH247016   2.781   2.236  15.146 -0.5441 -0.5583  0.1593
 8534TIP3    H147017   2.796   2.210  15.055  1.2969  1.3557 -0.1645
 8534TIP3    H247018   2.764   2.330  15.141  2.0258  0.0920  1.9379
 8535TIP3   OH247019   4.313   6.328  13.440 -0.0213  0.4180 -0.1292
 8535TIP3    H147020   4.382   6.341  13.375  0.4399 -1.0477  0.0248
 8535TIP3    H247021   4.232   6.343  13.392  0.3599  1.5825 -0.4572
 8536TIP3   OH247022   3.741   3.999   6.121 -0.7088  0.5150  0.3721
 8536TIP3    H147023   3.722   3.999   6.215 -1.6540  3.4373  0.3108
 8536TIP3    H247024   3.828   4.039   6.114 -0.7740  0.5939 -0.0006
 8537TIP3   OH247025   3.663   4.317   2.070  0.0184 -0.1405 -0.2802
 8537TIP3    H147026   3.695   4.406   2.081  0.4177  0.0525 -2.5395
 8537TIP3    H247027   3.598   4.306   2.139 -0.5526  2.1521 -0.3843
 8538TIP3   OH247028   2.579   0.589  11.776 -0.4061 -0.0422  0.4585
 8538TIP3    H147029   2.572   0.500  11.810 -1.2312 -0.1400  0.0799
 8538TIP3    H247030   2.584   0.645  11.854  1.4883 -0.4903  0.6900
 8539TIP3   OH247031   4.870   4.449  13.923 -0.0160  0.5158  0.0044
 8539TIP3    H147032   4.948   4.490  13.887  0.1938  0.1110 -0.0020
 8539TIP3    H247033   4.797   4.490  13.875  0.2767 -0.3979 -1.2728
 8540TIP3   OH247034   4.801   5.541   3.167 -0.0939  0.6764 -0.7486
 8540TIP3    H147035   4.803   5.529   3.262  2.4879  1.9974 -0.5592
 8540TIP3    H247036   4.890   5.524   3.138 -0.2683  2.4769 -2.6294
 8541TIP3   OH247037   2.939   4.733  14.092  0.2930  0.4299  0.3072
 8541TIP3    H147038   2.846   4.749  14.113  0.4587  0.5051  1.0184
 8541TIP3    H247039   2.986   4.773  14.165  0.8694 -0.0195  0.1783
 8542TIP3   OH247040   3.650   3.494  15.763 -0.8102  0.2962 -0.0972
 8542TIP3    H147041   3.582   3.552  15.796 -1.5159  1.7131 -3.5425
 8542TIP3    H247042   3.722   3.552  15.741  0.0304 -0.6869  0.0080
 8543TIP3   OH247043   2.716   0.917   0.570  0.2566  0.0885 -0.4255
 8543TIP3    H147044   2.755   0.919   0.483  1.7317 -1.6716  0.1406
 8543TIP3    H247045   2.790   0.929   0.629 -0.4707 -0.4821  0.6234
 8544TIP3   OH247046   1.239   4.838   5.418  0.1116  0.1887 -0.5605
 8544TIP3    H147047   1.207   4.924   5.390 -0.5641 -0.1916 -0.9803
 8544TIP3    H247048   1.318   4.857   5.468 -0.2975  1.0906 -0.2406
 8545TIP3   OH247049   4.284   3.331  13.329 -0.4604  0.6618 -0.1988
 8545TIP3    H147050   4.221   3.259  13.339 -1.3738  1.3654 -0.7362
 8545TIP3    H247051   4.356   3.307  13.388 -1.5588  0.1982  1.0289
 8546TIP3   OH247052   3.800   1.054   4.151  0.0942 -0.3340  0.2633
 8546TIP3    H147053   3.748   0.996   4.096 -0.4435 -1.0516  1.4956
 8546TIP3    H247054   3.754   1.138   4.148 -0.4072 -0.6046  0.3009
 8547TIP3   OH247055   1.902   2.846  13.987 -0.0013 -0.5869  0.2591
 8547TIP3    H147056   1.879   2.877  13.899  0.5356 -0.2998  0.2202
 8547TIP3    H247057   1.824   2.866  14.039 -0.0058  0.0202  0.0374
 8548TIP3   OH247058   5.991   4.923  16.804  0.0115  0.0458  0.3321
 8548TIP3    H147059   5.923   4.873  16.849 -1.8478  1.0721 -1.1740
 8548TIP3    H247060   5.970   5.014  16.823 -1.0134  0.5441 -2.6618
 8549TIP3   OH247061   5.087   1.819  15.812  0.3260  0.4514 -0.5522
 8549TIP3    H147062   5.168   1.855  15.848  2.1178 -0.6843 -3.1292
 8549TIP3    H247063   5.103   1.725  15.807 -1.3886  0.1386 -0.6294
 8550TIP3   OH247064   3.842   5.190   1.550 -0.0307 -0.8416  0.3157
 8550TIP3    H147065   3.840   5.150   1.464  1.2338 -2.3794  0.9538
 8550TIP3    H247066   3.935   5.207   1.567 -0.4247  1.3844  0.5497
 8551TIP3   OH247067   3.732   3.291  17.274  0.4485 -0.5955 -0.4608
 8551TIP3    H147068   3.712   3.363  17.334  2.6366  0.7851 -1.3073
 8551TIP3    H247069   3.654   3.284  17.219  0.2110  1.2014 -0.4163
 8552TIP3   OH247070   5.634   6.097  15.345  0.5462  0.1041  0.5793
 8552TIP3    H147071   5.549   6.080  15.386  0.4317 -0.6782  0.0365
 8552TIP3    H247072   5.653   6.188  15.366 -0.4558  0.3050  0.6452
 8553TIP3   OH247073   5.286   5.517  12.822  0.2439 -0.6168 -0.1635
 8553TIP3    H147074   5.352   5.584  12.809 -0.8519  0.6018  0.3524
 8553TIP3    H247075   5.299   5.456  12.749  0.7606  0.5701 -1.0901
 8554TIP3   OH247076   5.370   3.588   0.975  0.8586 -0.3760  0.5185
 8554TIP3    H147077   5.390   3.627   1.060  0.9677  0.1829  0.2422
 8554TIP3    H247078   5.452   3.547   0.947  0.3575 -2.0807  1.4647
 8555TIP3   OH247079   0.890   3.444   5.278 -0.1303 -0.1191  0.1120
 8555TIP3    H147080   0.945   3.387   5.332 -0.7401 -0.9931 -0.1504
 8555TIP3    H247081   0.944   3.461   5.200 -0.2134 -0.9791 -0.1514
 8556TIP3   OH247082   2.752   0.237   2.220  0.0666 -0.3999 -0.0698
 8556TIP3    H147083   2.754   0.141   2.226 -1.1815 -0.4189  0.2130
 8556TIP3    H247084   2.783   0.267   2.306 -0.1717 -0.5637  0.0766
 8557TIP3   OH247085   3.889   4.248   0.799  0.9233 -0.0784  0.1295
 8557TIP3    H147086   3.975   4.253   0.841  1.7854  0.1306 -1.5792
 8557TIP3    H247087   3.827   4.262   0.871  2.2882 -0.4833  1.4457
 8558TIP3   OH247088   1.659   4.279  14.585  0.3053  0.3024 -0.5019
 8558TIP3    H147089   1.719   4.206  14.603  0.0217  0.1657 -0.1046
 8558TIP3    H247090   1.578   4.254  14.629 -0.1402  0.3425 -1.2907
 8559TIP3   OH247091   0.992   5.664   3.464 -0.0820 -0.1432 -0.7775
 8559TIP3    H147092   0.968   5.599   3.531  2.1649 -1.2704 -0.9710
 8559TIP3    H247093   1.037   5.733   3.512  1.2655 -0.8107 -1.0048
 8560TIP3   OH247094   0.221   1.781   5.282 -0.4627  0.1466  0.7518
 8560TIP3    H147095   0.272   1.862   5.289  1.0167 -0.6595 -0.2925
 8560TIP3    H247096   0.146   1.805   5.228 -0.1833  0.8879  0.6813
 8561TIP3   OH247097   1.002   1.015   6.135  1.1720 -0.5621  0.4524
 8561TIP3    H147098   0.977   1.036   6.224 -1.6439 -2.4641  0.2241
 8561TIP3    H247099   1.089   0.977   6.143  1.1020 -0.4192  2.3304
 8562TIP3   OH247100   2.130   1.884   0.947 -0.4482  0.3015  0.0914
 8562TIP3    H147101   2.042   1.850   0.959  0.1489 -1.8290 -1.0605
 8562TIP3    H247102   2.129   1.924   0.860 -0.5064  1.1138  0.4576
 8563TIP3   OH247103   4.993   6.513   2.195 -0.1813 -0.2754 -0.2451
 8563TIP3    H147104   5.061   6.543   2.255 -0.3575 -0.2459 -0.0600
 8563TIP3    H247105   4.912   6.550   2.230 -0.1612  0.5961 -1.0609
 8564TIP3   OH247106   4.185   0.728  16.170  0.0878 -0.5009 -0.1829
 8564TIP3    H147107   4.187   0.681  16.086 -1.5967  0.4101 -0.7653
 8564TIP3    H247108   4.223   0.666  16.232  1.0255 -1.3463 -1.5348
 8565TIP3   OH247109   1.084   5.481   2.938  0.1735  0.5822  0.1737
 8565TIP3    H147110   1.174   5.450   2.929 -0.1889 -0.3754 -0.2497
 8565TIP3    H247111   1.082   5.523   3.025  0.8504  0.0014  0.4782
 8566TIP3   OH247112   0.987   3.878   2.595 -0.2239 -0.4048  0.4345
 8566TIP3    H147113   0.897   3.879   2.562 -0.0400 -0.0099 -0.0629
 8566TIP3    H247114   0.979   3.899   2.688 -0.5892  0.3328  0.2424
 8567TIP3   OH247115   4.675   3.623  15.004 -0.1083  0.3830  0.3045
 8567TIP3    H147116   4.755   3.615  15.056 -0.5643 -0.2192  0.9361
 8567TIP3    H247117   4.696   3.581  14.920 -0.1939 -1.0982  0.9892
 8568TIP3   OH247118   6.049   1.348   4.292 -0.0618 -0.0148  0.1459
 8568TIP3    H147119   6.110   1.277   4.269 -0.0554  0.1609 -0.4118
 8568TIP3    H247120   6.095   1.398   4.359 -0.6271 -1.3178  1.5454
 8569TIP3   OH247121   5.117   5.022   0.941  0.1608 -0.1915  0.0435
 8569TIP3    H147122   5.197   5.000   0.894  1.9082  1.4435  2.0366
 8569TIP3    H247123   5.066   5.074   0.879  1.5260  0.3345 -0.6819
 8570TIP3   OH247124   4.168   6.129   3.084  0.5503 -0.0049  0.5018
 8570TIP3    H147125   4.181   6.076   3.163  0.2792  0.1612  0.6596
 8570TIP3    H247126   4.134   6.068   3.019  2.4200 -0.5435 -0.0344
 8571TIP3   OH247127   2.076   4.865  10.759 -0.0738  0.3707 -0.7375
 8571TIP3    H147128   1.990   4.839  10.791  0.8627 -0.0955  1.6165
 8571TIP3    H247129   2.073   4.850  10.665 -1.6659 -2.3139 -0.3412
 8572TIP3   OH247130   3.330   0.612  17.015 -0.7122 -0.4047  0.0706
 8572TIP3    H147131   3.321   0.706  17.031 -1.0348 -0.2704 -0.8833
 8572TIP3    H247132   3.424   0.598  17.005 -0.6401 -0.2370  0.5085
 8573TIP3   OH247133   6.653   1.420  15.030 -0.4833 -0.0834  0.0110
 8573TIP3    H147134   6.650   1.371  14.948  0.8079  0.4722 -0.3990
 8573TIP3    H247135   6.651   1.354  15.098  1.0831 -0.7334 -0.5263
 8574TIP3   OH247136   0.558   2.369   3.899 -0.0417  0.2993 -0.2054
 8574TIP3    H147137   0.624   2.408   3.842 -0.2238 -0.8674 -1.2546
 8574TIP3    H247138   0.495   2.329   3.839  0.6362 -2.4227  0.7325
 8575TIP3   OH247139   2.485   3.850  15.796  0.4416 -0.3088  0.0215
 8575TIP3    H147140   2.392   3.853  15.772  0.8208 -1.5771 -1.8074
 8575TIP3    H247141   2.490   3.785  15.866 -0.0443 -0.2701  0.0961
 8576TIP3   OH247142   1.723   0.192   0.732 -0.0838  0.0475 -0.1161
 8576TIP3    H147143   1.783   0.265   0.717  0.2731  0.1122  1.4440
 8576TIP3    H247144   1.768   0.138   0.796  0.5752 -2.6699 -2.6444
 8577TIP3   OH247145   3.466   4.674  15.089 -0.4136  0.1915 -0.1641
 8577TIP3    H147146   3.516   4.751  15.119 -0.8994  0.4490 -0.0069
 8577TIP3    H247147   3.385   4.677  15.141  0.3010 -1.4064  1.1332
 8578TIP3   OH247148   5.353   5.693  13.765 -0.2193  0.7655 -0.1889
 8578TIP3    H147149   5.400   5.760  13.813  0.3113 -0.8704  1.6787
 8578TIP3    H247150   5.359   5.614  13.819 -0.7763 -0.8363 -2.2953
 8579TIP3   OH247151   4.410   5.483  10.747  0.3282 -0.0947 -0.6931
 8579TIP3    H147152   4.460   5.559  10.721  1.7970 -1.6225 -2.6242
 8579TIP3    H247153   4.326   5.492  10.702 -0.0542  0.9927  0.1823
 8580TIP3   OH247154   5.427   1.790   0.722  0.1155  0.3303  0.1908
 8580TIP3    H147155   5.447   1.854   0.654  1.9993  1.1775  1.4426
 8580TIP3    H247156   5.380   1.721   0.677  0.5338  1.2691 -1.7960
 8581TIP3   OH247157   0.993   2.559  14.985 -0.1453  0.4113 -0.0803
 8581TIP3    H147158   1.042   2.636  14.957  0.2699 -0.3274 -1.4370
 8581TIP3    H247159   0.903   2.577  14.960 -0.1274  0.6349  0.0130
 8582TIP3   OH247160   4.084   3.057  12.928  0.5941  0.1335 -0.3154
 8582TIP3    H147161   4.052   3.124  12.989 -1.3882  1.1739 -2.2925
 8582TIP3    H247162   4.114   3.108  12.852  2.1779 -1.1285 -0.5651
 8583TIP3   OH247163   4.622   6.646  12.265 -0.0756 -0.2932 -0.4515
 8583TIP3    H147164   4.656   6.718  12.318  0.5890 -0.7770 -0.2083
 8583TIP3    H247165   4.573   6.592  12.327 -2.0928  0.8552 -0.9528
 8584TIP3   OH247166   4.828   5.123   6.125 -0.4858  0.8208  0.0105
 8584TIP3    H147167   4.740   5.158   6.141 -0.9346 -0.4186  0.4036
 8584TIP3    H247168   4.866   5.115   6.213 -0.4905  0.1319 -0.0415
 8585TIP3   OH247169   5.071   0.904   5.089 -0.2023  0.4616  0.8304
 8585TIP3    H147170   5.022   0.977   5.052 -0.4643  0.3877  1.0271
 8585TIP3    H247171   5.115   0.941   5.166  0.1411  0.5537  0.5952
 8586TIP3   OH247172   3.250   1.584  11.969 -0.1887  0.4549 -0.2784
 8586TIP3    H147173   3.340   1.611  11.989 -0.2223  1.4964 -1.4168
 8586TIP3    H247174   3.247   1.580  11.874 -1.5212  1.0637 -0.2845
 8587TIP3   OH247175   6.567   2.220  13.603  0.3623  0.0497  0.0384
 8587TIP3    H147176   6.533   2.143  13.649  0.7486 -0.1565 -0.0235
 8587TIP3    H247177   6.635   2.255  13.660  1.1470 -0.4625 -0.5747
 8588TIP3   OH247178   5.658   3.257   2.186  0.0764 -0.5936  0.2758
 8588TIP3    H147179   5.690   3.229   2.100  0.2170  0.1880  0.0678
 8588TIP3    H247180   5.565   3.277   2.171  0.4091  0.7843  0.0016
 8589TIP3   OH247181   6.588   5.496   2.474  0.1053  0.2443 -0.0344
 8589TIP3    H147182   6.553   5.561   2.536 -0.6532 -0.9069  0.7925
 8589TIP3    H247183   6.683   5.511   2.475 -0.1521  2.2274 -0.9260
 8590TIP3   OH247184   0.966   5.457  16.213 -0.5822 -0.3613 -0.0825
 8590TIP3    H147185   0.920   5.478  16.294  0.3064 -2.4204  1.0221
 8590TIP3    H247186   1.038   5.521  16.210 -0.5511 -0.3399  0.8172
 8591TIP3   OH247187   2.538   4.983  15.785  0.4880 -0.8579  0.2803
 8591TIP3    H147188   2.447   5.002  15.805  0.5537  0.1950 -0.3380
 8591TIP3    H247189   2.548   4.889  15.801 -0.7639 -1.0288  0.1105
 8592TIP3   OH247190   6.193   0.964   3.584 -0.0301  0.4247  0.4770
 8592TIP3    H147191   6.239   0.996   3.662 -1.1461  0.3036  1.2119
 8592TIP3    H247192   6.106   0.940   3.616  0.1806 -1.7122 -0.3602
 8593TIP3   OH247193   0.459   2.996  12.324  0.4392 -0.0894  0.1422
 8593TIP3    H147194   0.402   2.920  12.322  0.8646 -0.5287  2.4282
 8593TIP3    H247195   0.497   3.000  12.236 -1.4280 -1.0448 -0.7595
 8594TIP3   OH247196   2.137   4.583   5.134 -0.2379 -0.1054  0.1843
 8594TIP3    H147197   2.104   4.645   5.069  0.2769 -0.3074 -0.2763
 8594TIP3    H247198   2.232   4.597   5.134  0.0886 -2.0213 -1.1222
 8595TIP3   OH247199   5.845   3.824   4.843 -0.4411 -0.0336 -0.3228
 8595TIP3    H147200   5.833   3.846   4.936 -0.4063 -2.6798  0.4092
 8595TIP3    H247201   5.760   3.790   4.816 -0.7938  1.7949 -1.6550
 8596TIP3   OH247202   2.267   2.666   4.398  0.1224 -0.2518  0.2129
 8596TIP3    H147203   2.329   2.664   4.471  0.5265 -0.7453 -0.1289
 8596TIP3    H247204   2.181   2.657   4.438  0.2988  0.0716  0.6689
 8597TIP3   OH247205   0.233   3.438  16.515  0.1913  0.7130  0.4119
 8597TIP3    H147206   0.273   3.483  16.440  2.0186 -1.7237 -0.2007
 8597TIP3    H247207   0.277   3.475  16.591  2.5861 -0.7627 -0.1527
 8598TIP3   OH247208   2.621   0.013  10.785  0.0790 -0.1999  0.7478
 8598TIP3    H147209   2.558   0.069  10.741  1.1464  0.1461 -0.3936
 8598TIP3    H247210   2.568  -0.041  10.844 -1.3291 -0.3145 -0.5781
 8599TIP3   OH247211   4.831   4.322   4.074  0.0202 -0.1652 -0.0780
 8599TIP3    H147212   4.919   4.354   4.054  0.4364 -1.9867 -1.4282
 8599TIP3    H247213   4.774   4.364   4.010  0.1407 -0.1579 -0.1798
 8600TIP3   OH247214   4.323   4.387   2.353 -0.0710 -0.4253 -0.0444
 8600TIP3    H147215   4.356   4.358   2.438 -0.7936 -0.2146  0.3161
 8600TIP3    H247216   4.340   4.481   2.352  2.9636 -0.8799 -1.5248
 8601TIP3   OH247217   5.933   3.326   1.067 -0.2878  0.3103  0.2499
 8601TIP3    H147218   5.983   3.321   1.148 -4.3415 -0.9231  3.0075
 8601TIP3    H247219   5.949   3.242   1.024  0.2479  0.0704  0.8985
 8602TIP3   OH247220   6.057   3.945   2.261 -0.0282  0.5050 -0.2319
 8602TIP3    H147221   6.134   3.892   2.238 -0.4858  0.1621 -1.0281
 8602TIP3    H247222   6.000   3.938   2.184 -0.5362  1.3479  0.0615
 8603TIP3   OH247223   5.555   3.043   4.993 -0.1336  0.5866 -0.7503
 8603TIP3    H147224   5.494   3.020   4.923 -0.3013 -1.4623 -0.0091
 8603TIP3    H247225   5.636   2.997   4.970  0.3783  1.3422 -0.4897
 8604TIP3   OH247226   4.320   1.078   0.088 -0.0080  0.2034  0.3090
 8604TIP3    H147227   4.350   1.132   0.014 -0.2260 -1.6100 -1.1724
 8604TIP3    H247228   4.242   1.123   0.119 -1.5264 -0.3589 -2.3663
 8605TIP3   OH247229   4.070   0.725  14.925  0.3608  0.1167 -0.1206
 8605TIP3    H147230   4.131   0.726  14.998  0.8633 -0.4826 -0.5145
 8605TIP3    H247231   3.995   0.676  14.957  1.4529 -2.0412 -0.6338
 8606TIP3   OH247232   2.896   1.397  15.987  0.4663 -0.9021 -0.0501
 8606TIP3    H147233   2.891   1.464  15.918  2.9846 -0.6396 -0.0594
 8606TIP3    H247234   2.812   1.404  16.033  0.2715  1.6043 -0.6365
 8607TIP3   OH247235   0.515   3.417   0.574 -0.0408 -0.4544 -0.3769
 8607TIP3    H147236   0.530   3.324   0.593  0.1057  0.1973  3.3131
 8607TIP3    H247237   0.420   3.428   0.582  0.0782 -0.0542  0.5368
 8608TIP3   OH247238   5.018   4.209  15.697  0.4532 -0.2588 -0.4768
 8608TIP3    H147239   4.946   4.239  15.753  0.8040  2.2884 -1.2632
 8608TIP3    H247240   5.065   4.146  15.751 -0.5172  0.4332  1.2662
 8609TIP3   OH247241   4.686   2.100  15.753 -0.1231 -0.3449  0.0583
 8609TIP3    H147242   4.757   2.043  15.785  1.1629  0.3681 -1.4001
 8609TIP3    H247243   4.730   2.180  15.727 -1.4777  0.0949 -0.9572
 8610TIP3   OH247244   0.980   4.209  14.426  0.7197 -0.5208  0.0267
 8610TIP3    H147245   0.967   4.297  14.463  0.4680 -0.2818 -0.6222
 8610TIP3    H247246   1.050   4.220  14.362 -1.2656 -0.1319 -2.2304
 8611TIP3   OH247247   3.665   1.173  11.515  0.1610  0.4283  0.3287
 8611TIP3    H147248   3.702   1.212  11.436  0.9150 -0.2481  0.3334
 8611TIP3    H247249   3.598   1.235  11.543  0.8738  1.3977 -0.0312
 8612TIP3   OH247250   1.202   6.361  14.833  0.2758 -0.3381 -0.3059
 8612TIP3    H147251   1.117   6.330  14.865  0.7232 -2.9234 -1.3590
 8612TIP3    H247252   1.259   6.357  14.909  0.0560 -1.1262 -0.1712
 8613TIP3   OH247253   5.164   5.664   4.577 -0.4414  0.0684  0.7030
 8613TIP3    H147254   5.143   5.653   4.670 -1.5879  0.5084  0.5144
 8613TIP3    H247255   5.163   5.759   4.564 -0.2545  0.0084  0.2430
 8614TIP3   OH247256   3.152   6.542  14.178  0.2916 -0.3513  0.3457
 8614TIP3    H147257   3.084   6.536  14.245 -0.3457 -0.0794 -0.2542
 8614TIP3    H247258   3.149   6.457  14.134 -1.7000  0.5734 -1.5487
 8615TIP3   OH247259   1.149   5.750   4.593 -0.1581  0.3756 -0.2970
 8615TIP3    H147260   1.190   5.801   4.524 -0.3337 -0.3953 -0.9795
 8615TIP3    H247261   1.103   5.679   4.548  1.0101 -1.0732  0.6678
 8616TIP3   OH247262   3.193   5.442   1.821  0.1278 -0.2167 -0.4115
 8616TIP3    H147263   3.112   5.407   1.785  0.5173 -1.8471  0.2079
 8616TIP3    H247264   3.259   5.425   1.754  0.0458  0.8027 -0.7729
 8617TIP3   OH247265   6.243   2.530  14.948  0.3780  0.4574  0.2711
 8617TIP3    H147266   6.172   2.517  15.010  0.6699 -0.8340  0.3521
 8617TIP3    H247267   6.200   2.527  14.862  0.4986 -1.8498  0.2431
 8618TIP3   OH247268   2.933   6.073  14.031  0.0068  0.3853  0.3435
 8618TIP3    H147269   2.912   6.108  14.117  0.5762 -0.0878  0.6785
 8618TIP3    H247270   3.019   6.033  14.041  1.5480  3.0221 -1.1899
 8619TIP3   OH247271   6.158   0.817   2.182 -0.4599  0.0294 -0.2818
 8619TIP3    H147272   6.063   0.813   2.176 -0.4112  0.9386 -3.2441
 8619TIP3    H247273   6.188   0.735   2.142 -0.0567  1.2678 -2.7049
 8620TIP3   OH247274   1.277   1.866   4.392  0.7198  0.0217 -0.4555
 8620TIP3    H147275   1.255   1.898   4.305  0.0702 -1.3858 -0.8483
 8620TIP3    H247276   1.290   1.772   4.380  2.4029  0.0796  0.6559
 8621TIP3   OH247277   1.871   2.885  13.694 -0.0427  0.2568  0.4576
 8621TIP3    H147278   1.811   2.931  13.636 -0.0690 -0.5335 -0.1444
 8621TIP3    H247279   1.955   2.929  13.681 -0.4520  1.3215  1.2528
 8622TIP3   OH247280   1.107   3.455   2.618  0.1767 -0.3296  0.1428
 8622TIP3    H147281   1.025   3.501   2.634  0.3364  0.6137 -1.4632
 8622TIP3    H247282   1.175   3.513   2.653  0.4035  0.9557 -2.1686
 8623TIP3   OH247283   4.549   5.286   0.172 -0.5707 -0.0470  0.2874
 8623TIP3    H147284   4.546   5.311   0.080 -4.8144  3.0894  0.9829
 8623TIP3    H247285   4.482   5.218   0.181 -1.3244  0.7785  1.2130
 8624TIP3   OH247286   5.742   2.974   2.653 -0.0569  0.0202  0.1180
 8624TIP3    H147287   5.708   3.049   2.605  1.3944  0.4057 -0.3559
 8624TIP3    H247288   5.796   2.927   2.590  2.5328  0.9601  1.4930
 8625TIP3   OH247289   6.023   6.734  14.597  0.7999  0.3824  0.1764
 8625TIP3    H147290   5.951   6.766  14.650  0.4802  0.9962 -0.6058
 8625TIP3    H247291   5.994   6.648  14.566 -0.1459  1.1302 -1.1238
 8626TIP3   OH247292   5.441   4.531   1.327 -0.3891 -0.6406 -0.1082
 8626TIP3    H147293   5.355   4.561   1.295 -0.6556 -0.7497  0.4912
 8626TIP3    H247294   5.428   4.518   1.421  0.8871  1.5862  0.4446
 8627TIP3   OH247295   4.251   2.488  13.669 -0.0356 -0.0367  0.5320
 8627TIP3    H147296   4.173   2.494  13.614  1.1516 -0.2329 -1.3025
 8627TIP3    H247297   4.260   2.394  13.688  1.6624 -0.6295 -2.4190
 8628TIP3   OH247298   2.866   3.520  12.859  0.0453 -0.0143 -0.0383
 8628TIP3    H147299   2.804   3.553  12.794  1.5788  2.1186 -0.5215
 8628TIP3    H247300   2.817   3.521  12.941 -0.7547  1.0062 -0.5071
 8629TIP3   OH247301   4.495   6.076   0.337  0.2436 -0.1336 -0.4595
 8629TIP3    H147302   4.546   5.999   0.360 -0.3047 -0.7641 -1.2962
 8629TIP3    H247303   4.422   6.076   0.400  0.9175  0.4204  0.3386
 8630TIP3   OH247304   6.727   2.908  12.430 -0.1810  0.4969 -0.2550
 8630TIP3    H147305   6.676   2.939  12.506  0.9489  0.9557  0.3409
 8630TIP3    H247306   6.794   2.852  12.468 -1.9920 -2.5845 -1.2766
 8631TIP3   OH247307   1.704   1.241   5.358  0.3045 -0.6904  0.2293
 8631TIP3    H147308   1.761   1.252   5.434  0.2108  0.0516  0.1909
 8631TIP3    H247309   1.762   1.207   5.290  0.3740 -1.4406  0.6388
 8632TIP3   OH247310   3.484   0.856   0.863  0.4361 -0.2165  0.0664
 8632TIP3    H147311   3.461   0.941   0.827 -0.3986 -0.3421  0.2794
 8632TIP3    H247312   3.402   0.807   0.862  0.8537 -0.9280  0.1899
 8633TIP3   OH247313   3.679   3.342  15.079  0.3159 -0.1123  0.2243
 8633TIP3    H147314   3.755   3.377  15.127  0.4681 -0.0314 -0.0702
 8633TIP3    H247315   3.605   3.394  15.110  0.6471  1.0085 -0.7483
 8634TIP3   OH247316   1.890   2.912   4.835 -0.4508  0.8651 -0.2795
 8634TIP3    H147317   1.840   2.942   4.759 -1.7860  0.3765  0.3872
 8634TIP3    H247318   1.894   2.817   4.826  1.1778  0.9372 -0.7904
 8635TIP3   OH247319   4.156   1.717  15.641 -0.2043  0.3962  0.2547
 8635TIP3    H147320   4.088   1.784  15.645  0.8450  1.5524 -0.5057
 8635TIP3    H247321   4.194   1.716  15.729 -0.7598  0.2007  0.4985
 8636TIP3   OH247322   3.654   0.055  13.590  0.2963  0.3058  0.7849
 8636TIP3    H147323   3.577   0.104  13.561  0.5105  1.3949  1.9154
 8636TIP3    H247324   3.726   0.119  13.585  0.9752 -0.4715  0.4626
 8637TIP3   OH247325   5.140   3.952   1.713  0.0658 -0.2028  0.2390
 8637TIP3    H147326   5.058   4.000   1.705  1.1293  1.5889 -0.4468
 8637TIP3    H247327   5.163   3.959   1.806  0.1956  0.6300  0.1506
 8638TIP3   OH247328   3.010   5.396  16.317  0.8575  0.6547  0.3418
 8638TIP3    H147329   3.049   5.439  16.241 -2.3014  1.1000 -1.2401
 8638TIP3    H247330   2.970   5.317  16.281 -2.0564  1.6610  1.0928
 8639TIP3   OH247331   0.065   5.814  15.414 -0.3647 -0.2373  0.0867
 8639TIP3    H147332   0.093   5.726  15.391  0.0980  0.5558 -2.7877
 8639TIP3    H247333  -0.004   5.835  15.351  0.6492  2.0023 -0.3863
 8640TIP3   OH247334   4.856   5.883   1.866  0.5822 -0.0188 -0.3206
 8640TIP3    H147335   4.909   5.857   1.790  1.0541 -1.2235  0.3888
 8640TIP3    H247336   4.908   5.857   1.941  0.0909  1.0999  0.4411
 8641TIP3   OH247337   1.676   3.564   5.642 -0.1160 -0.2663 -0.4658
 8641TIP3    H147338   1.760   3.554   5.597  0.2059 -1.5519  0.3708
 8641TIP3    H247339   1.614   3.517   5.587 -0.6805  2.0124 -1.9437
 8642TIP3   OH247340   5.844   4.203   0.307  0.4158  0.0630 -0.1681
 8642TIP3    H147341   5.753   4.188   0.334  0.1271  0.2879 -0.9985
 8642TIP3    H247342   5.896   4.154   0.371 -0.2543  0.4347  0.6874
 8643TIP3   OH247343   4.775   4.579  15.960  0.5658 -0.0701 -0.4493
 8643TIP3    H147344   4.839   4.636  15.918  1.1125 -1.1895 -1.1741
 8643TIP3    H247345   4.693   4.628  15.958  1.4350  1.5197  0.7774
 8644TIP3   OH247346   3.954   1.430  13.089  0.3940 -0.1214 -0.0032
 8644TIP3    H147347   3.888   1.454  13.024  0.3281  0.0053  0.1093
 8644TIP3    H247348   3.912   1.448  13.173 -0.0502 -1.6312  0.1226
 8645TIP3   OH247349   0.060   3.109   0.129  0.3372  0.3864  0.5589
 8645TIP3    H147350   0.144   3.081   0.094 -0.0201  1.1447 -0.9795
 8645TIP3    H247351   0.055   3.203   0.110 -0.3226  0.6283  1.7739
 8646TIP3   OH247352   6.708   3.724   3.103  0.0271 -0.8646 -0.1663
 8646TIP3    H147353   6.782   3.665   3.085  0.2272 -0.3450 -1.1384
 8646TIP3    H247354   6.686   3.761   3.017 -0.4076  0.1040  0.3512
 8647TIP3   OH247355   5.193   1.658   5.057  0.3051 -0.0036  0.5627
 8647TIP3    H147356   5.259   1.619   4.999 -0.1476 -1.0392  0.7246
 8647TIP3    H247357   5.118   1.673   5.000  0.1229 -0.3312  0.7131
 8648TIP3   OH247358   6.380   2.125   3.752 -0.0724  0.1701  0.3498
 8648TIP3    H147359   6.410   2.193   3.811  1.4657  1.4729 -1.7797
 8648TIP3    H247360   6.430   2.047   3.777 -2.4622 -0.6034  3.3615
 8649TIP3   OH247361   2.476   5.598   4.780  0.3600  0.0134  0.5359
 8649TIP3    H147362   2.472   5.528   4.714  1.4585  1.3612 -1.0575
 8649TIP3    H247363   2.412   5.572   4.846  0.9917 -2.6591  0.2100
 8650TIP3   OH247364   2.829   3.684   2.705  0.2854 -0.3248 -0.0832
 8650TIP3    H147365   2.863   3.621   2.640  1.1175 -0.7823  0.7707
 8650TIP3    H247366   2.734   3.679   2.695  0.3802 -0.7810 -0.8959
 8651TIP3   OH247367   5.663   1.653   5.186 -0.1915  0.0675  0.1166
 8651TIP3    H147368   5.591   1.654   5.248 -0.9701 -1.6642 -0.6905
 8651TIP3    H247369   5.651   1.731   5.132 -0.9372  0.2605  0.5591
 8652TIP3   OH247370   3.168   4.973  14.545  0.0072 -0.0003 -0.2425
 8652TIP3    H147371   3.223   5.052  14.540 -0.2799  0.1377 -1.8997
 8652TIP3    H247372   3.079   5.006  14.552 -0.0942 -0.1721 -0.6875
 8653TIP3   OH247373   5.048   0.939  14.939 -0.2656 -0.5525 -0.1997
 8653TIP3    H147374   4.973   0.971  14.989  0.4933 -0.3476  0.8491
 8653TIP3    H247375   5.092   1.019  14.908 -0.9387 -0.6773 -1.5606
 8654TIP3   OH247376   2.695   4.797   0.141 -0.4904 -0.3628 -0.2500
 8654TIP3    H147377   2.618   4.826   0.090  0.2273  0.6898 -0.7799
 8654TIP3    H247378   2.755   4.761   0.075  0.1847  0.4309 -0.0865
 8655TIP3   OH247379   6.228   6.428  14.079  0.3197  0.1715 -0.0672
 8655TIP3    H147380   6.188   6.452  14.162  1.3449 -2.8044  1.4292
 8655TIP3    H247381   6.311   6.477  14.077  0.2460  0.3270  0.6299
 8656TIP3   OH247382   4.965   2.098   1.866  0.0718  0.5306  0.5655
 8656TIP3    H147383   5.056   2.115   1.843 -0.5104  1.1549 -1.4413
 8656TIP3    H247384   4.935   2.179   1.908 -0.4282  1.6151 -1.7335
 8657TIP3   OH247385   0.198   3.677   4.041  0.4231 -0.0187 -0.4086
 8657TIP3    H147386   0.242   3.697   3.959 -0.5666 -0.3060 -1.0264
 8657TIP3    H247387   0.149   3.597   4.023  0.8883 -0.5814  0.7275
 8658TIP3   OH247388   4.264   2.913   0.625 -0.2211  0.7735 -0.3324
 8658TIP3    H147389   4.323   2.957   0.564  0.4724 -1.2188 -1.2059
 8658TIP3    H247390   4.299   2.933   0.712  2.5801 -1.2886 -0.8440
 8659TIP3   OH247391   1.386   3.973   4.059  0.0179 -0.1702 -0.0833
 8659TIP3    H147392   1.371   3.881   4.038  0.7303 -0.1918 -0.5136
 8659TIP3    H247393   1.480   3.986   4.046 -0.4544  1.2957 -2.7532
 8660TIP3   OH247394   4.592   5.963   5.989 -0.3707  0.8143  0.2176
 8660TIP3    H147395   4.564   5.874   6.010  0.9985 -0.0874 -1.5043
 8660TIP3    H247396   4.633   5.995   6.069 -0.8669 -0.1036  0.8584
 8661TIP3   OH247397   1.622   5.301   4.965  0.3101  0.4488 -0.4544
 8661TIP3    H147398   1.545   5.257   4.929  0.6304 -0.0063 -0.5899
 8661TIP3    H247399   1.691   5.284   4.901  0.8508 -0.2410  0.3013
 8662TIP3   OH247400   4.485   5.348  17.240 -0.6393  0.0593 -0.7334
 8662TIP3    H147401   4.401   5.342  17.195 -0.8580 -1.7405 -0.1355
 8662TIP3    H247402   4.550   5.354  17.169 -1.0431 -1.8789 -1.3336
 8663TIP3   OH247403   5.444   1.033   4.864  0.3661 -0.2626  0.1316
 8663TIP3    H147404   5.444   0.964   4.798  1.3746  0.6642 -0.8932
 8663TIP3    H247405   5.443   0.986   4.948  0.5053 -1.5041 -0.5378
 8664TIP3   OH247406   5.983   1.158  14.120  1.0678  0.0035 -0.8290
 8664TIP3    H147407   5.941   1.237  14.087  1.6064 -0.0704 -1.7517
 8664TIP3    H247408   6.062   1.149  14.066  2.9002  0.7551  1.5479
 8665TIP3   OH247409   3.387   6.697   1.637 -0.7955 -0.0754  0.0666
 8665TIP3    H147410   3.440   6.737   1.706 -3.5743  1.2062  1.6482
 8665TIP3    H247411   3.406   6.603   1.644  0.3502  0.2179  1.3671
 8666TIP3   OH247412   3.586   4.852  17.027 -0.0184 -0.0839  0.1347
 8666TIP3    H147413   3.564   4.874  16.937  2.2776 -0.6996 -0.6483
 8666TIP3    H247414   3.560   4.761  17.036  0.0430 -0.1188 -0.0294
 8667TIP3   OH247415   0.550   5.317  11.607 -0.7709 -0.4952  0.4109
 8667TIP3    H147416   0.531   5.302  11.514 -0.0157 -2.7733  0.5800
 8667TIP3    H247417   0.476   5.278  11.654 -0.4266 -0.6746  0.8081
 8668TIP3   OH247418   0.064   5.536   1.505 -0.2067  0.3028 -0.5757
 8668TIP3    H147419   0.020   5.489   1.576 -0.2424  0.5716 -0.4171
 8668TIP3    H247420   0.155   5.509   1.511  0.0537  1.2777  0.3872
 8669TIP3   OH247421   3.115   0.439   3.949  0.5382  0.7148 -0.6564
 8669TIP3    H147422   3.096   0.530   3.925  1.4058  1.1289  0.1678
 8669TIP3    H247423   3.209   0.429   3.931  0.1498 -0.4771 -2.1535
 8670TIP3   OH247424   6.384   4.114   4.429 -0.1855  0.5668 -0.1269
 8670TIP3    H147425   6.439   4.151   4.359  0.2163  1.1234  0.4682
 8670TIP3    H247426   6.366   4.024   4.401  1.1389  0.3326 -0.2856
 8671TIP3   OH247427   0.815   2.866  17.185  0.1253  0.4034  0.1305
 8671TIP3    H147428   0.824   2.771  17.191 -1.9898  0.2340  1.4049
 8671TIP3    H247429   0.773   2.881  17.100 -0.7921  0.0782  0.5200
 8672TIP3   OH247430   4.375   2.482   0.415 -0.4151 -0.3146  0.5851
 8672TIP3    H147431   4.374   2.561   0.361 -1.7934 -0.4872  0.3220
 8672TIP3    H247432   4.360   2.514   0.504 -0.3710 -0.2308  0.5623
 8673TIP3   OH247433   2.381   0.069   2.888  0.0386  0.2067  0.0962
 8673TIP3    H147434   2.400  -0.005   2.944 -1.3569 -0.0423  0.2664
 8673TIP3    H247435   2.459   0.124   2.894  0.5428 -0.5800  1.0182
 8674TIP3   OH247436   0.856   2.847  11.146  0.5478 -0.1789  0.1077
 8674TIP3    H147437   0.791   2.879  11.082  0.3851  0.1537  0.4346
 8674TIP3    H247438   0.839   2.753  11.151  0.3764 -0.1642 -0.1320
 8675TIP3   OH247439   6.631   6.035   2.335 -0.2866  0.5347 -0.5127
 8675TIP3    H147440   6.662   6.081   2.257  1.9402 -0.2497 -0.1804
 8675TIP3    H247441   6.598   6.104   2.393  0.8529  1.4662 -0.9413
 8676TIP3   OH247442   3.687   6.657   3.239 -0.3259  0.3321 -0.2696
 8676TIP3    H147443   3.719   6.701   3.160  0.0698 -1.0742 -0.9247
 8676TIP3    H247444   3.764   6.651   3.296 -0.1333 -0.3613 -0.5910
 8677TIP3   OH247445   6.255   0.276   1.519  1.0001 -0.4241 -0.7333
 8677TIP3    H147446   6.163   0.251   1.520  0.9873 -0.4080  1.0952
 8677TIP3    H247447   6.265   0.326   1.437 -1.0604  1.1864 -0.0978
 8678TIP3   OH247448   4.559   0.196   2.285 -0.4673  0.1485 -0.3920
 8678TIP3    H147449   4.517   0.278   2.260  0.7957  0.9102 -0.0979
 8678TIP3    H247450   4.564   0.146   2.204  0.8458  1.3420 -1.1041
 8679TIP3   OH247451   1.876   0.053   1.095 -0.1140 -0.7469 -0.1858
 8679TIP3    H147452   1.918   0.048   1.181  3.7588 -2.6959 -1.9507
 8679TIP3    H247453   1.917   0.128   1.052 -0.7202 -0.8252 -0.9261
 8680TIP3   OH247454   4.081   3.838   1.680 -0.0408  0.3748  0.6828
 8680TIP3    H147455   4.067   3.745   1.698  0.7393 -0.1704 -1.3181
 8680TIP3    H247456   4.174   3.853   1.701  0.0699  0.4696  0.1420
 8681TIP3   OH247457   0.816   4.333   6.489 -0.0074 -0.0587 -0.2995
 8681TIP3    H147458   0.897   4.292   6.520 -0.4164 -0.2742  0.5055
 8681TIP3    H247459   0.842   4.420   6.460  0.7528 -0.6135 -1.3460
 8682TIP3   OH247460   1.393   3.508   3.824 -0.0068 -0.6281  0.2599
 8682TIP3    H147461   1.303   3.506   3.791 -0.4807 -0.2606  1.4808
 8682TIP3    H247462   1.441   3.448   3.767  0.1843  2.8273 -3.7065
 8683TIP3   OH247463   3.843   6.211   4.645 -0.5611  0.1348  0.2385
 8683TIP3    H147464   3.768   6.270   4.632 -0.7598  0.0844  1.1015
 8683TIP3    H247465   3.907   6.264   4.693 -0.7484 -0.3522  1.0397
 8684TIP3   OH247466   1.442   5.983   3.988  0.3437 -0.3877 -0.0903
 8684TIP3    H147467   1.468   6.056   3.932 -2.9702  0.3240 -0.9218
 8684TIP3    H247468   1.437   5.908   3.928 -0.6273 -0.2259 -0.2292
 8685TIP3   OH247469   5.997   1.513   2.970 -0.5171 -0.1983 -0.1335
 8685TIP3    H147470   5.966   1.434   2.925  0.3337 -0.1090 -0.9124
 8685TIP3    H247471   6.006   1.578   2.900  1.6404 -0.3059 -0.0102
 8686TIP3   OH247472   3.229   0.508   3.639  0.5447 -0.0518 -0.6009
 8686TIP3    H147473   3.313   0.552   3.622  0.4621  0.5019  0.3754
 8686TIP3    H247474   3.195   0.550   3.717 -0.4246 -0.6133 -0.7034
 8687TIP3   OH247475   1.543   4.342   2.179 -0.1477  1.0727  0.4323
 8687TIP3    H147476   1.584   4.262   2.210  0.4590  1.0491 -0.4027
 8687TIP3    H247477   1.449   4.323   2.178  0.1059 -0.5064 -2.0555
 8688TIP3   OH247478   5.342   0.529  11.787  0.1275  0.0826  0.4536
 8688TIP3    H147479   5.309   0.457  11.733  0.8304  0.3654 -0.3695
 8688TIP3    H247480   5.279   0.535  11.859  0.3144 -1.6610  0.8088
 8689TIP3   OH247481   0.175   6.403  11.891  0.5568 -0.1095  0.5037
 8689TIP3    H147482   0.264   6.379  11.917  0.4272 -1.1905  0.0253
 8689TIP3    H247483   0.135   6.435  11.972  1.3881  0.4294  0.7136
 8690TIP3   OH247484   4.877   2.854  14.704  0.2080  0.3795  0.0548
 8690TIP3    H147485   4.967   2.845  14.673 -0.2358 -0.1748 -1.1435
 8690TIP3    H247486   4.826   2.870  14.624 -1.2127 -2.5672  0.2500
 8691TIP3   OH247487   1.175   5.963  16.393 -0.0932  0.2383  0.0730
 8691TIP3    H147488   1.089   5.924  16.411 -0.5687  1.3027  0.1799
 8691TIP3    H247489   1.191   6.021  16.467 -0.1160  1.4153 -0.8153
 8692TIP3   OH247490   6.036   3.175   5.666  0.4575 -0.2301  0.0146
 8692TIP3    H147491   6.007   3.165   5.576 -3.9169  0.9945  1.0663
 8692TIP3    H247492   6.098   3.248   5.664 -1.6987  1.6839 -1.6944
 8693TIP3   OH247493   0.369   3.906   4.904  0.3139  0.1729  0.1648
 8693TIP3    H147494   0.410   3.836   4.853 -0.0553 -0.0925  0.2294
 8693TIP3    H247495   0.355   3.977   4.841 -0.6250 -0.3514 -0.2289
 8694TIP3   OH247496   1.155   6.597  14.724  0.2298  0.0982 -0.6777
 8694TIP3    H147497   1.189   6.536  14.789 -0.0063  0.2360 -0.4198
 8694TIP3    H247498   1.202   6.576  14.644 -0.7676 -1.2987 -0.9410
 8695TIP3   OH247499   2.371   5.473   1.041  0.2101  0.0444  0.0378
 8695TIP3    H147500   2.290   5.479   0.990 -0.8039 -3.0557  1.0532
 8695TIP3    H247501   2.353   5.524   1.121  0.1079  1.1237 -0.6502
 8696TIP3   OH247502   4.070   4.344  15.222 -0.1536 -0.3768  0.6248
 8696TIP3    H147503   4.085   4.301  15.306  0.9798  0.1553  0.7140
 8696TIP3    H247504   4.083   4.437  15.240  0.7610 -0.3174 -0.2646
 8697TIP3   OH247505   6.534   2.335  11.019  0.1348  0.1791  0.0441
 8697TIP3    H147506   6.536   2.418  10.971  1.3876 -0.1541 -0.5231
 8697TIP3    H247507   6.625   2.319  11.044  0.0515 -1.3810 -0.5054
 8698TIP3   OH247508   6.728   0.995   1.154  0.3282  0.1475  0.0379
 8698TIP3    H147509   6.658   1.038   1.201  1.4389  0.5980  1.3465
 8698TIP3    H247510   6.791   1.064   1.134  2.6574 -0.8429  3.1078
 8699TIP3   OH247511   2.317   0.643   2.107 -0.4486 -0.7965 -0.6502
 8699TIP3    H147512   2.241   0.603   2.148 -0.4551 -0.0806  0.0501
 8699TIP3    H247513   2.281   0.693   2.033 -0.5124 -1.4911 -1.0976
 8700TIP3   OH247514   0.711   5.278   1.366 -0.2672  0.3388  0.1823
 8700TIP3    H147515   0.797   5.262   1.328  0.5051 -0.1525  2.0058
 8700TIP3    H247516   0.702   5.373   1.366  0.2166  0.3858 -0.1757
 8701TIP3   OH247517   5.317   0.873  17.056 -0.1665 -0.1858 -0.6546
 8701TIP3    H147518   5.308   0.842  16.966 -1.3342 -0.7751 -0.3541
 8701TIP3    H247519   5.393   0.826  17.090 -0.4338 -0.8605 -0.9796
 8702TIP3   OH247520   2.779   1.377   0.509  0.0337  0.0465  0.7497
 8702TIP3    H147521   2.816   1.301   0.462 -0.1629 -0.7520  1.8505
 8702TIP3    H247522   2.856   1.428   0.535  0.4123 -1.4193  2.7137
 8703TIP3   OH247523   2.708   5.834  13.939  0.7505 -0.7688 -0.0750
 8703TIP3    H147524   2.702   5.895  13.866  2.4496 -1.7101 -1.0796
 8703TIP3    H247525   2.784   5.864  13.989 -0.2204 -0.3145  1.1617
 8704TIP3   OH247526   2.807   3.112  11.783 -0.2837 -0.0578  0.0046
 8704TIP3    H147527   2.783   3.203  11.798 -0.5149 -0.1771  0.3618
 8704TIP3    H247528   2.857   3.114  11.701  0.7769  0.5588  0.6441
 8705TIP3   OH247529   4.758   1.227  11.296  0.1717 -0.1530 -0.2529
 8705TIP3    H147530   4.699   1.204  11.368  0.4965 -0.6686 -0.1484
 8705TIP3    H247531   4.805   1.147  11.276 -0.3050 -0.1645 -1.4260
 8706TIP3   OH247532   4.032   4.416  15.561 -0.5380  0.4870  0.2526
 8706TIP3    H147533   3.945   4.420  15.520 -1.0685  2.2003  1.4393
 8706TIP3    H247534   4.022   4.351  15.630 -0.8703  0.6504  0.3612
 8707TIP3   OH247535   1.868   6.090  16.528  0.5313 -0.3143  0.2559
 8707TIP3    H147536   1.901   6.019  16.472 -0.5933  0.9736 -2.1855
 8707TIP3    H247537   1.916   6.167  16.498 -0.6037  0.5415  0.5916
 8708TIP3   OH247538   6.493   2.379  13.970  0.7010 -0.2327 -0.3537
 8708TIP3    H147539   6.461   2.430  13.895 -1.9291 -3.1625 -1.4486
 8708TIP3    H247540   6.446   2.415  14.045 -0.9492 -0.7997 -1.0651
 8709TIP3   OH247541   4.792   0.996  16.511 -0.2921 -0.1171  0.2056
 8709TIP3    H147542   4.748   0.922  16.469 -0.4549 -0.0899  0.3262
 8709TIP3    H247543   4.764   0.991  16.603 -1.4273  0.9035 -0.0613
 8710TIP3   OH247544   4.641   4.012  17.330 -0.0570 -0.6182 -0.5845
 8710TIP3    H147545   4.725   4.035  17.370 -0.0768  0.5883 -1.2204
 8710TIP3    H247546   4.654   3.922  17.299  1.4192 -0.0579 -1.7356
 8711TIP3   OH247547   6.428   3.582   4.218  0.1782 -0.6405 -0.1130
 8711TIP3    H147548   6.365   3.511   4.221  1.0625 -1.4411  0.0367
 8711TIP3    H247549   6.412   3.626   4.135  0.9871 -2.3291 -1.2223
 8712TIP3   OH247550   2.573   6.494   1.553 -0.3191  0.0438 -0.8892
 8712TIP3    H147551   2.541   6.415   1.508 -1.7576 -0.7113  1.3164
 8712TIP3    H247552   2.496   6.528   1.598  1.0393  0.7402  1.0020
 8713TIP3   OH247553   0.688   2.614  13.917 -0.0598  0.2338  0.2035
 8713TIP3    H147554   0.623   2.684  13.911  1.4517  1.8572  1.5540
 8713TIP3    H247555   0.679   2.566  13.835 -0.8436  2.2897 -0.9937
 8714TIP3   OH247556   1.784   3.267   5.568  0.1043 -0.5498  0.1306
 8714TIP3    H147557   1.720   3.252   5.499  0.8769 -1.0681 -0.4924
 8714TIP3    H247558   1.819   3.354   5.549  0.7965 -0.9652 -0.5429
 8715TIP3   OH247559   3.774   2.089   5.550  0.2627  0.7017 -0.2121
 8715TIP3    H147560   3.869   2.090   5.542  0.2889  0.5568  0.0825
 8715TIP3    H247561   3.757   2.106   5.642 -0.0899  4.0250 -0.7625
 8716TIP3   OH247562   0.343   3.490   2.351  0.1578  0.7807 -0.4145
 8716TIP3    H147563   0.348   3.481   2.446  0.2392  0.0055 -0.4883
 8716TIP3    H247564   0.249   3.494   2.333  0.1302  0.5316 -0.3331
 8717TIP3   OH247565   4.934   5.505   5.215 -0.0495  0.4638 -0.2279
 8717TIP3    H147566   4.873   5.497   5.288  2.1762  0.4998  1.7491
 8717TIP3    H247567   4.895   5.454   5.145 -2.0787  0.0870  1.1047
 8718TIP3   OH247568   0.931   2.541   0.072 -0.5971 -0.9361 -0.4007
 8718TIP3    H147569   0.971   2.628   0.084  1.4267 -1.6641 -1.3007
 8718TIP3    H247570   0.837   2.557   0.079 -0.3151  1.4045 -0.9243
 8719TIP3   OH247571   2.212   6.038  11.765 -0.7185 -0.3026 -0.0805
 8719TIP3    H147572   2.261   6.116  11.789 -0.9167  0.4749 -1.9856
 8719TIP3    H247573   2.120   6.064  11.771 -0.7805 -0.1912 -1.1866
 8720TIP3   OH247574   4.206   1.983   5.379 -0.2228 -0.1746  0.5241
 8720TIP3    H147575   4.282   1.925   5.378  0.8831  1.2136 -0.1230
 8720TIP3    H247576   4.187   2.001   5.287 -1.0601 -0.1710  0.6929
 8721TIP3   OH247577   1.761   6.741  11.509 -0.1017  0.3777  0.4109
 8721TIP3    H147578   1.840   6.726  11.458  1.7166  1.7267  2.6395
 8721TIP3    H247579   1.722   6.820  11.470  1.1774  1.3034  0.9539
 8722TIP3   OH247580   3.655   3.051  11.671 -0.1850  0.0415 -0.5343
 8722TIP3    H147581   3.578   3.103  11.696 -0.6350 -0.2229 -1.3399
 8722TIP3    H247582   3.709   3.112  11.621 -0.3787 -0.0680 -0.8786
 8723TIP3   OH247583   5.262   4.260   5.642  0.2315  0.0325  0.2667
 8723TIP3    H147584   5.358   4.259   5.647  0.3584  0.4630 -1.4826
 8723TIP3    H247585   5.242   4.324   5.574 -1.3467  0.4165  1.0441
 8724TIP3   OH247586   2.158   1.950   0.673 -0.3710  0.6599  0.3671
 8724TIP3    H147587   2.196   1.872   0.633  1.5338  0.7788  1.8152
 8724TIP3    H247588   2.104   1.988   0.604 -3.5775 -3.2501  0.2953
 8725TIP3   OH247589   2.907   3.286   5.700  0.5642  0.6074 -0.3361
 8725TIP3    H147590   2.925   3.222   5.769  2.7081 -0.6856 -1.9469
 8725TIP3    H247591   2.952   3.365   5.728  0.0226  0.6358  0.4878
 8726TIP3   OH247592   0.624   0.426  11.749 -0.4131  1.0851 -0.6933
 8726TIP3    H147593   0.656   0.389  11.832  0.6518  0.3476 -1.4150
 8726TIP3    H247594   0.691   0.403  11.685 -2.2503 -0.2556 -2.2391
 8727TIP3   OH247595   2.345   0.456   3.164  0.0522  0.4481  0.6368
 8727TIP3    H147596   2.284   0.491   3.099 -0.0453 -1.0085 -0.1137
 8727TIP3    H247597   2.400   0.531   3.189  0.4742  0.9570 -1.5782
 8728TIP3   OH247598   0.650   2.929  12.110 -0.1634  0.5567  0.2501
 8728TIP3    H147599   0.631   2.982  12.032  0.6195  1.7087  0.8242
 8728TIP3    H247600   0.680   2.845  12.074  0.6570  1.2342 -0.7027
 8729TIP3   OH247601   1.743   5.790  14.950 -0.0153 -0.2671 -0.4150
 8729TIP3    H147602   1.722   5.699  14.972 -0.1640 -0.1706 -0.1522
 8729TIP3    H247603   1.833   5.801  14.978 -0.1116 -0.2305 -0.1158
 8730TIP3   OH247604   4.521   4.761  12.740 -0.3945  0.5410  0.3669
 8730TIP3    H147605   4.474   4.793  12.817  0.5453  2.0408  0.3729
 8730TIP3    H247606   4.613   4.777  12.760  0.1619 -2.2103  0.3110
 8731TIP3   OH247607   0.079   6.613  15.529  0.4237  0.1404 -0.0669
 8731TIP3    H147608   0.115   6.564  15.603  0.9787  0.4950 -0.1012
 8731TIP3    H247609   0.092   6.705  15.551 -0.1596  0.2687 -0.2332
 8732TIP3   OH247610   1.517   0.343  12.770  0.4441  0.0332  0.4531
 8732TIP3    H147611   1.511   0.282  12.843  1.4133 -1.2764 -0.5140
 8732TIP3    H247612   1.605   0.380  12.778  0.7877 -0.5685 -0.3587
 8733TIP3   OH247613   4.903   6.437   1.469 -0.3956  0.1200 -0.1068
 8733TIP3    H147614   4.986   6.412   1.429 -1.1494 -1.2660 -0.8960
 8733TIP3    H247615   4.838   6.381   1.426 -1.6122  0.5183  1.1396
 8734TIP3   OH247616   5.335   3.152  15.442  0.1661 -0.3184  0.3203
 8734TIP3    H147617   5.306   3.232  15.486  0.1997  0.6906 -1.4093
 8734TIP3    H247618   5.347   3.089  15.513 -3.2270  0.1069  1.4895
 8735TIP3   OH247619   2.453   1.749   4.544 -0.7564 -0.7787 -0.4585
 8735TIP3    H147620   2.412   1.668   4.514 -0.2884 -1.4579  0.6693
 8735TIP3    H247621   2.469   1.734   4.638  0.3647  0.1772 -0.4799
 8736TIP3   OH247622   4.240   0.595   5.116  0.3175 -0.1922  0.2813
 8736TIP3    H147623   4.328   0.631   5.108  0.8612 -1.0032  2.0927
 8736TIP3    H247624   4.182   0.671   5.105  1.1278  0.1834 -2.0564
 8737TIP3   OH247625   5.567   6.128   5.328 -0.1306 -0.1191  0.0138
 8737TIP3    H147626   5.646   6.178   5.313  0.4082 -0.4593  1.5597
 8737TIP3    H247627   5.497   6.193   5.331  0.2992  0.3421  0.1181
 8738TIP3   OH247628   3.830   4.074  11.040 -0.5332  0.3671 -0.0305
 8738TIP3    H147629   3.813   3.980  11.043  2.9410 -0.4535 -1.2827
 8738TIP3    H247630   3.785   4.104  10.960  2.3725 -1.4105 -2.5519
 8739TIP3   OH247631   2.435   0.196  13.874 -0.2699 -0.1410 -0.3071
 8739TIP3    H147632   2.420   0.289  13.859 -0.0087 -0.1426 -0.5907
 8739TIP3    H247633   2.458   0.190  13.966  1.6332  0.3261 -0.7139
 8740TIP3   OH247634   4.246   5.635   3.700  0.1825  0.1417  0.2502
 8740TIP3    H147635   4.311   5.569   3.726  1.2529  0.3778 -1.5869
 8740TIP3    H247636   4.179   5.631   3.768  0.4719 -2.4517  0.5048
 8741TIP3   OH247637   4.989   0.126  11.692  0.0543 -0.3048  0.3636
 8741TIP3    H147638   4.916   0.154  11.747 -1.3884 -0.3781 -1.4062
 8741TIP3    H247639   4.959   0.044  11.652 -0.5747  1.4773 -3.2688
 8742TIP3   OH247640   1.299   0.183   0.450  0.1847 -0.3623  0.5871
 8742TIP3    H147641   1.320   0.197   0.357  0.5267  1.0505  0.8463
 8742TIP3    H247642   1.383   0.189   0.495 -0.2675  2.0849  1.2845
 8743TIP3   OH247643   2.578   6.576  11.442 -0.3375 -0.1551  0.0031
 8743TIP3    H147644   2.527   6.626  11.506 -0.7826  0.8911 -1.1208
 8743TIP3    H247645   2.642   6.528  11.494 -1.5892 -0.4550  1.3455
 8744TIP3   OH247646   3.379   1.942  11.957 -0.2030 -0.9776 -0.3037
 8744TIP3    H147647   3.380   2.037  11.945 -0.3576 -0.7078  1.5697
 8744TIP3    H247648   3.290   1.916  11.934  0.0154 -0.7728 -1.4241
 8745TIP3   OH247649   5.346   2.942   0.523  0.3262 -0.1809 -0.0737
 8745TIP3    H147650   5.263   2.937   0.476 -0.3062 -1.4778  1.1318
 8745TIP3    H247651   5.370   3.035   0.519 -2.1056  0.5942  1.0915
 8746TIP3   OH247652   4.686   6.593  10.981  0.2082 -0.2176 -0.2807
 8746TIP3    H147653   4.618   6.600  10.914  0.4653 -1.3586 -0.6861
 8746TIP3    H247654   4.754   6.538  10.941  1.4884  1.0690  0.0276
 8747TIP3   OH247655   5.858   6.523   4.837 -0.2537  0.1410 -0.1272
 8747TIP3    H147656   5.769   6.532   4.872  0.1474  0.8397  0.7464
 8747TIP3    H247657   5.851   6.450   4.775 -1.4128  0.1187 -0.0084
 8748TIP3   OH247658   2.732   3.047   5.625 -0.6044 -0.0255 -0.0691
 8748TIP3    H147659   2.818   3.070   5.660 -0.8146 -0.4782  0.7710
 8748TIP3    H247660   2.671   3.106   5.669 -0.7167  0.3871 -0.7625
 8749TIP3   OH247661   1.701   3.067   4.370  0.6859  0.3419  0.3682
 8749TIP3    H147662   1.637   3.020   4.317  0.3909  1.2610 -0.1145
 8749TIP3    H247663   1.714   3.150   4.324  1.7012  0.4559  0.8401
 8750TIP3   OH247664   5.445   4.399   5.322 -0.1986 -0.4864  0.0499
 8750TIP3    H147665   5.501   4.322   5.314  1.3429  0.0756  3.5669
 8750TIP3    H247666   5.504   4.473   5.310 -1.0722  0.1890 -0.2586
 8751TIP3   OH247667   2.083   5.544   0.380  0.1115  0.3565 -0.0818
 8751TIP3    H147668   2.061   5.634   0.403 -0.9698  0.0439  0.1772
 8751TIP3    H247669   2.083   5.542   0.284 -0.0603  0.5793 -0.0853
 8752TIP3   OH247670   4.785   1.418   1.586  0.4315  0.1166 -0.5980
 8752TIP3    H147671   4.728   1.383   1.517  2.3577 -2.4247 -1.0663
 8752TIP3    H247672   4.741   1.498   1.615 -2.9993 -1.3096 -1.3359
 8753TIP3   OH247673   1.577   5.330   4.487 -0.3773  0.0687 -0.2406
 8753TIP3    H147674   1.505   5.291   4.438 -0.6157 -0.4415  0.4905
 8753TIP3    H247675   1.656   5.292   4.448 -0.5868 -0.8078  0.1551
 8754TIP3   OH247676   1.671   6.695   3.537  0.2999 -0.3878 -0.4499
 8754TIP3    H147677   1.655   6.789   3.538  1.1092 -0.2128  1.7204
 8754TIP3    H247678   1.608   6.660   3.600  2.2815 -0.8091  1.4101
 8755TIP3   OH247679   4.873   3.147  11.937 -0.0482 -0.7175  0.3145
 8755TIP3    H147680   4.816   3.153  11.861 -1.3595 -0.7035  1.2567
 8755TIP3    H247681   4.906   3.058  11.936 -0.2900 -0.8034 -0.1208
 8756TIP3   OH247682   1.731   2.999   1.090 -0.0565  0.6064  0.4862
 8756TIP3    H147683   1.815   2.973   1.129 -0.6068 -1.2691  0.4662
 8756TIP3    H247684   1.750   3.006   0.996  0.0563  0.0917  0.4699
 8757TIP3   OH247685   2.316   4.498  11.322  0.3166  0.1294  0.1170
 8757TIP3    H147686   2.344   4.533  11.237 -0.0078  0.2827  0.0736
 8757TIP3    H247687   2.288   4.575  11.371  1.8534  0.2506  0.8919
 8758TIP3   OH247688   2.598   2.399   3.255 -0.6442  0.2048  0.7966
 8758TIP3    H147689   2.596   2.381   3.349  3.2145  0.2271  1.0426
 8758TIP3    H247690   2.664   2.339   3.220  1.6192  3.3886 -0.9567
 8759TIP3   OH247691   1.575   4.686  14.987 -0.1825  0.4895  0.2423
 8759TIP3    H147692   1.559   4.671  15.080  0.1280 -0.3130  0.1746
 8759TIP3    H247693   1.670   4.697  14.980 -0.1711  0.2287 -0.0215
 8760TIP3   OH247694   5.577   5.509   1.105 -0.4189 -0.0757  1.5899
 8760TIP3    H147695   5.574   5.541   1.195  2.2855  2.5509  0.8944
 8760TIP3    H247696   5.659   5.460   1.100  1.3052  2.7051 -0.1332
 8761TIP3   OH247697   4.267   2.602   4.901 -0.6237  0.1097 -0.1181
 8761TIP3    H147698   4.363   2.603   4.899 -0.6354  0.6141 -1.3424
 8761TIP3    H247699   4.243   2.695   4.900 -1.1104  0.0126 -2.1158
 8762TIP3   OH247700   6.691   3.815  13.297 -0.5595 -0.2289 -0.7887
 8762TIP3    H147701   6.639   3.821  13.376 -1.0000  0.4651 -1.1278
 8762TIP3    H247702   6.669   3.730  13.260 -0.4451 -0.5013 -0.2388
 8763TIP3   OH247703   2.721   0.646   1.387 -0.2846 -0.1168  0.6281
 8763TIP3    H147704   2.755   0.588   1.455  0.7694  1.5094  1.5174
 8763TIP3    H247705   2.762   0.730   1.403 -0.6515  0.5395 -1.5370
 8764TIP3   OH247706   1.565   3.425   1.256  0.4092  0.3343  0.4712
 8764TIP3    H147707   1.561   3.358   1.188  0.7487 -0.3104  1.0706
 8764TIP3    H247708   1.627   3.391   1.320  0.8547  1.3863  0.6204
 8765TIP3   OH247709   0.470   4.712  11.951 -0.2653  0.0268 -0.5922
 8765TIP3    H147710   0.508   4.757  11.876  0.4664 -2.5339 -1.8675
 8765TIP3    H247711   0.383   4.686  11.922  0.2706 -1.5664 -0.8774
 8766TIP3   OH247712   0.253   3.499   0.598 -0.8709  0.0623 -0.7876
 8766TIP3    H147713   0.210   3.531   0.677 -0.3681  0.3609 -0.6254
 8766TIP3    H247714   0.263   3.577   0.543  1.3215  0.4601  0.0555
 8767TIP3   OH247715   4.134   1.591  16.547 -0.0656  0.1536  0.0729
 8767TIP3    H147716   4.051   1.635  16.565  1.1618  2.5773  0.1982
 8767TIP3    H247717   4.146   1.602  16.453  0.1879 -0.0389  0.0830
 8768TIP3   OH247718   6.137   1.988  13.763  0.3024  0.5855 -0.2289
 8768TIP3    H147719   6.041   1.991  13.757  0.3409  1.4367 -0.5053
 8768TIP3    H247720   6.155   1.913  13.820 -0.5061  0.0432 -0.6723
 8769TIP3   OH247721   5.020   4.602  14.942 -0.1557 -0.0068  0.1084
 8769TIP3    H147722   4.988   4.686  14.974  0.9841  0.0479  1.2166
 8769TIP3    H247723   5.053   4.558  15.020  1.1268 -0.6192 -0.7426
 8770TIP3   OH247724   2.469   2.821   3.635 -0.2717 -0.3897  0.9091
 8770TIP3    H147725   2.380   2.840   3.666 -0.5289  0.7909 -0.4308
 8770TIP3    H247726   2.464   2.732   3.601 -1.5021  0.3211 -0.9200
 8771TIP3   OH247727   4.048   1.452   6.283  0.2899 -0.4904 -0.3612
 8771TIP3    H147728   4.069   1.523   6.223 -0.1251  0.1337  0.2202
 8771TIP3    H247729   4.085   1.374   6.242  1.4916  0.1791 -0.5901
 8772TIP3   OH247730   5.417   6.378   2.946  0.0502  0.0232  0.4129
 8772TIP3    H147731   5.502   6.361   2.986  0.9279  1.5145 -0.7177
 8772TIP3    H247732   5.424   6.468   2.912 -1.7148 -0.0911 -0.3589
 8773TIP3   OH247733   2.457   0.136   3.406  0.4920  0.2366 -0.0157
 8773TIP3    H147734   2.438   0.226   3.433  1.3160  0.2638  0.5014
 8773TIP3    H247735   2.382   0.111   3.351 -0.6295  0.6097  1.2898
 8774TIP3   OH247736   3.404   1.628   0.365  0.3504  0.0006  0.3771
 8774TIP3    H147737   3.316   1.666   0.369 -0.2590 -1.3875  0.8922
 8774TIP3    H247738   3.438   1.656   0.280  0.2842  2.3488  1.0427
 8775TIP3   OH247739   2.656   0.715  14.040 -0.7928 -0.5347  0.3016
 8775TIP3    H147740   2.690   0.799  14.008 -1.5190 -0.1064  0.6380
 8775TIP3    H247741   2.664   0.656  13.965 -0.6315 -0.0672 -0.0533
 8776TIP3   OH247742   3.488   6.610   0.415  0.1133  0.6006  0.1405
 8776TIP3    H147743   3.525   6.618   0.327 -0.8337 -2.7632 -0.7127
 8776TIP3    H247744   3.396   6.636   0.405 -0.7723 -2.4653 -0.6770
 8777TIP3   OH247745   6.641   4.450  14.234 -0.1306  0.1886 -0.9018
 8777TIP3    H147746   6.716   4.441  14.175 -0.0327 -2.3266 -0.4996
 8777TIP3    H247747   6.679   4.457  14.321 -0.3196 -0.7796 -0.7277
 8778TIP3   OH247748   5.701   1.103   4.768  0.3356 -0.3274 -0.3966
 8778TIP3    H147749   5.646   1.105   4.847 -0.3282 -0.7296 -0.8416
 8778TIP3    H247750   5.784   1.066   4.798  0.1780 -0.2361  0.1704
 8779TIP3   OH247751   6.036   0.482  16.353  0.9305  0.5868  0.1426
 8779TIP3    H147752   5.960   0.476  16.295  0.2921 -0.8084  1.0719
 8779TIP3    H247753   6.098   0.419  16.317  1.2178  0.9380  0.0179
 8780TIP3   OH247754   5.766   1.270  15.522  0.0857  0.0278  0.4721
 8780TIP3    H147755   5.833   1.282  15.454 -4.0001  2.8768 -3.6619
 8780TIP3    H247756   5.764   1.353  15.569 -1.1988  0.4861 -0.3190
 8781TIP3   OH247757   3.304   2.055   6.489  0.1962  0.1847 -0.1061
 8781TIP3    H147758   3.285   1.969   6.452  0.5150  0.6879 -1.4947
 8781TIP3    H247759   3.251   2.116   6.439  0.0522  0.8222  0.7963
 8782TIP3   OH247760   4.771   0.131   1.534  0.0146  0.1889 -0.6384
 8782TIP3    H147761   4.741   0.047   1.500  0.8443 -0.0398 -0.8289
 8782TIP3    H247762   4.701   0.160   1.593  0.3620 -1.3524  0.5915
 8783TIP3   OH247763   1.411   1.806   1.917  0.4483 -0.1861 -0.0896
 8783TIP3    H147764   1.384   1.721   1.882  0.5187 -0.3670  0.2941
 8783TIP3    H247765   1.446   1.786   2.004  0.3899  0.2456  0.0329
 8784TIP3   OH247766   0.698   1.719  16.905 -0.1019  0.0317 -0.3608
 8784TIP3    H147767   0.778   1.665  16.902 -0.0697 -0.0159 -4.0532
 8784TIP3    H247768   0.727   1.805  16.874 -1.3667  0.1559 -1.2570
 8785TIP3   OH247769   4.290   4.853   1.228  0.0609 -0.6293  0.0591
 8785TIP3    H147770   4.284   4.870   1.322  1.0452  1.5758 -0.2167
 8785TIP3    H247771   4.199   4.834   1.202 -0.1795 -1.6136  1.4661
 8786TIP3   OH247772   2.009   0.261   1.500  0.2677 -0.3007  0.3122
 8786TIP3    H147773   1.975   0.328   1.560  1.6960  0.6913  0.0667
 8786TIP3    H247774   2.085   0.225   1.546  0.8049 -0.2066 -0.4893
 8787TIP3   OH247775   4.120   4.948  13.930 -0.1884  0.2983 -0.0008
 8787TIP3    H147776   4.099   4.866  13.887  0.1428  0.2500 -0.0735
 8787TIP3    H247777   4.087   5.016  13.870 -1.7574  0.2254  0.7181
 8788TIP3   OH247778   6.770   4.014   5.782 -0.2841 -0.0690 -0.3426
 8788TIP3    H147779   6.734   3.975   5.862 -0.9669 -1.4305 -1.2792
 8788TIP3    H247780   6.711   4.087   5.763 -0.0309  0.3546  0.4694
 8789TIP3   OH247781   1.458   5.716   6.210  0.0257 -0.2592  0.3344
 8789TIP3    H147782   1.389   5.762   6.257 -0.3395  0.5743 -0.9698
 8789TIP3    H247783   1.468   5.633   6.257  0.0598  0.7545  2.1680
 8790TIP3   OH247784   4.494   0.677   3.543  0.3240 -0.6252 -0.5001
 8790TIP3    H147785   4.570   0.671   3.485  0.0740  0.3253 -0.9436
 8790TIP3    H247786   4.529   0.712   3.625  0.3706 -0.2091 -0.6962
 8791TIP3   OH247787   0.053   4.717   0.047  0.3997 -0.1990  0.0510
 8791TIP3    H147788  -0.042   4.716   0.056  0.2155 -1.2227 -1.5919
 8791TIP3    H247789   0.086   4.681   0.129 -0.5019  1.7272  1.3459
 8792TIP3   OH247790   6.479   3.137   5.513 -0.0676 -1.0113  0.0574
 8792TIP3    H147791   6.547   3.086   5.468  0.2253 -1.2036  0.7054
 8792TIP3    H247792   6.405   3.077   5.521 -1.0991 -0.2001 -2.4399
 8793TIP3   OH247793   2.257   2.729  13.206 -1.1067  0.2955 -0.0606
 8793TIP3    H147794   2.308   2.678  13.144  0.6459  2.0042 -0.1420
 8793TIP3    H247795   2.304   2.721  13.289 -1.0618  1.3378  0.0349
 8794TIP3   OH247796   2.331   2.624   0.046 -0.2024 -0.7071 -0.3391
 8794TIP3    H147797   2.414   2.601   0.088 -0.1133  0.2757  0.0460
 8794TIP3    H247798   2.349   2.616  -0.048  0.6981  0.6473 -0.3131
 8795TIP3   OH247799   5.215   6.577  12.902 -0.1143 -0.3069 -1.1147
 8795TIP3    H147800   5.138   6.578  12.845 -0.6130 -1.1945 -0.4825
 8795TIP3    H247801   5.213   6.491  12.944 -1.0191  1.0590  1.9099
 8796TIP3   OH247802   3.234   3.386   0.517 -0.4976 -0.4148  0.5319
 8796TIP3    H147803   3.243   3.298   0.481  0.5671 -0.9544  1.9626
 8796TIP3    H247804   3.151   3.419   0.483 -0.2037 -1.3864 -1.2128
 8797TIP3   OH247805   6.654   2.573   3.606  0.5113 -0.4458 -0.1042
 8797TIP3    H147806   6.605   2.644   3.564  0.8197 -0.6345 -0.7903
 8797TIP3    H247807   6.587   2.523   3.653  0.4808  1.1518  1.6698
 8798TIP3   OH247808   6.601   0.475  12.666 -0.5585  0.3519  0.2182
 8798TIP3    H147809   6.679   0.496  12.616 -1.7087 -1.5863 -2.7405
 8798TIP3    H247810   6.633   0.426  12.742  1.1295 -0.8583 -1.1887
 8799TIP3   OH247811   4.938   1.676   5.228 -0.0694 -0.3266  0.2304
 8799TIP3    H147812   5.025   1.640   5.209  0.4909  1.7567 -1.5496
 8799TIP3    H247813   4.903   1.619   5.297  2.2238 -1.9135  0.1931
 8800TIP3   OH247814   3.142   2.017   3.065 -0.2179 -0.1524 -0.1769
 8800TIP3    H147815   3.185   1.942   3.025  1.4512  1.2390 -1.1331
 8800TIP3    H247816   3.188   2.093   3.028 -2.9475  1.4187 -0.5999
 8801TIP3   OH247817   4.499   3.974   2.433  0.6200 -0.4497  0.1724
 8801TIP3    H147818   4.498   3.894   2.485  1.0428 -1.2099 -0.9452
 8801TIP3    H247819   4.477   3.946   2.345 -0.5262  0.8706  0.0006
 8802TIP3   OH247820   3.800   3.840  16.486 -0.0087  0.2231  0.0535
 8802TIP3    H147821   3.841   3.760  16.453 -0.8560 -0.2863  0.1836
 8802TIP3    H247822   3.864   3.909  16.471  0.6583 -0.4531 -0.2423
 8803TIP3   OH247823   0.041   0.541   4.149 -0.3152 -0.3360  0.6640
 8803TIP3    H147824  -0.004   0.493   4.218 -0.4339 -1.0972  0.0676
 8803TIP3    H247825   0.113   0.586   4.194 -0.8435 -0.2147  1.3963
 8804TIP3   OH247826   0.942   4.492   3.336 -0.3467 -0.0868  0.0349
 8804TIP3    H147827   1.011   4.551   3.307 -0.2005 -0.4081 -0.2852
 8804TIP3    H247828   0.872   4.549   3.368  0.6842  0.2363  1.8480
 8805TIP3   OH247829   0.490   4.545  16.475  0.0349 -0.0307  0.3218
 8805TIP3    H147830   0.558   4.519  16.538  0.0949  0.8312  0.6347
 8805TIP3    H247831   0.412   4.557  16.529 -0.1776 -0.3000  0.0720
 8806TIP3   OH247832   2.652   2.984  17.111  0.2636 -0.5215 -0.4130
 8806TIP3    H147833   2.723   3.040  17.143  0.8399 -2.4558  2.0229
 8806TIP3    H247834   2.696   2.909  17.073 -0.4500 -1.2978  0.2580
 8807TIP3   OH247835   2.115   4.751  14.876 -0.2273  1.1215  0.5835
 8807TIP3    H147836   2.073   4.775  14.794  0.5693  1.6950  0.3343
 8807TIP3    H247837   2.095   4.658  14.888  1.7923  0.3045 -1.5967
 8808TIP3   OH247838   4.485   5.902  16.736 -0.1111 -0.4664 -0.1213
 8808TIP3    H147839   4.564   5.943  16.769  0.9209 -1.0326 -1.7627
 8808TIP3    H247840   4.446   5.967  16.677  0.8537 -1.2894 -1.7433
 8809TIP3   OH247841   2.515   6.363   4.578 -0.1522  0.5031 -0.1857
 8809TIP3    H147842   2.438   6.308   4.597 -0.1280  0.7325  0.5994
 8809TIP3    H247843   2.585   6.300   4.558 -0.4307  0.2848 -0.4942
 8810TIP3   OH247844   1.663   4.781   5.071 -0.3361  0.1105 -0.8983
 8810TIP3    H147845   1.739   4.819   5.027 -0.7947  2.0724 -0.0631
 8810TIP3    H247846   1.646   4.839   5.145 -2.2461 -0.6665 -0.6737
 8811TIP3   OH247847   3.811   6.203   2.919 -0.4914 -1.0204  0.2350
 8811TIP3    H147848   3.842   6.287   2.952  1.9389 -2.1308  1.0390
 8811TIP3    H247849   3.857   6.191   2.836 -0.4249 -1.7578  0.3718
 8812TIP3   OH247850   2.168   6.393   1.288  0.4645  0.2072  0.4733
 8812TIP3    H147851   2.204   6.358   1.369  1.9653 -1.4332 -0.8158
 8812TIP3    H247852   2.202   6.482   1.283  0.8591  0.1116  1.3677
 8813TIP3   OH247853   2.203   4.189   2.216  0.1937 -0.1577  0.3557
 8813TIP3    H147854   2.272   4.175   2.281  0.8396 -0.0202 -0.2790
 8813TIP3    H247855   2.248   4.180   2.132 -0.4721  0.4006 -0.0674
 8814TIP3   OH247856   1.507   5.875   1.449 -0.0928  0.3257 -0.0013
 8814TIP3    H147857   1.434   5.854   1.390 -0.6673 -0.3958  0.9357
 8814TIP3    H247858   1.468   5.876   1.536  1.1319 -0.7447  0.5959
 8815TIP3   OH247859   4.528   2.255  17.028  0.5140 -0.4267  0.4572
 8815TIP3    H147860   4.608   2.301  17.054  0.3487 -0.3248  0.7884
 8815TIP3    H247861   4.528   2.175  17.080 -1.1067  0.9400  2.7625
 8816TIP3   OH247862   2.540   1.428   1.133 -0.0096 -0.3096  0.3257
 8816TIP3    H147863   2.564   1.395   1.047 -2.0267 -1.0758  0.0067
 8816TIP3    H247864   2.576   1.364   1.194  1.6135  0.3490  0.0920
 8817TIP3   OH247865   4.744   3.185  16.133 -0.4132  0.0091  0.4952
 8817TIP3    H147866   4.664   3.142  16.162  0.0733 -1.8356 -0.6882
 8817TIP3    H247867   4.813   3.147  16.187  0.3122 -2.4602 -1.9354
 8818TIP3   OH247868   2.710   1.318   6.609  0.0643  0.4651 -0.3065
 8818TIP3    H147869   2.706   1.405   6.649  2.1950  0.5881 -0.2194
 8818TIP3    H247870   2.774   1.270   6.662  1.3479 -0.0804 -2.2357
 8819TIP3   OH247871   4.987   1.043  15.274  0.4515  0.2113  0.1580
 8819TIP3    H147872   4.904   1.013  15.311  0.4518 -0.9098 -0.7012
 8819TIP3    H247873   4.964   1.074  15.186  0.9952 -0.5214 -0.2548
 8820TIP3   OH247874   6.712   5.367   1.685  0.0810  0.3577 -0.4758
 8820TIP3    H147875   6.630   5.415   1.674 -2.4031 -3.3426  0.3802
 8820TIP3    H247876   6.705   5.324   1.770  1.6145 -2.2831 -1.5477
 8821TIP3   OH247877   6.417   2.539   2.910  0.0338 -0.1963  0.8671
 8821TIP3    H147878   6.480   2.611   2.906  0.1940 -0.3800 -0.0925
 8821TIP3    H247879   6.331   2.581   2.904  0.0807 -0.0110  1.3962
 8822TIP3   OH247880   5.713   2.977  14.799 -0.1664  0.3055 -0.8802
 8822TIP3    H147881   5.776   3.012  14.736  0.7866 -0.5962 -0.4628
 8822TIP3    H247882   5.708   3.044  14.867 -0.2729  0.7442 -1.3198
 8823TIP3   OH247883   5.339   6.193   2.022  0.1799  0.0999 -0.2450
 8823TIP3    H147884   5.384   6.267   1.981  0.9033  0.2807  0.8425
 8823TIP3    H247885   5.388   6.176   2.103 -0.6113 -0.8889  0.0542
 8824TIP3   OH247886   1.505   3.236   1.041  0.2013 -0.2362 -0.0248
 8824TIP3    H147887   1.528   3.143   1.043 -0.9118 -0.5359 -0.4994
 8824TIP3    H247888   1.443   3.244   0.969 -1.0944  0.5391  1.1333
 8825TIP3   OH247889   4.813   3.618  16.560 -0.6794 -1.2269  0.0629
 8825TIP3    H147890   4.885   3.556  16.553 -1.1398 -1.8834  0.8326
 8825TIP3    H247891   4.785   3.634  16.470  1.3038  0.1364 -0.3611
 8826TIP3   OH247892   3.672   4.050  13.324  0.4224 -0.3677  0.0526
 8826TIP3    H147893   3.593   3.998  13.307  1.8120 -2.2483 -1.0930
 8826TIP3    H247894   3.712   4.062  13.238  1.1276  1.0492  0.5431
 8827TIP3   OH247895   0.961   6.646   3.738 -0.1528 -0.0176 -0.0691
 8827TIP3    H147896   0.919   6.621   3.656 -1.7863  0.8424  0.4650
 8827TIP3    H247897   1.005   6.566   3.768  0.1592 -0.4327 -1.5690
 8828TIP3   OH247898   5.449   5.081   1.095 -0.3285 -0.2249  0.8737
 8828TIP3    H147899   5.443   5.164   1.048  1.3623 -0.5920 -0.0635
 8828TIP3    H247900   5.465   5.016   1.027 -0.5620 -1.1751  1.6978
 8829TIP3   OH247901   1.624   2.318   4.464  0.1822  0.0883 -0.5881
 8829TIP3    H147902   1.598   2.263   4.391 -0.6754  1.1272 -1.0879
 8829TIP3    H247903   1.543   2.335   4.512  0.3494  1.2675 -0.6922
 8830TIP3   OH247904   6.076   2.459  13.480 -0.4870 -0.5641  0.0830
 8830TIP3    H147905   6.075   2.430  13.571  1.0184 -0.3942  0.1731
 8830TIP3    H247906   6.013   2.531  13.477 -0.2476 -0.2997  1.0948
 8831TIP3   OH247907   6.461   3.116  15.626  0.6222 -0.3079 -0.0556
 8831TIP3    H147908   6.473   3.049  15.694 -1.2248 -0.3630  0.2658
 8831TIP3    H247909   6.550   3.143  15.603  1.3204 -0.2311  2.4431
 8832TIP3   OH247910   3.786   1.536   2.797 -0.8854 -0.4277 -0.3488
 8832TIP3    H147911   3.819   1.459   2.843 -0.9964 -0.8643 -0.9968
 8832TIP3    H247912   3.779   1.603   2.865 -0.7274 -0.9676  0.2048
 8833TIP3   OH247913   4.472   3.129   2.271  0.4982  0.3742  0.5087
 8833TIP3    H147914   4.435   3.121   2.183  4.0724  1.8530 -1.3571
 8833TIP3    H247915   4.422   3.199   2.312 -1.1145 -0.1884 -0.3997
 8834TIP3   OH247916   1.001   6.412  14.136  0.3456  0.1014 -0.1793
 8834TIP3    H147917   1.007   6.507  14.144  0.0467  0.0745  0.3875
 8834TIP3    H247918   0.927   6.397  14.078  0.3802  0.2115 -0.2523
 8835TIP3   OH247919   1.747   2.957   2.030 -0.1165  0.3225  0.2615
 8835TIP3    H147920   1.842   2.948   2.036 -0.1427 -1.8696 -1.5116
 8835TIP3    H247921   1.713   2.906   2.104  0.0677  0.0152  0.1360
 8836TIP3   OH247922   1.610   4.964  17.200  0.4087  0.4621 -0.0664
 8836TIP3    H147923   1.539   4.995  17.143 -1.0204 -0.0723  1.3403
 8836TIP3    H247924   1.587   4.873  17.219  1.4579  0.2917  0.4672
 8837TIP3   OH247925   1.676   5.084  14.103  0.2107  0.4881 -0.1971
 8837TIP3    H147926   1.754   5.090  14.159  1.1643 -0.1603 -1.4057
 8837TIP3    H247927   1.644   5.174  14.098 -0.6286  0.4061  2.3224
 8838TIP3   OH247928   1.424   2.112  14.672 -0.3393  0.3334  0.1164
 8838TIP3    H147929   1.481   2.188  14.668 -1.5298  1.2439 -0.1654
 8838TIP3    H247930   1.424   2.076  14.583  0.1878  0.0044  0.2405
 8839TIP3   OH247931   4.456   6.055   3.010  0.2304  0.2050 -0.5478
 8839TIP3    H147932   4.462   5.971   2.965  0.7659  0.0387 -0.1821
 8839TIP3    H247933   4.363   6.075   3.012 -0.1525 -1.4059  1.1944
 8840TIP3   OH247934   0.389   4.282   1.038  0.3340 -0.1702 -0.1829
 8840TIP3    H147935   0.389   4.321   0.950  0.3112 -0.2711 -0.2277
 8840TIP3    H247936   0.307   4.311   1.077  0.8195  0.7430  0.1941
 8841TIP3   OH247937   4.859   5.011  13.580 -0.4240 -0.0791  0.5682
 8841TIP3    H147938   4.920   5.085  13.584 -1.1289  0.4733  1.5601
 8841TIP3    H247939   4.798   5.026  13.653 -0.5198 -1.6971  0.8593
 8842TIP3   OH247940   5.365   0.543   2.207  0.1294  0.1683 -0.0102
 8842TIP3    H147941   5.297   0.608   2.188  0.3786  1.1229  2.0768
 8842TIP3    H247942   5.317   0.460   2.216 -0.5685  0.5575 -0.0518
 8843TIP3   OH247943   5.067   6.761   1.200  0.2425  0.2238 -0.1377
 8843TIP3    H147944   4.973   6.748   1.198  0.4663 -1.6551 -0.4935
 8843TIP3    H247945   5.098   6.707   1.273  0.9625  1.6223  0.6327
 8844TIP3   OH247946   6.459   3.131   0.275  0.7358 -0.2662  0.0318
 8844TIP3    H147947   6.434   3.150   0.365 -0.7860 -4.9766  0.9044
 8844TIP3    H247948   6.444   3.212   0.228  0.2253  2.0001  3.7127
 8845TIP3   OH247949   0.769   0.486   4.864  0.1160 -0.7760 -0.0881
 8845TIP3    H147950   0.817   0.458   4.786  0.1266 -1.2191  0.0725
 8845TIP3    H247951   0.832   0.477   4.935  0.1576 -0.2118 -0.0528
 8846TIP3   OH247952   6.471   0.261  14.898  0.0841 -0.4513  0.0798
 8846TIP3    H147953   6.397   0.285  14.954  0.9470 -0.5721  1.3143
 8846TIP3    H247954   6.509   0.185  14.940  1.6332  0.3315  0.1645
 8847TIP3   OH247955   0.032   2.310  15.326  0.1744  0.2576 -0.2023
 8847TIP3    H147956   0.096   2.373  15.359  1.7797 -0.9121 -0.9848
 8847TIP3    H247957  -0.018   2.285  15.404 -0.3910  2.3092  0.1624
 8848TIP3   OH247958   5.019   4.497   2.326  0.4698 -0.0661 -0.8431
 8848TIP3    H147959   4.930   4.511   2.294 -0.5275 -2.9959  0.2853
 8848TIP3    H247960   5.065   4.456   2.252  0.1105 -0.8297 -0.6544
 8849TIP3   OH247961   0.999   5.602  11.201 -0.5260  0.2923  0.1221
 8849TIP3    H147962   1.083   5.586  11.158 -0.6597 -1.2367  0.3916
 8849TIP3    H247963   1.023   5.651  11.281 -0.0861  1.3599 -0.6348
 8850TIP3   OH247964   6.097   5.225   0.827 -0.1424  0.2408  0.2953
 8850TIP3    H147965   6.156   5.250   0.756  0.3124 -2.0140 -0.2248
 8850TIP3    H247966   6.043   5.155   0.789 -0.4225 -0.4807  1.9193
 8851TIP3   OH247967   1.113   3.391  11.314  0.4126  0.1132  0.1686
 8851TIP3    H147968   1.093   3.375  11.221  1.3606 -0.1047 -0.0086
 8851TIP3    H247969   1.089   3.482  11.328  0.0562  0.0852 -0.2385
 8852TIP3   OH247970   0.066   3.313   0.848  0.0539 -0.2220  0.6018
 8852TIP3    H147971   0.087   3.395   0.893  0.2112 -1.1031  2.2061
 8852TIP3    H247972  -0.002   3.337   0.785  0.7333  1.2959  0.3849
 8853TIP3   OH247973   5.237   5.439   3.732 -0.1388  0.1525  0.7739
 8853TIP3    H147974   5.319   5.460   3.777  0.3890  0.4332 -0.2969
 8853TIP3    H247975   5.223   5.511   3.671 -0.0545 -0.9369 -0.5718
 8854TIP3   OH247976   1.696   3.644   1.123  0.4564 -0.3623  0.1674
 8854TIP3    H147977   1.616   3.685   1.090  0.1563 -0.4108  0.8088
 8854TIP3    H247978   1.666   3.564   1.166  0.8524 -0.3970  0.3835
 8855TIP3   OH247979   5.856   5.213   1.567  0.0493 -0.1684 -0.5603
 8855TIP3    H147980   5.907   5.183   1.642 -0.4897 -0.7328 -0.4200
 8855TIP3    H247981   5.909   5.189   1.491  0.7478  0.6911 -0.3594
 8856TIP3   OH247982   6.682   5.068  13.415 -0.3310 -0.8348  0.1315
 8856TIP3    H147983   6.596   5.046  13.378  0.4038 -3.0066 -0.3936
 8856TIP3    H247984   6.665   5.147  13.466 -2.6408 -1.1722  0.0279
 8857TIP3   OH247985   3.523   4.532  12.894 -0.1616 -0.6741 -0.2502
 8857TIP3    H147986   3.513   4.615  12.848 -0.9042  0.3899  1.7477
 8857TIP3    H247987   3.460   4.474  12.851 -0.7261  0.2297 -0.6812
 8858TIP3   OH247988   2.997   3.172   4.316 -0.1259  1.0126 -0.0264
 8858TIP3    H147989   3.041   3.255   4.339  1.4199  0.1826  0.1627
 8858TIP3    H247990   2.983   3.129   4.400  0.3431  0.4725 -0.2239
 8859TIP3   OH247991   1.943   1.960   2.757 -0.1681 -0.3735 -0.7259
 8859TIP3    H147992   2.017   1.997   2.709 -0.1828 -0.1354 -0.5699
 8859TIP3    H247993   1.922   2.026   2.824  0.2779 -0.9889  0.0404
 8860TIP3   OH247994   1.424   2.031  12.832 -0.5632 -0.1272  0.4840
 8860TIP3    H147995   1.403   2.123  12.814 -0.9899 -0.0344  1.3997
 8860TIP3    H247996   1.507   2.016  12.787 -0.0391  0.9678  1.0575
 8861TIP3   OH247997   0.093   1.811  12.277 -1.1801  0.3312 -0.3350
 8861TIP3    H147998   0.145   1.812  12.358  0.2026 -0.6101 -1.1724
 8861TIP3    H247999   0.006   1.842  12.304 -0.4422  1.1064  1.2820
 8862TIP3   OH248000   6.182   2.949  10.944  0.2101  0.2185 -0.4969
 8862TIP3    H148001   6.253   2.917  10.889  1.1880  2.6216 -0.7439
 8862TIP3    H248002   6.117   2.983  10.883 -0.9622 -1.4289 -0.2497
 8863TIP3   OH248003   5.808   4.668  11.727 -0.1618 -0.2586 -0.3727
 8863TIP3    H148004   5.865   4.591  11.725  0.4604  0.1769  0.1993
 8863TIP3    H248005   5.770   4.671  11.640 -1.7096 -2.3248  0.1500
 8864TIP3   OH248006   4.811   5.751  14.740 -0.4187  0.7302  0.1766
 8864TIP3    H148007   4.826   5.804  14.662  0.0686 -2.3038 -1.9538
 8864TIP3    H248008   4.893   5.703  14.753 -0.6864  0.7414  2.2632
 8865TIP3   OH248009   3.746   6.076  13.718  0.2137 -0.5085  0.3185
 8865TIP3    H148010   3.773   6.141  13.782 -0.7459  1.6878 -1.3843
 8865TIP3    H248011   3.652   6.064  13.732  0.2961 -1.2108  0.3268
 8866TIP3   OH248012   3.426   5.328   2.255  0.3442 -0.2081 -0.1333
 8866TIP3    H148013   3.385   5.353   2.172 -1.0106  0.0205  0.5838
 8866TIP3    H248014   3.395   5.393   2.317 -0.0904 -1.4025  0.9401
 8867TIP3   OH248015   2.344   5.463   6.018  0.4446 -0.3479  0.0868
 8867TIP3    H148016   2.323   5.448   6.110 -2.7247 -1.2903 -0.6727
 8867TIP3    H248017   2.388   5.548   6.017  1.4310 -0.7478  2.5299
 8868TIP3   OH248018   2.793   1.586   6.692 -1.0405  0.8251 -0.3516
 8868TIP3    H148019   2.774   1.632   6.611  1.2110  2.3809 -0.0979
 8868TIP3    H248020   2.881   1.551   6.680 -1.5017 -0.8058  0.6453
 8869TIP3   OH248021   2.304   0.039   5.153 -0.8596 -0.5479 -0.0045
 8869TIP3    H148022   2.209   0.042   5.145 -0.8866 -1.7631 -0.3093
 8869TIP3    H248023   2.327  -0.053   5.141  0.4643 -0.1179 -1.1331
 8870TIP3   OH248024   0.954   0.044   3.279  0.1072 -0.1769  0.2709
 8870TIP3    H148025   0.930  -0.027   3.338  0.4672  0.9246  1.8180
 8870TIP3    H248026   1.043   0.022   3.249  1.2371  0.7426  2.6785
 8871TIP3   OH248027   1.968   6.290   0.126  0.3426 -0.1271  0.4565
 8871TIP3    H148028   1.906   6.336   0.182  1.7257 -0.0663  1.9875
 8871TIP3    H248029   2.039   6.265   0.184  1.7577 -0.2226 -1.2468
 8872TIP3   OH248030   3.686   1.872  11.780 -0.4472 -0.1829  0.0053
 8872TIP3    H148031   3.672   1.950  11.728 -2.6528  0.3616  1.2853
 8872TIP3    H248032   3.661   1.799  11.723 -0.7099  0.2212 -0.3921
 8873TIP3   OH248033   0.848   6.058   1.533  0.1474 -0.1528  0.6852
 8873TIP3    H148034   0.806   6.080   1.616 -1.6534 -1.7601  0.2630
 8873TIP3    H248035   0.893   6.138   1.507  0.0502  0.6300  2.7913
 8874TIP3   OH248036   3.608   0.726  14.236 -0.5902 -0.5516  0.0912
 8874TIP3    H148037   3.623   0.658  14.171 -0.4607 -0.3318 -0.1110
 8874TIP3    H248038   3.696   0.760  14.255 -0.5456 -1.0738  0.8807
 8875TIP3   OH248039   3.341   5.340   1.603  0.0272  0.1808  0.0513
 8875TIP3    H148040   3.414   5.307   1.550 -0.0656 -0.0049  0.0400
 8875TIP3    H248041   3.285   5.385   1.541 -0.7667 -1.1744 -0.2416
 8876TIP3   OH248042   5.699   5.445  16.523 -0.0407 -0.0481 -0.1706
 8876TIP3    H148043   5.732   5.498  16.596 -0.4990 -0.1295  0.1041
 8876TIP3    H248044   5.604   5.462  16.523 -0.1254 -0.5175 -0.3633
 8877TIP3   OH248045   1.806   3.878  11.171 -0.0337 -0.2171  0.1196
 8877TIP3    H148046   1.755   3.832  11.105 -1.0874 -0.3572  1.0001
 8877TIP3    H248047   1.897   3.855  11.152  0.0843  2.2062 -3.2144
 8878TIP3   OH248048   2.340   2.414   4.178  0.3172  0.4450 -0.4641
 8878TIP3    H148049   2.338   2.450   4.267  1.4585  1.2103 -0.7302
 8878TIP3    H248050   2.373   2.485   4.124 -0.1085 -0.1000 -1.4702
 8879TIP3   OH248051   1.222   5.090  12.456  0.3354  0.1522 -0.0791
 8879TIP3    H148052   1.178   5.116  12.536  0.4455  0.0661  0.0102
 8879TIP3    H248053   1.281   5.163  12.435 -2.7404  2.2293 -2.4466
 8880TIP3   OH248054   2.997   2.997  13.158  0.3421  0.5612  0.1645
 8880TIP3    H148055   3.037   2.913  13.136 -0.8905 -0.6356  2.1288
 8880TIP3    H248056   3.062   3.063  13.132  1.5488 -1.0074 -0.9814
 8881TIP3   OH248057   4.908   0.998   2.679  0.3513 -0.0898  0.5696
 8881TIP3    H148058   4.847   1.059   2.636 -0.6057  0.0957  2.1070
 8881TIP3    H248059   4.972   1.054   2.722  0.1173 -0.1939  1.0615
 8882TIP3   OH248060   0.883   3.235  10.810 -0.3732 -0.0269 -0.0180
 8882TIP3    H148061   0.975   3.227  10.782 -0.4340 -0.8780 -0.0060
 8882TIP3    H248062   0.840   3.160  10.771 -1.1115  0.4673 -0.1633
 8883TIP3   OH248063   3.811   5.160   3.509 -0.4370  0.0815  0.3408
 8883TIP3    H148064   3.857   5.212   3.575 -0.7171  1.3775 -0.4376
 8883TIP3    H248065   3.779   5.084   3.557  0.1235  0.5457  1.5015
 8884TIP3   OH248066   0.805   1.679  12.253 -0.1395  0.2985  0.3132
 8884TIP3    H148067   0.746   1.641  12.319  1.4116 -1.8028  0.5767
 8884TIP3    H248068   0.751   1.746  12.209 -2.5662 -1.1572  0.8580
 8885TIP3   OH248069   1.692   3.864   5.574  0.3271  0.5063 -0.0597
 8885TIP3    H148070   1.719   3.774   5.558  1.5438  0.7574  0.4700
 8885TIP3    H248071   1.596   3.862   5.569  0.3063 -0.9220  0.5624
 8886TIP3   OH248072   3.335   1.414   4.503 -0.6288  0.1871 -0.0113
 8886TIP3    H148073   3.243   1.392   4.520 -0.2815 -1.1710  0.2661
 8886TIP3    H248074   3.374   1.421   4.590 -0.5618  1.2363 -0.1180
 8887TIP3   OH248075   1.506   0.226   2.053  0.0710 -0.4904 -0.3169
 8887TIP3    H148076   1.417   0.260   2.041  0.6900  1.0144 -0.9071
 8887TIP3    H248077   1.524   0.175   1.975 -0.7437 -1.9701  0.4199
 8888TIP3   OH248078   5.976   2.814  17.302 -0.2330 -0.0610  0.1046
 8888TIP3    H148079   6.032   2.884  17.267 -0.5068 -0.2339 -0.6898
 8888TIP3    H248080   6.036   2.740  17.314 -0.2820 -0.2426 -0.7349
 8889TIP3   OH248081   0.459   6.039  12.716 -0.4868  0.3040  0.2928
 8889TIP3    H148082   0.533   6.095  12.693 -0.7635  0.6146  0.1488
 8889TIP3    H248083   0.496   5.972  12.773 -0.0758  0.3977  0.1380
 8890TIP3   OH248084   1.042   3.128   4.014  0.1941 -0.4812 -0.1439
 8890TIP3    H148085   0.947   3.131   4.019  0.0951 -0.5582 -1.4406
 8890TIP3    H248086   1.060   3.068   3.941  1.1965  0.4448 -0.6898
 8891TIP3   OH248087   0.411   0.658  13.336  0.1244 -0.5527 -0.1744
 8891TIP3    H148088   0.456   0.704  13.407 -0.6759  2.0664 -1.2425
 8891TIP3    H248089   0.479   0.641  13.271  0.6179 -1.8694  0.6384
 8892TIP3   OH248090   1.957   0.920  16.245  0.2725 -0.1610 -0.0401
 8892TIP3    H148091   1.957   0.852  16.178 -2.1098  0.3917 -0.6828
 8892TIP3    H248092   2.004   0.993  16.205 -0.6028 -0.0533 -0.9174
 8893TIP3   OH248093   1.552   4.621  12.185  0.1650  0.2866 -0.2688
 8893TIP3    H148094   1.464   4.655  12.198 -0.1809  0.2708 -2.2266
 8893TIP3    H248095   1.584   4.667  12.107  1.7935  0.0808  0.2252
 8894TIP3   OH248096   1.697   6.028  14.340 -0.1331  0.1575  0.0996
 8894TIP3    H148097   1.646   6.104  14.367 -0.8521  0.0033 -0.7795
 8894TIP3    H248098   1.723   6.047  14.250  0.6993 -0.1162  0.2697
 8895TIP3   OH248099   4.634   5.979   1.750  0.5801 -0.4235 -0.4693
 8895TIP3    H148100   4.647   5.905   1.690  2.5784  0.7433 -1.5941
 8895TIP3    H248101   4.689   5.958   1.825 -0.6891 -1.1395  0.2896
 8896TIP3   OH248102   0.549   6.573   3.048  0.0820 -0.3121 -0.4708
 8896TIP3    H148103   0.520   6.578   2.957 -0.9525  0.6941 -0.1112
 8896TIP3    H248104   0.584   6.660   3.067  1.4556 -0.8837 -0.2567
 8897TIP3   OH248105   2.504   1.984   2.002  0.4282 -0.4483  0.2064
 8897TIP3    H148106   2.553   1.928   1.941 -4.7480 -1.1243 -4.0723
 8897TIP3    H248107   2.530   2.073   1.978  1.1087 -0.8070 -0.4487
 8898TIP3   OH248108   4.284   5.722  16.769 -0.2296  0.7307  0.0335
 8898TIP3    H148109   4.359   5.773  16.738  0.0269 -0.3768 -1.2860
 8898TIP3    H248110   4.221   5.788  16.798  0.9536  1.7091  0.4968
 8899TIP3   OH248111   3.755   3.008   2.860  0.1680 -0.3964 -0.6452
 8899TIP3    H148112   3.793   3.067   2.795  1.7390 -1.6441 -0.9423
 8899TIP3    H248113   3.797   2.923   2.842 -0.1969 -1.0345  1.2762
 8900TIP3   OH248114   5.693   5.867   2.417  0.3201  0.1544 -0.0795
 8900TIP3    H148115   5.653   5.817   2.488  0.6366 -0.2023 -0.1533
 8900TIP3    H248116   5.692   5.807   2.342  0.8525  0.2005 -0.1218
 8901TIP3   OH248117   1.170   1.902  16.705 -0.1589  0.4857 -0.1455
 8901TIP3    H148118   1.162   1.915  16.611 -0.7213 -0.8311 -0.3107
 8901TIP3    H248119   1.210   1.982  16.738 -0.7686  1.3230 -1.3852
 8902TIP3   OH248120   1.273   6.657  15.827  0.1089 -0.4878  0.5176
 8902TIP3    H148121   1.219   6.593  15.782  0.6436 -1.1768  0.8455
 8902TIP3    H248122   1.347   6.607  15.862  0.5338  0.2993  0.7810
 8903TIP3   OH248123   6.143   4.138   1.311 -0.3691 -0.2990 -0.2134
 8903TIP3    H148124   6.083   4.121   1.239 -2.6984 -0.9906  1.7449
 8903TIP3    H248125   6.109   4.084   1.383  1.3999  0.8948  1.6198
 8904TIP3   OH248126   3.352   1.245  10.948  0.3997  0.0233  0.1594
 8904TIP3    H148127   3.330   1.156  10.977  2.4365 -0.9695 -1.0794
 8904TIP3    H248128   3.311   1.253  10.862 -0.8800  0.8089  0.8244
 8905TIP3   OH248129   2.372   3.693   3.074  0.1863 -0.3632  0.0508
 8905TIP3    H148130   2.307   3.742   3.125  0.4702  0.6417 -0.5244
 8905TIP3    H248131   2.412   3.634   3.137  0.5386  0.8559  1.0136
 8906TIP3   OH248132   4.440   4.171   0.242  0.6197 -0.1409 -0.1829
 8906TIP3    H148133   4.392   4.089   0.232  1.1488 -0.4635 -0.1123
 8906TIP3    H248134   4.380   4.228   0.290  0.6391 -0.8254  0.6755
 8907TIP3   OH248135   0.245   3.688  16.959 -0.2614  0.3608  0.5118
 8907TIP3    H148136   0.326   3.709  17.006  0.0748  0.6699 -0.1852
 8907TIP3    H248137   0.189   3.763  16.974  0.9517  1.8854 -2.0023
 8908TIP3   OH248138   2.492   1.934  15.224 -0.3127 -0.4895  0.2364
 8908TIP3    H148139   2.543   1.965  15.299 -1.4647  0.9446  0.4853
 8908TIP3    H248140   2.557   1.911  15.158  0.7375 -1.8961  1.6754
 8909TIP3   OH248141   2.581   1.608   5.260  0.1211 -0.1894 -0.5960
 8909TIP3    H148142   2.663   1.570   5.228  0.4994  0.2235 -0.1278
 8909TIP3    H248143   2.563   1.562   5.342  1.7177  2.0440  1.1199
 8910TIP3   OH248144   0.678   1.656  11.084 -0.1731  0.0918  0.1426
 8910TIP3    H148145   0.683   1.737  11.134  0.1008 -0.1741  0.5590
 8910TIP3    H248146   0.768   1.623  11.082 -0.2857 -0.2157  0.0017
 8911TIP3   OH248147   5.137   0.967   5.626  0.5835  0.3819 -0.5072
 8911TIP3    H148148   5.188   0.912   5.567  2.4049  1.7713 -0.3017
 8911TIP3    H248149   5.071   1.007   5.570  0.8563 -0.0487 -1.1506
 8912TIP3   OH248150   5.107   5.607  13.423  0.2495  0.4112  0.3798
 8912TIP3    H148151   5.117   5.614  13.518 -0.0136  0.1194  0.4282
 8912TIP3    H248152   5.068   5.521  13.409  2.3579 -0.5408 -0.1406
 8913TIP3   OH248153   6.666   5.774  12.471 -0.4119  0.7757  0.6976
 8913TIP3    H148154   6.614   5.831  12.415 -0.5045  0.0299  0.0224
 8913TIP3    H248155   6.649   5.686  12.439  2.4025  0.5789 -0.5634
 8914TIP3   OH248156   0.439   4.487   3.090 -0.3564  0.2261  0.3519
 8914TIP3    H148157   0.532   4.471   3.105 -0.3085  0.4785  0.3294
 8914TIP3    H248158   0.418   4.436   3.011 -0.4714 -0.6260  0.9193
 8915TIP3   OH248159   0.237   4.033   1.301  0.0615  0.0298 -0.1774
 8915TIP3    H148160   0.160   4.084   1.325  0.4830  1.1267 -1.0811
 8915TIP3    H248161   0.275   4.008   1.385  1.0021  2.9935  0.4067
 8916TIP3   OH248162   6.205   6.749   4.946 -0.6680 -0.3189 -0.4934
 8916TIP3    H148163   6.184   6.810   4.875 -1.8100 -0.8997 -0.6797
 8916TIP3    H248164   6.122   6.737   4.993 -0.3626 -1.3768 -0.1866
 8917TIP3   OH248165   0.603   5.532   0.779  0.0139  0.1116  0.1719
 8917TIP3    H148166   0.649   5.599   0.829  2.1964 -0.5691 -0.7909
 8917TIP3    H248167   0.526   5.510   0.832 -1.1181  3.6893  0.2613
 8918TIP3   OH248168   2.639   0.795   4.322  0.2747 -0.1776 -0.1418
 8918TIP3    H148169   2.727   0.757   4.318 -0.1891 -1.6140  1.9512
 8918TIP3    H248170   2.609   0.797   4.231  1.9180 -0.9804 -0.7283
 8919TIP3   OH248171   4.026   5.890   0.401 -0.7908 -0.4122  0.1336
 8919TIP3    H148172   3.967   5.965   0.398 -1.2248 -0.7221  0.6621
 8919TIP3    H248173   4.011   5.844   0.319 -0.6567 -0.0212 -0.1124
 8920TIP3   OH248174   4.878   3.691  12.362 -0.0387 -0.4305  0.2815
 8920TIP3    H148175   4.911   3.651  12.443 -1.4385  0.1189  1.1764
 8920TIP3    H248176   4.809   3.632  12.333  1.0952 -1.1319 -1.0874
 8921TIP3   OH248177   2.279   2.955   3.103 -0.9592  0.0465 -0.0041
 8921TIP3    H148178   2.320   2.875   3.070 -1.3818 -0.2334  0.1451
 8921TIP3    H248179   2.352   3.006   3.140 -0.7413 -0.4299  0.2286
 8922TIP3   OH248180   4.816   4.651  14.283  0.1085  0.2149  0.0292
 8922TIP3    H148181   4.733   4.622  14.245  0.0337 -0.0217  0.3696
 8922TIP3    H248182   4.822   4.743  14.258  0.4380 -0.1297 -1.2148
 8923TIP3   OH248183   1.720   6.655  12.805  0.0596 -0.8716  0.0845
 8923TIP3    H148184   1.812   6.645  12.781 -0.3816 -1.4427 -1.4786
 8923TIP3    H248185   1.690   6.732  12.756  0.0763  0.2767  1.8098
 8924TIP3   OH248186   0.498   6.087  14.286  0.6435  0.2707 -0.0683
 8924TIP3    H148187   0.575   6.083  14.230  0.4628  0.4447 -0.3307
 8924TIP3    H248188   0.449   6.163  14.255 -1.6380 -1.9916 -2.5612
 8925TIP3   OH248189   3.508   5.053  13.707 -0.1382  0.4864  0.0659
 8925TIP3    H148190   3.597   5.035  13.739 -0.1653  0.1611 -0.0338
 8925TIP3    H248191   3.499   4.996  13.631 -0.7969 -0.2459  0.6751
 8926TIP3   OH248192   3.520   1.264  11.856  0.9192  0.5730  0.3776
 8926TIP3    H148193   3.458   1.217  11.912 -1.2065  2.1867 -0.4558
 8926TIP3    H248194   3.484   1.255  11.768  2.4336  0.7623 -0.2773
 8927TIP3   OH248195   5.445   4.574  15.724 -0.2299 -0.3262 -0.4925
 8927TIP3    H148196   5.533   4.597  15.755 -0.5245  3.9223 -2.1128
 8927TIP3    H248197   5.386   4.624  15.781 -1.4014 -0.5920 -1.4312
 8928TIP3   OH248198   3.981   1.517  12.213 -0.2668 -0.2104  0.2139
 8928TIP3    H148199   3.991   1.530  12.307  0.5640  0.5186  0.0401
 8928TIP3    H248200   3.888   1.498  12.201 -0.5240  0.4315  1.1030
 8929TIP3   OH248201   2.858   1.607   2.896 -0.1525  0.0439 -0.8391
 8929TIP3    H148202   2.769   1.631   2.871 -1.4138 -0.4831  2.5445
 8929TIP3    H248203   2.854   1.511   2.906  0.7677  0.0276 -0.5729
 8930TIP3   OH248204   4.242   1.288   5.505 -0.2093  0.5266  0.5235
 8930TIP3    H148205   4.327   1.306   5.464  0.0144 -0.6226  0.4549
 8930TIP3    H248206   4.263   1.249   5.590 -0.6434 -1.1891 -0.1273
 8931TIP3   OH248207   5.191   0.863  11.978 -0.3060  0.3372 -0.5435
 8931TIP3    H148208   5.182   0.839  11.886  2.1223  1.0072 -1.0369
 8931TIP3    H248209   5.144   0.795  12.025  2.7046 -3.1897 -2.0552
 8932TIP3   OH248210   2.490   1.968   1.331 -0.6623 -0.6615  0.4514
 8932TIP3    H148211   2.411   1.975   1.384 -0.6942  1.3420  0.2137
 8932TIP3    H248212   2.469   2.015   1.251  0.5984 -0.5750  0.1585
 8933TIP3   OH248213   6.184   6.573   1.801 -0.8691 -0.3037 -0.5429
 8933TIP3    H148214   6.134   6.530   1.732  1.2380 -1.5921 -1.3870
 8933TIP3    H248215   6.275   6.568   1.771  0.0398 -0.2220  1.9613
 8934TIP3   OH248216   5.110   4.768  14.055  0.1881 -0.3495 -0.2023
 8934TIP3    H148217   5.118   4.677  14.030 -2.1445 -1.8976  3.6811
 8934TIP3    H248218   5.031   4.799  14.010 -1.4643 -1.7031  1.5997
 8935TIP3   OH248219   4.695   5.338  10.966 -0.2190  0.0990  0.0900
 8935TIP3    H148220   4.779   5.368  10.933 -0.3342 -0.8987 -1.2208
 8935TIP3    H248221   4.663   5.409  11.021  1.0638  0.8593 -0.1176
 8936TIP3   OH248222   3.678   3.529   0.428  0.3653 -0.1797 -0.0425
 8936TIP3    H148223   3.705   3.612   0.468 -1.2298  0.4691 -0.2539
 8936TIP3    H248224   3.700   3.462   0.494  0.2134  0.5825  0.8052
 8937TIP3   OH248225   5.370   0.549  13.247 -0.0461  0.3304  0.3125
 8937TIP3    H148226   5.396   0.614  13.181  0.7640 -0.6928 -0.4310
 8937TIP3    H248227   5.274   0.547  13.242  0.0048 -0.5249 -1.7137
 8938TIP3   OH248228   1.487   2.027   1.496 -0.0539 -0.0107  0.2790
 8938TIP3    H148229   1.430   1.992   1.428  0.0094  1.2857 -0.4629
 8938TIP3    H248230   1.485   2.122   1.483 -0.9885  0.3924  2.8339
 8939TIP3   OH248231   0.498   4.671   5.703  0.2437 -1.0728 -0.1240
 8939TIP3    H148232   0.472   4.740   5.765 -0.2061 -1.0611 -0.3154
 8939TIP3    H248233   0.449   4.594   5.731  0.0769 -1.0810 -0.4305
 8940TIP3   OH248234   5.256   6.094  16.199 -0.3755  0.1671 -0.2069
 8940TIP3    H148235   5.299   6.087  16.284  0.8214  0.8690 -0.7204
 8940TIP3    H248236   5.169   6.056  16.212  0.6517 -1.9990  0.6704
 8941TIP3   OH248237   1.661   1.987   1.146 -0.2102  0.1412  0.7267
 8941TIP3    H148238   1.691   1.898   1.163  0.9147  0.1728 -0.9057
 8941TIP3    H248239   1.578   1.994   1.194  0.0566 -1.5193  1.4823
 8942TIP3   OH248240   2.906   6.766  13.315 -0.4611 -0.3587  0.4210
 8942TIP3    H148241   2.823   6.788  13.357 -0.8870 -0.3252 -0.4186
 8942TIP3    H248242   2.898   6.674  13.292 -0.6882 -0.0953 -0.5951
 8943TIP3   OH248243   5.226   0.999  14.090 -0.3281  0.5863  0.4541
 8943TIP3    H148244   5.296   0.938  14.069  0.6370  1.5499  0.7693
 8943TIP3    H248245   5.149   0.944  14.106  1.2257 -0.8202  3.8910
 8944TIP3   OH248246   2.978   3.536   3.130 -0.7504 -0.3073 -0.1444
 8944TIP3    H148247   2.941   3.480   3.199 -1.0434  1.1456  0.9276
 8944TIP3    H248248   2.904   3.559   3.075 -0.8159 -0.1751 -0.0023
 8945TIP3   OH248249   5.134   6.698  11.064 -0.3504  0.4665 -0.4055
 8945TIP3    H148250   5.229   6.692  11.058 -0.3098  2.0506 -2.3790
 8945TIP3    H248251   5.118   6.778  11.113 -0.6847  0.1449  0.0217
 8946TIP3   OH248252   3.616   5.397  15.153  0.3904  0.1149  0.3350
 8946TIP3    H148253   3.522   5.397  15.140  0.2006 -1.5557  1.3700
 8946TIP3    H248254   3.653   5.407  15.066 -0.7721 -1.8043 -0.4508
 8947TIP3   OH248255   2.693   2.686   0.737  0.6543 -0.2438  0.0746
 8947TIP3    H148256   2.684   2.594   0.761  0.3715 -0.4828 -0.9241
 8947TIP3    H248257   2.686   2.687   0.642 -1.1781  1.0262  0.1806
 8948TIP3   OH248258   5.254   5.145  13.166  0.5852  0.1451 -0.1967
 8948TIP3    H148259   5.326   5.207  13.181  1.9840 -1.6790  1.1339
 8948TIP3    H248260   5.275   5.070  13.222 -2.6685 -0.2697  0.6535
 8949TIP3   OH248261   4.169   1.130   4.747  0.7741 -0.1518  0.4301
 8949TIP3    H148262   4.167   1.042   4.784 -2.0502  0.4995  2.0961
 8949TIP3    H248263   4.243   1.173   4.789 -2.0861  0.4714  5.5995
 8950TIP3   OH248264   1.423   4.713   0.558  0.1942  0.3079  0.5731
 8950TIP3    H148265   1.431   4.673   0.471 -0.6505  0.8014  0.2526
 8950TIP3    H248266   1.330   4.735   0.565  0.1418 -0.2586  1.8494
 8951TIP3   OH248267   4.556   0.917  16.067 -1.0302  0.8431 -0.5734
 8951TIP3    H148268   4.598   0.845  16.114  0.8949  1.3532 -1.4178
 8951TIP3    H248269   4.476   0.879  16.031  0.7590 -1.4044 -2.4447
 8952TIP3   OH248270   2.781   5.722   2.023 -0.1685  0.0542  0.6226
 8952TIP3    H148271   2.856   5.698   1.969 -0.2831  1.5058 -0.2108
 8952TIP3    H248272   2.809   5.702   2.112  1.0941  0.3070  0.3007
 8953TIP3   OH248273   1.228   4.594  14.117  0.2068 -0.2161 -0.1960
 8953TIP3    H148274   1.311   4.551  14.094  0.3870 -0.3711  0.6710
 8953TIP3    H248275   1.255   4.672  14.166 -0.1479 -0.6802  0.7734
 8954TIP3   OH248276   2.158   0.827   5.093  0.5033 -0.5043 -0.4402
 8954TIP3    H148277   2.250   0.799   5.087  0.8860 -0.0104  2.1139
 8954TIP3    H248278   2.162   0.913   5.135 -1.1991 -1.0329  0.8987
 8955TIP3   OH248279   0.232   0.938   4.642  0.4682  0.0506  0.3185
 8955TIP3    H148280   0.166   0.871   4.657  0.2029 -0.9843 -4.1101
 8955TIP3    H248281   0.193   1.019   4.676 -0.0759 -1.5032  3.8421
 8956TIP3   OH248282   1.907   6.070   4.143 -0.4363  0.2298  0.2518
 8956TIP3    H148283   1.818   6.052   4.173 -0.4716  1.9015  1.2607
 8956TIP3    H248284   1.903   6.054   4.048 -2.2741  1.8234 -0.0117
 8957TIP3   OH248285   0.798   2.474   2.028 -0.3739 -0.0169  0.2701
 8957TIP3    H148286   0.853   2.433   2.094 -0.0726 -0.6467 -0.3579
 8957TIP3    H248287   0.713   2.485   2.072 -0.1595 -0.3517  0.7872
 8958TIP3   OH248288   6.164   3.263   5.341 -0.7143  0.0216  0.4783
 8958TIP3    H148289   6.259   3.270   5.350 -0.8645  0.9691  1.4298
 8958TIP3    H248290   6.129   3.329   5.400 -1.9725 -0.2304  0.0430
 8959TIP3   OH248291   4.832   0.435   4.662  0.4084 -0.8336  0.4485
 8959TIP3    H148292   4.852   0.354   4.615 -0.2632 -0.4863 -0.4560
 8959TIP3    H248293   4.773   0.407   4.732 -0.4710 -1.0171 -0.3509
 8960TIP3   OH248294   0.092   3.177  14.381  0.2839  0.6113 -0.2203
 8960TIP3    H148295   0.167   3.157  14.437 -0.0346 -1.7063 -0.5287
 8960TIP3    H248296   0.016   3.150  14.432  0.0273 -2.2401 -1.9281
 8961TIP3   OH248297   6.261   6.289   5.092 -0.1058 -0.1873 -0.1191
 8961TIP3    H148298   6.233   6.264   5.180  1.2322 -0.3509  0.2755
 8961TIP3    H248299   6.352   6.261   5.087  0.0003  0.3376 -1.3640
 8962TIP3   OH248300   5.579   5.805  15.811  0.0400 -0.0266 -0.0897
 8962TIP3    H148301   5.566   5.770  15.723 -2.6692 -0.5066  0.4197
 8962TIP3    H248302   5.515   5.876  15.819  2.6909  2.5292  0.3054
 8963TIP3   OH248303   5.947   2.395  13.750  0.2557  0.4182 -0.3088
 8963TIP3    H148304   5.902   2.327  13.801 -1.3158  0.9642 -0.9299
 8963TIP3    H248305   6.038   2.388  13.778 -0.3250 -0.1746  1.6189
 8964TIP3   OH248306   6.432   5.903   2.753 -0.2191 -0.0353 -0.5980
 8964TIP3    H148307   6.526   5.914   2.765 -0.3507  0.6140 -0.0964
 8964TIP3    H248308   6.399   5.884   2.841 -0.4186 -1.4017 -0.9477
 8965TIP3   OH248309   5.541   4.958   1.887  0.2164 -1.0202 -0.1616
 8965TIP3    H148310   5.582   4.989   1.807 -1.4282  0.1431 -0.5907
 8965TIP3    H248311   5.607   4.971   1.955  0.6200  0.7093 -0.8464
 8966TIP3   OH248312   4.215   4.109  11.585  0.1399 -0.3415  0.3287
 8966TIP3    H148313   4.302   4.071  11.577 -0.9382 -2.7362 -1.0509
 8966TIP3    H248314   4.211   4.174  11.514  0.7208 -0.3187  0.3096
 8967TIP3   OH248315   2.689   3.529  12.655  0.1707 -0.1545  0.0029
 8967TIP3    H148316   2.714   3.576  12.576 -1.9879  0.0316 -0.6339
 8967TIP3    H248317   2.635   3.592  12.703  0.5454 -0.6506  1.1020
 8968TIP3   OH248318   1.776   0.993   6.455 -0.0523  0.0182  0.1560
 8968TIP3    H148319   1.865   1.017   6.432 -0.8218  0.5481 -2.5731
 8968TIP3    H248320   1.786   0.925   6.522  2.4836 -1.2867 -1.3879
 8969TIP3   OH248321   0.591   1.359  12.050 -0.4505 -0.4375 -0.5865
 8969TIP3    H148322   0.574   1.266  12.037 -0.3122 -0.5734  0.1446
 8969TIP3    H248323   0.684   1.365  12.071 -0.6537 -0.2526  0.3236
 8970TIP3   OH248324   0.558   3.441  12.703  0.0888  0.2579 -0.0877
 8970TIP3    H148325   0.566   3.351  12.671 -1.3913 -0.7545  2.0901
 8970TIP3    H248326   0.645   3.464  12.734  0.7110 -0.0233 -1.5826
 8971TIP3   OH248327   5.008   2.646   2.845 -0.4325 -0.5574 -0.1605
 8971TIP3    H148328   5.062   2.571   2.818 -0.2822 -0.3065 -0.5794
 8971TIP3    H248329   5.056   2.685   2.918  0.5682  0.3305 -1.2426
 8972TIP3   OH248330   4.159   5.920   2.907 -0.6492  0.5366  0.6943
 8972TIP3    H148331   4.186   5.828   2.909 -0.1471  0.6967  2.4210
 8972TIP3    H248332   4.184   5.950   2.819 -1.0291 -1.0155  0.0093
 8973TIP3   OH248333   2.212   4.764  13.454 -0.3287  0.1516  0.3781
 8973TIP3    H148334   2.149   4.836  13.443  0.1122  0.4265 -0.4215
 8973TIP3    H248335   2.196   4.707  13.379  1.9149  1.4236 -1.1919
 8974TIP3   OH248336   2.401   2.475   5.723 -0.4432 -0.6781 -0.0012
 8974TIP3    H148337   2.439   2.413   5.660  0.8295  0.0274  0.0384
 8974TIP3    H248338   2.328   2.515   5.675 -0.2455 -1.0111 -0.5992
 8975TIP3   OH248339   1.663   3.052   2.382 -0.2645 -0.0656 -0.0138
 8975TIP3    H148340   1.691   3.122   2.323 -2.0629  0.8883  0.1898
 8975TIP3    H248341   1.726   3.054   2.454  1.1006 -0.2762 -1.1767
 8976TIP3   OH248342   4.428   1.573   3.201  0.2799  0.5407  0.4336
 8976TIP3    H148343   4.460   1.587   3.290 -0.0603  1.9035  0.3627
 8976TIP3    H248344   4.454   1.483   3.180 -0.1927 -0.0376  2.1404
 8977TIP3   OH248345   6.096   3.863  16.318  1.0158  0.5635 -0.5085
 8977TIP3    H148346   6.170   3.921  16.335  0.7811  0.0625  2.9011
 8977TIP3    H248347   6.132   3.796  16.259  3.4575  0.1256  1.3116
 8978TIP3   OH248348   2.619   0.545   2.913  0.4880 -0.6114  0.2458
 8978TIP3    H148349   2.558   0.610   2.946 -0.1282  0.0656 -2.0805
 8978TIP3    H248350   2.662   0.510   2.992 -1.1972  0.5494  1.7451
 8979TIP3   OH248351   5.626   5.543  15.337 -0.1897 -0.2096 -0.1086
 8979TIP3    H148352   5.616   5.459  15.381  0.3763 -0.2092  0.0281
 8979TIP3    H248353   5.720   5.559  15.337 -0.4399  2.1727  3.1685
 8980TIP3   OH248354   5.343   2.900   6.355  0.2448 -0.0074  0.4109
 8980TIP3    H148355   5.277   2.945   6.408  0.4112  0.2340  0.4138
 8980TIP3    H248356   5.404   2.863   6.419  0.2154 -0.0741  0.4008
 8981TIP3   OH248357   1.133   1.046  13.405  0.1683 -0.8567  0.2704
 8981TIP3    H148358   1.047   1.063  13.444  0.0465 -0.1968 -0.2573
 8981TIP3    H248359   1.140   1.111  13.334  1.1036 -0.9017  0.3149
 8982TIP3   OH248360   6.583   2.024  14.291 -0.8067 -0.1442 -0.1159
 8982TIP3    H148361   6.560   2.108  14.331 -2.2384 -0.8394  0.6026
 8982TIP3    H248362   6.526   2.018  14.214  0.1743  0.0858 -0.8666
 8983TIP3   OH248363   0.714   2.529  16.619  0.3352 -0.2999  0.2994
 8983TIP3    H148364   0.800   2.566  16.640  0.3640 -0.3426  0.2606
 8983TIP3    H248365   0.657   2.604  16.606 -0.0204 -0.2792  1.8667
 8984TIP3   OH248366   4.789   4.583   5.376 -1.1549 -0.3271 -0.4190
 8984TIP3    H148367   4.866   4.562   5.323 -0.3165  1.2589  0.0954
 8984TIP3    H248368   4.761   4.499   5.412  2.0279 -0.6891  1.6221
 8985TIP3   OH248369   5.389   3.672  16.908 -0.1799 -0.3340  0.1650
 8985TIP3    H148370   5.478   3.638  16.902  0.3287  0.9282  0.2898
 8985TIP3    H248371   5.350   3.624  16.981  0.8882  0.1187  1.0667
 8986TIP3   OH248372   4.498   4.756  16.303  0.5978  0.1171 -0.0979
 8986TIP3    H148373   4.440   4.732  16.375  0.4314 -0.9267 -0.5629
 8986TIP3    H248374   4.583   4.720  16.329  0.8144  0.7677  0.1141
 8987TIP3   OH248375   4.566   3.178   4.325 -0.4347  0.0502  0.1160
 8987TIP3    H148376   4.535   3.088   4.334 -2.2129  0.5853 -0.3474
 8987TIP3    H248377   4.519   3.227   4.392  0.7005  0.6192  0.5284
 8988TIP3   OH248378   2.117   6.165  13.492  0.0707  0.0301  0.2229
 8988TIP3    H148379   2.169   6.191  13.416  1.8605  1.2224  1.7804
 8988TIP3    H248380   2.176   6.174  13.566 -1.4713 -1.5738  1.7429
 8989TIP3   OH248381   3.803   6.069   0.426 -0.2256 -0.4117  0.8439
 8989TIP3    H148382   3.787   6.089   0.334  1.5187  0.2267  0.6353
 8989TIP3    H248383   3.718   6.042   0.460 -0.8032 -1.1772 -1.0667
 8990TIP3   OH248384   1.012   5.707  14.177  0.0162  0.2266 -0.3572
 8990TIP3    H148385   0.961   5.758  14.114  0.4882  1.4622  0.2354
 8990TIP3    H248386   0.980   5.736  14.263  0.9991  0.2605  0.0011
 8991TIP3   OH248387   3.066   1.983   2.651  0.4958  0.3276 -0.0693
 8991TIP3    H148388   3.035   1.928   2.722  0.8903 -1.4620 -1.2130
 8991TIP3    H248389   3.156   2.006   2.676  0.9109 -0.9484 -0.3254
 8992TIP3   OH248390   2.371   3.735  11.459 -0.6063  0.5515  0.3958
 8992TIP3    H148391   2.384   3.814  11.511 -1.5423  2.1801 -1.6989
 8992TIP3    H248392   2.340   3.767  11.375 -0.4060 -2.0436 -0.7450
 8993TIP3   OH248393   0.790   5.443  13.844 -0.1662 -0.6807 -0.3017
 8993TIP3    H148394   0.858   5.450  13.776 -0.7008 -0.4334 -0.8179
 8993TIP3    H248395   0.727   5.512  13.822  0.6742  0.7975  1.6365
 8994TIP3   OH248396   3.923   1.655  13.642  0.1650  0.0150 -0.1652
 8994TIP3    H148397   3.924   1.571  13.687 -2.5419 -0.0413 -0.0416
 8994TIP3    H248398   3.969   1.715  13.700  1.0927 -1.0980  0.2874
 8995TIP3   OH248399   4.511   2.530   4.758 -0.0533  0.4116 -0.6522
 8995TIP3    H148400   4.603   2.553   4.757  0.2813 -0.8102 -0.0674
 8995TIP3    H248401   4.493   2.502   4.668  1.2411 -3.1660  0.0160
 8996TIP3   OH248402   3.521   3.549   1.222 -0.1336 -0.1343  0.5098
 8996TIP3    H148403   3.476   3.634   1.219 -0.6959 -0.4652 -1.1936
 8996TIP3    H248404   3.492   3.503   1.143  2.2762 -0.8332 -0.0502
 8997TIP3   OH248405   0.124   4.662   1.557 -0.0978 -0.2200 -0.1577
 8997TIP3    H148406   0.119   4.754   1.531 -2.3028 -0.3884 -0.4742
 8997TIP3    H248407   0.034   4.637   1.574  0.3847 -2.5315 -0.7453
 8998TIP3   OH248408   2.575   6.046  15.375 -0.3562 -0.1449  0.5204
 8998TIP3    H148409   2.514   6.119  15.371 -1.9925 -1.3359  1.8589
 8998TIP3    H248410   2.552   5.990  15.301  0.8145  0.5954 -0.4334
 8999TIP3   OH248411   4.491   5.247   0.507 -0.1022 -0.0419 -0.0678
 8999TIP3    H148412   4.498   5.242   0.602 -1.3214  1.7475  0.1783
 8999TIP3    H248413   4.398   5.231   0.489  0.1991 -0.8618 -1.0173
 9000TIP3   OH248414   0.207   1.379  13.794  0.3215 -0.2455  0.5499
 9000TIP3    H148415   0.130   1.324  13.781  0.0044  0.4481 -0.5927
 9000TIP3    H248416   0.233   1.362  13.885  0.5117 -2.6298  0.1248
 9001TIP3   OH248417   4.536   3.066  15.792  0.2865  0.2312  0.1217
 9001TIP3    H148418   4.571   2.977  15.793  1.9494  0.8656  0.6961
 9001TIP3    H248419   4.560   3.101  15.706 -1.2215 -0.1681 -0.4933
 9002TIP3   OH248420   2.918   4.339  11.617 -0.7213 -0.4245  0.2625
 9002TIP3    H148421   2.844   4.397  11.597 -0.6093 -0.0191  0.9951
 9002TIP3    H248422   2.937   4.355  11.709 -0.2473 -1.1388  0.2970
 9003TIP3   OH248423   4.439   4.942  14.468  0.0652  0.0728  0.3958
 9003TIP3    H148424   4.440   5.000  14.544 -0.9188  0.5212  0.0816
 9003TIP3    H248425   4.448   5.001  14.393  0.8463 -0.3493  0.1484
 9004TIP3   OH248426   2.236   2.847   2.540  0.0238 -0.0581  0.0644
 9004TIP3    H148427   2.158   2.858   2.595 -0.1998  0.6448 -0.3782
 9004TIP3    H248428   2.216   2.895   2.460  0.8178 -0.0833 -0.1583
 9005TIP3   OH248429   0.637   6.189  15.067  0.2587  0.0262 -0.0552
 9005TIP3    H148430   0.577   6.119  15.041  0.9185 -0.8718  0.7810
 9005TIP3    H248431   0.685   6.153  15.141  2.7764  0.2064 -1.4825
 9006TIP3   OH248432   0.381   6.000  13.066  0.3967 -0.2416  0.0253
 9006TIP3    H148433   0.315   5.955  13.013  0.1306 -1.0521  0.9981
 9006TIP3    H248434   0.405   5.936  13.134  1.5141  0.3668  0.2432
 9007TIP3   OH248435   3.076   5.707  13.874 -0.2633  0.6967 -0.0428
 9007TIP3    H148436   3.168   5.732  13.865 -0.1580 -0.1754 -2.1517
 9007TIP3    H248437   3.028   5.786  13.849 -0.0535  0.6772 -0.5215
 9008TIP3   OH248438   2.731   6.656   2.620  0.1283 -0.7793 -0.1413
 9008TIP3    H148439   2.730   6.705   2.702 -0.3453 -0.1628 -0.5133
 9008TIP3    H248440   2.808   6.600   2.627 -0.5337 -1.5678  1.2082
 9009TIP3   OH248441   6.767   0.471  13.634 -0.0933 -0.0160 -0.4718
 9009TIP3    H148442   6.723   0.530  13.572 -0.5521 -0.7265 -0.8574
 9009TIP3    H248443   6.857   0.466  13.603 -0.4863 -0.9316 -1.5635
 9010TIP3   OH248444   1.893   6.161   3.114  0.6347 -0.2818 -0.7278
 9010TIP3    H148445   1.851   6.087   3.158 -1.1567  0.6362 -0.8122
 9010TIP3    H248446   1.912   6.223   3.184  0.4038 -0.0175 -0.9026
 9011TIP3   OH248447   2.282   0.365   2.817 -0.2065 -0.6834 -0.0154
 9011TIP3    H148448   2.258   0.339   2.728  1.6070  0.1458 -0.7959
 9011TIP3    H248449   2.372   0.336   2.828  0.1511  0.6689  0.9510
 9012TIP3   OH248450   3.349   2.017  11.065  0.3259  0.7075  0.1631
 9012TIP3    H148451   3.438   2.024  11.100  0.4711  2.4932 -0.4743
 9012TIP3    H248452   3.352   2.064  10.981 -1.3273  1.2100  0.3411
 9013TIP3   OH248453   0.053   6.644   0.126  0.4948 -0.4119 -0.4359
 9013TIP3    H148454   0.069   6.668   0.218  1.2757 -2.5681  0.0413
 9013TIP3    H248455  -0.042   6.655   0.115  0.0447 -2.0743  1.2694
 9014TIP3   OH248456   4.362   4.511   5.532  0.2907 -0.0518  0.6264
 9014TIP3    H148457   4.330   4.512   5.622  0.0947 -2.7600  0.6627
 9014TIP3    H248458   4.286   4.489   5.480  0.4335  1.3671 -0.2306
 9015TIP3   OH248459   4.488   0.002  13.939  0.0584 -0.1694 -0.5565
 9015TIP3    H148460   4.442  -0.078  13.966  0.4323 -0.1049  0.3227
 9015TIP3    H248461   4.431   0.073  13.968 -1.2098 -0.0834 -3.0266
 9016TIP3   OH248462   1.617   1.020   2.140 -0.3337 -0.7357  0.0437
 9016TIP3    H148463   1.678   1.044   2.210  0.2097 -2.7706  0.3433
 9016TIP3    H248464   1.606   0.925   2.150  0.1315 -1.1760 -2.9313
 9017TIP3   OH248465   0.870   1.913  15.742  0.1629  0.1444  0.6702
 9017TIP3    H148466   0.902   1.909  15.832  1.8177  0.2632  0.1304
 9017TIP3    H248467   0.838   1.824  15.724  1.0329 -0.2414  0.9729
 9018TIP3   OH248468   4.653   2.888   1.842  0.1569 -0.0307  0.8388
 9018TIP3    H148469   4.633   2.808   1.794  1.3387  1.1466 -1.8316
 9018TIP3    H248470   4.713   2.860   1.911  1.8842 -1.3065 -1.0609
 9019TIP3   OH248471   2.211   1.975   1.330  0.3386 -0.2242 -0.6980
 9019TIP3    H148472   2.186   2.041   1.265  0.5041  0.4051 -0.1392
 9019TIP3    H248473   2.169   2.005   1.411  1.3199 -0.2123 -0.1888
 9020TIP3   OH248474   1.831   2.961  16.248  0.0295 -0.1389 -0.1698
 9020TIP3    H148475   1.867   2.872  16.249  1.2908  0.3455  1.7478
 9020TIP3    H248476   1.769   2.963  16.321 -0.0332  0.5449 -0.2369
 9021TIP3   OH248477   2.485   5.509   1.614  0.1115 -0.4104 -0.3149
 9021TIP3    H148478   2.537   5.547   1.544  1.7424 -1.1274  0.4729
 9021TIP3    H248479   2.439   5.584   1.653 -0.3731  0.0726 -1.7306
 9022TIP3   OH248480   4.178   1.581  16.280  0.3265  0.2330 -0.4076
 9022TIP3    H148481   4.113   1.646  16.253 -1.0543 -0.7588  0.4508
 9022TIP3    H248482   4.140   1.497  16.254  1.3142 -0.3592  0.0419
 9023TIP3   OH248483   1.446   1.104  12.292 -0.5513 -0.5284 -0.5256
 9023TIP3    H148484   1.374   1.066  12.242 -1.0874  2.3620 -2.1447
 9023TIP3    H248485   1.421   1.195  12.307  2.3281  0.3586 -0.3196
 9024TIP3   OH248486   3.761   3.318  14.402 -0.1426  0.5264 -0.3054
 9024TIP3    H148487   3.675   3.358  14.391 -0.2269  0.1458 -1.1218
 9024TIP3    H248488   3.772   3.311  14.497 -0.4086  1.8424 -0.1582
 9025TIP3   OH248489   0.620   6.373  16.069 -0.0717  0.1063 -0.2108
 9025TIP3    H148490   0.651   6.345  15.982  0.7392  0.9774 -0.2186
 9025TIP3    H248491   0.662   6.313  16.130  0.9632  0.7282 -0.2887
 9026TIP3   OH248492   1.660   3.820   3.785 -0.2257  0.3116  0.0559
 9026TIP3    H148493   1.655   3.788   3.875  0.3035  1.6424  0.5816
 9026TIP3    H248494   1.572   3.808   3.750 -0.7984  1.0151  1.2016
 9027TIP3   OH248495   0.422   6.431   4.554 -0.1285 -0.1183 -0.2414
 9027TIP3    H148496   0.446   6.496   4.620 -0.7339  0.5411 -0.6506
 9027TIP3    H248497   0.407   6.350   4.604 -0.1475  0.2601  0.3725
 9028TIP3   OH248498   4.044   1.938   2.806  0.4102 -0.4779  0.3766
 9028TIP3    H148499   4.080   1.854   2.833  1.4160 -0.5907 -1.1764
 9028TIP3    H248500   4.104   1.969   2.738 -1.4822  0.1390 -1.1086
 9029TIP3   OH248501   3.296   3.827  11.118 -0.0375 -0.1766 -0.0006
 9029TIP3    H148502   3.386   3.847  11.145  0.1171  1.2212 -1.3602
 9029TIP3    H248503   3.247   3.820  11.200  0.6893  2.3101  0.7344
 9030TIP3   OH248504   6.460   1.709  12.737 -0.7968  0.5497  0.1840
 9030TIP3    H148505   6.534   1.768  12.719 -0.7930 -0.0518 -1.9988
 9030TIP3    H248506   6.499   1.622  12.742 -1.0835  0.4671  1.3404
 9031TIP3   OH248507   2.018   4.940  14.424 -0.3183  0.0432  0.2676
 9031TIP3    H148508   2.094   4.946  14.366  0.9098 -2.3513  1.4703
 9031TIP3    H248509   2.007   4.846  14.439 -2.5470  0.4347  1.4022
 9032TIP3   OH248510   1.930   5.266  14.487  0.5745  0.3443 -0.4266
 9032TIP3    H148511   1.975   5.350  14.491 -0.9500  1.1924 -0.3379
 9032TIP3    H248512   1.837   5.288  14.488  0.0864 -1.4075  1.4877
 9033TIP3   OH248513   4.520   3.619   0.178 -0.8750  0.8178  0.0397
 9033TIP3    H148514   4.601   3.671   0.182 -1.2081  1.4193 -0.8238
 9033TIP3    H248515   4.522   3.579   0.091 -0.8509 -0.2645  0.5217
 9034TIP3   OH248516   0.899   6.690  14.410  0.5711  0.3641 -0.3402
 9034TIP3    H148517   0.873   6.722  14.324  1.4850  1.7304 -0.1476
 9034TIP3    H248518   0.995   6.698  14.411  0.5565  0.6313  0.8881
 9035TIP3   OH248519   6.619   6.453   4.929 -0.3320  0.3326  0.0083
 9035TIP3    H148520   6.527   6.473   4.947 -0.4295 -0.1545  0.0571
 9035TIP3    H248521   6.653   6.418   5.012 -0.5064 -0.9307 -0.4381
 9036TIP3   OH248522   1.191   1.424  16.405 -0.7359  0.4604 -0.1593
 9036TIP3    H148523   1.233   1.489  16.461  1.9148 -2.4913  1.6314
 9036TIP3    H248524   1.228   1.439  16.318  0.6426  0.7474  0.4509
 9037TIP3   OH248525   3.016   4.070  11.963 -0.0196  0.4660  0.3266
 9037TIP3    H148526   2.956   4.144  11.951 -1.0660 -0.3613  0.2676
 9037TIP3    H248527   3.098   4.099  11.924 -0.2534  1.7859  0.7637
 9038TIP3   OH248528   2.681   2.622  12.298 -0.3047 -0.1274 -0.0321
 9038TIP3    H148529   2.769   2.632  12.335 -1.5819  0.4776  3.2138
 9038TIP3    H248530   2.662   2.529  12.306 -0.3517 -0.0880  0.3512
 9039TIP3   OH248531   4.248   1.037  12.324 -0.0613  0.1335  0.0062
 9039TIP3    H148532   4.302   0.967  12.288 -0.3523 -0.0919  0.0075
 9039TIP3    H248533   4.271   1.114  12.273  0.9927  0.2724  0.6467
 9040TIP3   OH248534   1.535   5.180  15.496  0.2791  0.5059 -0.3774
 9040TIP3    H148535   1.601   5.248  15.482 -1.2688  2.1794  0.1242
 9040TIP3    H248536   1.452   5.225  15.487 -0.8176 -1.0275  1.3753
 9041TIP3   OH248537   4.143   5.266   4.400 -0.0552 -0.4546 -0.0787
 9041TIP3    H148538   4.173   5.357   4.392 -0.0820 -0.3985  0.4480
 9041TIP3    H248539   4.062   5.272   4.450  1.2414 -1.0014  2.2089
 9042TIP3   OH248540   4.086   5.992  13.466  0.4484  0.3214  0.1941
 9042TIP3    H148541   4.145   6.056  13.508  0.7966 -0.2791  0.6482
 9042TIP3    H248542   4.142   5.916  13.451  0.2042  0.3554 -0.9626
 9043TIP3   OH248543   6.431   4.973  12.775 -0.1406 -0.1564  0.0409
 9043TIP3    H148544   6.341   4.992  12.750 -0.3526 -0.4839  0.5314
 9043TIP3    H248545   6.457   4.901  12.718  0.2920  0.8554 -1.0639
 9044TIP3   OH248546   5.917   6.579  10.774 -0.2743 -0.2088  0.1144
 9044TIP3    H148547   5.875   6.640  10.713 -0.0313  1.8119  1.8556
 9044TIP3    H248548   5.860   6.502  10.773  0.2367 -0.7289 -3.3218
 9045TIP3   OH248549   6.001   3.822   0.179 -0.5905 -0.4444 -0.2458
 9045TIP3    H148550   6.014   3.753   0.113 -1.0767 -0.7846  0.0076
 9045TIP3    H248551   5.980   3.774   0.259  1.3916 -0.1160  0.5423
 9046TIP3   OH248552   2.657   5.270   5.100  0.0175  0.4569  0.1481
 9046TIP3    H148553   2.591   5.209   5.066  1.3136 -0.6209 -0.5120
 9046TIP3    H248554   2.737   5.219   5.105  0.6904  1.5665  1.5519
 9047TIP3   OH248555   4.781   5.518  16.702 -0.6654 -0.4325  0.2574
 9047TIP3    H148556   4.864   5.479  16.676 -0.1142  0.2678  0.9486
 9047TIP3    H248557   4.796   5.554  16.789 -1.0892  1.4851 -0.4121
 9048TIP3   OH248558   4.576   4.991   0.791  0.3290 -0.4508  0.4409
 9048TIP3    H148559   4.623   4.973   0.873  2.4107  2.0523 -0.0705
 9048TIP3    H248560   4.645   4.996   0.725 -1.0408  0.0629 -1.0100
 9049TIP3   OH248561   4.506   0.219   2.743  0.2026 -0.6564  0.0488
 9049TIP3    H148562   4.495   0.174   2.659  0.9441 -2.0597  0.6646
 9049TIP3    H248563   4.563   0.293   2.722 -1.2876  0.2509 -1.0417
 9050TIP3   OH248564   6.421   5.871   5.055 -0.2132 -0.0072 -0.0230
 9050TIP3    H148565   6.442   5.963   5.041  1.1787 -0.3437 -0.2282
 9050TIP3    H248566   6.503   5.831   5.083 -0.8372 -1.1613  0.2193
 9051TIP3   OH248567   0.511   4.526   2.293  0.1046 -0.1281 -0.0409
 9051TIP3    H148568   0.473   4.608   2.324  2.2511  0.9888 -0.2109
 9051TIP3    H248569   0.574   4.502   2.361 -1.7956 -2.7283  0.9695
 9052TIP3   OH248570   0.337   5.312  14.557 -0.3064 -0.2062  0.7936
 9052TIP3    H148571   0.265   5.305  14.620  0.6442 -0.0419  1.9446
 9052TIP3    H248572   0.390   5.234  14.573  0.7348  0.5731  1.2497
 9053TIP3   OH248573   0.933   6.212  11.025  0.4165  0.1551 -0.3883
 9053TIP3    H148574   1.007   6.176  11.075  0.9427 -0.6087 -1.6579
 9053TIP3    H248575   0.860   6.152  11.044  0.3241  0.4685  0.2654
 9054TIP3   OH248576   4.488   0.381  11.331  0.0416 -0.0051  0.1530
 9054TIP3    H148577   4.394   0.382  11.344 -0.0948  0.8209 -0.8029
 9054TIP3    H248578   4.499   0.361  11.237  0.8677 -1.9366  0.6005
 9055TIP3   OH248579   6.054   5.630  11.537  0.0896  0.5952  0.1283
 9055TIP3    H148580   6.092   5.544  11.555 -2.3140 -0.4917  0.3959
 9055TIP3    H248581   6.104   5.663  11.462  1.0912 -1.0107  0.0387
 9056TIP3   OH248582   5.664   5.159   6.184  0.2948  0.3190  0.2003
 9056TIP3    H148583   5.676   5.153   6.089  0.9860  0.6363  0.2609
 9056TIP3    H248584   5.649   5.252   6.200 -0.8005  0.1414  0.3063
 9057TIP3   OH248585   0.023   6.331  16.724  0.0986 -0.2758 -0.4518
 9057TIP3    H148586   0.088   6.376  16.777  1.3435 -2.2587 -0.1737
 9057TIP3    H248587   0.056   6.336  16.635  0.3993 -0.8664 -0.3785
 9058TIP3   OH248588   5.126   3.382  12.572  0.1211 -0.0400 -0.3240
 9058TIP3    H148589   5.043   3.426  12.591 -0.2986 -0.7782 -0.4144
 9058TIP3    H248590   5.102   3.290  12.558  1.1450 -0.5784  1.2060
 9059TIP3   OH248591   6.595   1.700  16.932  0.1620  0.1186  0.4111
 9059TIP3    H148592   6.662   1.754  16.973 -0.0839  1.2388 -0.5909
 9059TIP3    H248593   6.638   1.664  16.854  0.2764 -1.0525  0.9855
 9060TIP3   OH248594   1.176   5.327   5.761  0.4711 -0.1395 -0.2353
 9060TIP3    H148595   1.197   5.337   5.854 -0.5068  1.2880 -0.1248
 9060TIP3    H248596   1.246   5.374   5.716  0.3756  0.0765 -0.1598
 9061TIP3   OH248597   0.138   1.935  15.530 -0.5044  0.1079  0.4203
 9061TIP3    H148598   0.107   1.923  15.619 -1.4733 -0.6234  0.0011
 9061TIP3    H248599   0.089   1.871  15.478  2.7451 -2.2139 -0.0942
 9062TIP3   OH248600   4.364   2.992  16.892  0.0396 -0.5016  0.1766
 9062TIP3    H148601   4.313   2.994  16.811  0.6837  2.5007 -0.2924
 9062TIP3    H248602   4.308   3.034  16.957  0.3144 -1.0142  0.7525
 9063TIP3   OH248603   5.000   6.693  14.961 -0.4026 -0.6342 -0.3877
 9063TIP3    H148604   5.068   6.640  14.920  1.7765  1.0161  0.9164
 9063TIP3    H248605   4.934   6.704  14.893  0.3875 -2.6479 -1.5626
 9064TIP3   OH248606   4.730   2.392   5.899 -0.5052 -1.0749 -0.5639
 9064TIP3    H148607   4.696   2.413   5.812  0.4236 -1.6336 -1.0734
 9064TIP3    H248608   4.652   2.387   5.955 -1.3145 -2.6581 -1.7638
 9065TIP3   OH248609   4.025   5.966   5.026 -0.1864  0.3630 -0.5055
 9065TIP3    H148610   4.107   5.926   5.052  0.0981  0.9347 -0.4957
 9065TIP3    H248611   4.051   6.039   4.969 -0.7309 -0.0151 -1.2623
 9066TIP3   OH248612   0.040   5.885   1.621  0.3832  0.2961  0.0712
 9066TIP3    H148613  -0.025   5.917   1.683  1.3919  1.3734  0.6170
 9066TIP3    H248614   0.117   5.867   1.674  1.0076  0.4710 -0.7516
 9067TIP3   OH248615   0.370   1.727   3.410  0.2391  0.3290  0.2284
 9067TIP3    H148616   0.389   1.710   3.503  1.8569  0.6331 -0.0237
 9067TIP3    H248617   0.340   1.817   3.408 -0.2802  0.1661  0.5125
 9068TIP3   OH248618   3.338   0.890   0.514 -0.6427 -0.4545  0.0561
 9068TIP3    H148619   3.363   0.921   0.601 -0.5975 -1.8662  0.5692
 9068TIP3    H248620   3.259   0.940   0.492  0.8729  1.9830 -0.3544
 9069TIP3   OH248621   1.797   5.364   4.683  0.0847  0.1622  0.3278
 9069TIP3    H148622   1.779   5.305   4.610 -1.4772  0.6919  0.2569
 9069TIP3    H248623   1.723   5.424   4.685  0.2851  0.4103  2.0978
 9070TIP3   OH248624   5.166   4.082   5.201  0.2316  0.1995  0.2443
 9070TIP3    H148625   5.114   4.095   5.280 -1.3633 -0.4025 -0.6735
 9070TIP3    H248626   5.228   4.012   5.224 -1.2537 -1.0675  0.5030
 9071TIP3   OH248627   5.857   1.303   2.829 -0.2783  0.4376  0.0069
 9071TIP3    H148628   5.928   1.240   2.820 -0.0961  0.4100  1.4087
 9071TIP3    H248629   5.778   1.254   2.805 -0.0748 -0.1865  0.5708
 9072TIP3   OH248630   0.926   2.693   2.278 -0.9899 -0.0671 -0.4107
 9072TIP3    H148631   0.948   2.632   2.207  1.5306 -0.8157  0.8711
 9072TIP3    H248632   0.875   2.640   2.339 -1.7531  0.1191 -0.8698
 9073TIP3   OH248633   1.462   2.827  17.212 -0.2891  0.1391  0.4435
 9073TIP3    H148634   1.502   2.895  17.267  0.1284 -1.7636  2.6735
 9073TIP3    H248635   1.532   2.764  17.197 -1.0139 -0.4938 -0.3879
 9074TIP3   OH248636   3.053   4.533  13.880  0.1732 -0.1265 -0.2481
 9074TIP3    H148637   2.963   4.541  13.910 -0.0614 -0.5777 -0.7995
 9074TIP3    H248638   3.088   4.622  13.885  0.1769 -0.1947  1.3957
 9075TIP3   OH248639   3.813   0.353  16.818 -0.0163 -0.7125 -0.2131
 9075TIP3    H148640   3.873   0.423  16.843 -1.7882  1.1665 -0.9765
 9075TIP3    H248641   3.857   0.273  16.847  1.5680  0.7514  1.7082
 9076TIP3   OH248642   0.408   4.821   4.758  0.3868  0.4479  0.7182
 9076TIP3    H148643   0.467   4.862   4.821  2.1402 -2.5373  1.1989
 9076TIP3    H248644   0.448   4.839   4.673  1.7514 -1.0571  1.0006
 9077TIP3   OH248645   4.166   3.201   0.487  0.5112 -0.5114  0.2485
 9077TIP3    H148646   4.186   3.175   0.397  1.6613 -1.4229  0.7433
 9077TIP3    H248647   4.078   3.167   0.503  0.1926 -0.1106 -0.6075
 9078TIP3   OH248648   1.803   6.747   4.029  0.1101 -0.8171 -0.0025
 9078TIP3    H148649   1.814   6.810   4.101  1.0411 -0.1244 -0.7264
 9078TIP3    H248650   1.878   6.688   4.038  0.3711 -0.5715 -0.5549
 9079TIP3   OH248651   0.436   0.934  13.760 -0.0875  0.0564  0.0178
 9079TIP3    H148652   0.385   1.001  13.716 -1.7062 -0.5989  0.7941
 9079TIP3    H248653   0.431   0.957  13.853  1.1763  0.0547  0.1023
 9080TIP3   OH248654   6.067   1.464  11.209  0.8821 -0.7533  0.1442
 9080TIP3    H148655   6.003   1.485  11.140  1.1363  0.3240  0.2246
 9080TIP3    H248656   6.149   1.450  11.162  0.8624 -0.8957  0.1521
 9081TIP3   OH248657   1.652   1.251  11.504  0.2958  0.0567 -0.3977
 9081TIP3    H148658   1.596   1.285  11.574 -0.0475 -0.7902 -0.2556
 9081TIP3    H248659   1.740   1.277  11.530 -0.0346  1.6697 -0.7781
 9082TIP3   OH248660   6.162   5.538   2.954  0.0395 -0.2033 -0.5432
 9082TIP3    H148661   6.160   5.625   2.994  0.8287  0.6424 -2.2191
 9082TIP3    H248662   6.157   5.478   3.028  4.1378  1.2152  1.2136
 9083TIP3   OH248663   3.147   5.797  11.346  0.3693  0.0085  0.3164
 9083TIP3    H148664   3.101   5.760  11.272  0.9963 -1.1098  0.4735
 9083TIP3    H248665   3.237   5.809  11.315 -0.2036  3.5452 -0.4872
 9084TIP3   OH248666   4.857   5.814   0.275 -0.3615  0.1691 -0.2324
 9084TIP3    H148667   4.784   5.811   0.336 -0.3813 -0.6596 -0.2842
 9084TIP3    H248668   4.877   5.907   0.265 -0.7595  0.3403  0.5507
 9085TIP3   OH248669   4.983   3.511   5.919  0.1964 -0.2734  0.0376
 9085TIP3    H148670   4.891   3.531   5.902  0.2115  0.0201  0.2963
 9085TIP3    H248671   5.008   3.451   5.849  0.5712  1.7125 -1.6187
 9086TIP3   OH248672   3.613   4.214  11.529  0.2878 -0.1518 -0.6522
 9086TIP3    H148673   3.635   4.293  11.480  0.7808  0.0955 -0.0456
 9086TIP3    H248674   3.581   4.246  11.614  2.6931 -0.6102  0.4984
 9087TIP3   OH248675   2.075   3.956   0.948  0.1191 -0.0726  0.4146
 9087TIP3    H148676   2.071   3.869   0.987 -0.5460 -0.3246 -0.1998
 9087TIP3    H248677   2.007   4.006   0.994  0.7512  0.2449  1.0305
 9088TIP3   OH248678   6.178   6.261   1.643 -0.4266 -0.2439 -0.2386
 9088TIP3    H148679   6.136   6.263   1.729 -1.4628  0.7679 -0.7412
 9088TIP3    H248680   6.149   6.342   1.600  0.7092 -0.3452 -1.2461
 9089TIP3   OH248681   5.263   2.175  12.642 -0.1756 -0.0821 -0.2271
 9089TIP3    H148682   5.227   2.142  12.560 -0.1014  1.1623 -0.7807
 9089TIP3    H248683   5.356   2.154  12.637  0.2213  1.7463 -1.4065
 9090TIP3   OH248684   2.898   2.032   4.919  0.2194 -0.4998 -0.4248
 9090TIP3    H148685   2.992   2.029   4.898  0.4136 -1.8784  0.4313
 9090TIP3    H248686   2.854   2.018   4.836  0.6634  2.3818 -1.2412
 9091TIP3   OH248687   6.454   2.983  13.076  0.3522  0.6587 -0.4266
 9091TIP3    H148688   6.377   3.037  13.091 -0.4590  0.0758 -2.2093
 9091TIP3    H248689   6.464   2.980  12.981  0.5077 -2.0681 -0.4025
 9092TIP3   OH248690   3.654   6.614  14.684 -0.0057  0.0158  0.0823
 9092TIP3    H148691   3.666   6.681  14.618 -1.1339 -0.0046 -0.1499
 9092TIP3    H248692   3.683   6.655  14.766 -1.1814  0.9831  0.0386
 9093TIP3   OH248693   5.814   0.232  16.792  0.4368  0.0745  0.3059
 9093TIP3    H148694   5.879   0.182  16.841  0.6345  0.1875  0.1610
 9093TIP3    H248695   5.862   0.307  16.757  0.3956 -0.2175 -0.4032
 9094TIP3   OH248696   3.160   5.304   0.136  0.1184 -0.2273 -0.3405
 9094TIP3    H148697   3.156   5.253   0.217  1.6495 -1.3612 -0.9411
 9094TIP3    H248698   3.217   5.254   0.078  0.7123  1.5818 -1.4107
 9095TIP3   OH248699   2.641   0.422   6.240 -0.1286 -0.3021  0.1417
 9095TIP3    H148700   2.642   0.512   6.206  1.8532 -0.9974 -1.9275
 9095TIP3    H248701   2.652   0.432   6.335  2.0838  1.6579 -0.2173
 9096TIP3   OH248702   4.860   2.022   1.443  0.1830 -0.2578 -0.3257
 9096TIP3    H148703   4.771   1.996   1.417 -0.9716  2.3135  0.7581
 9096TIP3    H248704   4.872   1.981   1.529 -0.2861  0.0560 -0.1061
 9097TIP3   OH248705   5.569   3.884  13.311  0.0139  0.5568  0.9662
 9097TIP3    H148706   5.500   3.838  13.264  0.1302  0.0683  1.2660
 9097TIP3    H248707   5.629   3.815  13.338  1.1651  1.0564 -0.1770
 9098TIP3   OH248708   5.660   3.313   3.670  0.0994 -0.2872  0.4704
 9098TIP3    H148709   5.662   3.221   3.694 -0.5256  0.0129  1.7491
 9098TIP3    H248710   5.690   3.359   3.748 -0.3302  0.6383  0.1075
 9099TIP3   OH248711   0.489   4.379   1.378 -0.4088 -0.0224  0.3187
 9099TIP3    H148712   0.401   4.415   1.372 -1.3415 -2.2080  0.2321
 9099TIP3    H248713   0.506   4.373   1.472  0.7194  2.7103  0.3854
 9100TIP3   OH248714   6.184   1.280  16.472  0.6877 -0.2645 -0.5463
 9100TIP3    H148715   6.193   1.363  16.425  0.5066  0.5067  0.7260
 9100TIP3    H248716   6.274   1.249  16.483  0.8040  0.1248 -0.3921
 9101TIP3   OH248717   0.268   5.923   4.956 -0.2163 -0.3096 -0.3024
 9101TIP3    H148718   0.176   5.929   4.984 -0.3059  0.4125 -0.7389
 9101TIP3    H248719   0.303   5.850   5.007 -0.9376 -0.3646  0.1359
 9102TIP3   OH248720   2.214   2.901  15.080 -0.3203 -0.0068 -0.1314
 9102TIP3    H148721   2.251   2.892  15.168 -2.2973  0.2673  0.7683
 9102TIP3    H248722   2.204   2.996  15.069  0.6503  0.0152 -1.0073
 9103TIP3   OH248723   2.056   4.501   3.052 -0.0940 -0.2226  0.6962
 9103TIP3    H148724   2.123   4.539   3.108  0.7647 -2.2766  1.1411
 9103TIP3    H248725   2.065   4.548   2.968 -0.5507  1.9819  1.7968
 9104TIP3   OH248726   2.760   5.530  14.610  0.3049  0.0897  0.1515
 9104TIP3    H148727   2.692   5.463  14.604  0.4671  0.0117 -1.5013
 9104TIP3    H248728   2.842   5.481  14.599  0.4178  0.5173 -1.1506
 9105TIP3   OH248729   1.483   6.599   3.709  0.5547 -0.4655 -0.0744
 9105TIP3    H148730   1.428   6.587   3.632 -0.4946  1.0621  0.3949
 9105TIP3    H248731   1.424   6.637   3.775  1.4772 -1.5060  1.4127
 9106TIP3   OH248732   1.522   5.633  11.029 -0.2679 -0.3803  0.1293
 9106TIP3    H148733   1.593   5.690  11.059  0.6000 -0.0836 -2.2467
 9106TIP3    H248734   1.549   5.545  11.052  1.5281 -0.3932 -1.7738
 9107TIP3   OH248735   1.317   6.625  10.787  0.1117  0.0772 -0.4751
 9107TIP3    H148736   1.324   6.709  10.742  2.0954  0.1984 -0.0380
 9107TIP3    H248737   1.282   6.565  10.722 -2.1039  1.3483 -0.5805
 9108TIP3   OH248738   4.122   4.870   5.379 -0.1879 -0.1569 -0.4061
 9108TIP3    H148739   4.216   4.848   5.382 -0.3372 -1.0935 -1.7793
 9108TIP3    H248740   4.119   4.956   5.338  0.1015  0.2916  0.4725
 9109TIP3   OH248741   3.300   6.262   5.759 -0.6809 -0.2008  0.5018
 9109TIP3    H148742   3.233   6.285   5.824 -4.1667  0.5790 -2.9778
 9109TIP3    H248743   3.339   6.346   5.734 -2.5273  0.1939 -1.3638
 9110TIP3   OH248744   0.248   3.224   4.646  0.2439  0.2960 -0.4385
 9110TIP3    H148745   0.214   3.135   4.654 -1.5004  0.9609 -0.1394
 9110TIP3    H248746   0.187   3.278   4.696  0.2598  1.9237 -2.0963
 9111TIP3   OH248747   6.430   4.728  12.568  0.1313  0.1702  0.0687
 9111TIP3    H148748   6.498   4.723  12.502  0.2052 -0.0708  0.1594
 9111TIP3    H248749   6.348   4.727  12.519  0.1703 -0.6818  0.0038
 9112TIP3   OH248750   2.651   5.744  14.288  0.3871  0.0437 -0.6083
 9112TIP3    H148751   2.612   5.806  14.350  0.5526 -0.7842  0.3592
 9112TIP3    H248752   2.614   5.768  14.203 -0.4980  0.6783 -0.0614
 9113TIP3   OH248753   5.292   5.336   5.788 -0.5307  0.0121  0.3595
 9113TIP3    H148754   5.227   5.294   5.732  0.0315 -0.4968  0.0842
 9113TIP3    H248755   5.273   5.302   5.876 -0.0574 -0.8656  0.1347
 9114TIP3   OH248756   0.790   6.444   3.921  0.0795 -0.0264  0.2450
 9114TIP3    H148757   0.715   6.503   3.928 -1.6517 -2.1357  0.8602
 9114TIP3    H248758   0.835   6.453   4.005 -0.7549 -0.3061  0.7321
 9115TIP3   OH248759   1.732   0.960   3.408 -0.5079  0.7010 -0.3487
 9115TIP3    H148760   1.732   0.878   3.456 -0.2578  1.1518  0.4398
 9115TIP3    H248761   1.726   1.028   3.476  0.9535  1.3945 -0.8718
 9116TIP3   OH248762   2.925   3.208   2.025  0.1858 -0.4293 -0.0740
 9116TIP3    H148763   2.898   3.251   2.107 -2.2284 -0.6599 -0.6606
 9116TIP3    H248764   2.933   3.116   2.048  0.0304 -0.4191  0.0271
 9117TIP3   OH248765   4.947   2.406  14.723 -0.2191 -0.3187  0.2598
 9117TIP3    H148766   4.884   2.478  14.722  2.4956  2.2519 -0.2885
 9117TIP3    H248767   4.905   2.338  14.671 -1.6949  2.1167 -2.0431
 9118TIP3   OH248768   4.775   6.675   1.419 -0.3405  0.1761 -0.2226
 9118TIP3    H148769   4.700   6.651   1.365 -1.2380  2.1150  0.1096
 9118TIP3    H248770   4.812   6.591   1.447 -1.3824 -0.8274 -1.7288
 9119TIP3   OH248771   4.592   5.250   6.142 -0.1506  0.3451  0.1577
 9119TIP3    H148772   4.588   5.338   6.104  0.8927  0.8584  1.1769
 9119TIP3    H248773   4.542   5.256   6.223  1.3051  0.4804  1.0793
 9120TIP3   OH248774   6.475   1.207  16.384  0.6811 -0.2913  0.0584
 9120TIP3    H148775   6.524   1.150  16.325  1.2136  1.2163 -1.0249
 9120TIP3    H248776   6.438   1.275  16.327 -0.9943 -0.2379  1.1269
 9121TIP3   OH248777   3.856   3.012   3.612  0.6749  0.4875  0.3745
 9121TIP3    H148778   3.761   3.020   3.601  0.6905  1.1613  0.6519
 9121TIP3    H248779   3.868   2.996   3.705  0.7623 -1.0520  0.1108
 9122TIP3   OH248780   4.454   0.912   0.252  0.1097 -0.1262  0.1334
 9122TIP3    H148781   4.440   0.817   0.249 -0.1359 -0.1013  0.3926
 9122TIP3    H248782   4.402   0.947   0.180 -0.1835 -0.1481  0.3311
 9123TIP3   OH248783   2.889   5.788  12.179  0.0860  0.3184 -0.1444
 9123TIP3    H148784   2.831   5.752  12.112  1.3903 -0.6685 -0.7668
 9123TIP3    H248785   2.831   5.808  12.252 -0.9508 -1.3487 -0.4629
 9124TIP3   OH248786   0.739   2.353  15.642  0.0098  0.5629  0.0076
 9124TIP3    H148787   0.785   2.270  15.627 -1.7838 -0.6573  0.8775
 9124TIP3    H248788   0.744   2.399  15.559  1.3096 -0.2704 -0.4083
 9125TIP3   OH248789   5.493   5.686  12.736  0.7492  0.3989  0.0607
 9125TIP3    H148790   5.551   5.647  12.671  0.2733  2.1329 -1.4769
 9125TIP3    H248791   5.550   5.745  12.786  0.7459  0.3880  0.0779
 9126TIP3   OH248792   0.993   3.184   5.049 -0.1966 -0.1487 -0.2367
 9126TIP3    H148793   1.006   3.164   4.956  0.6999 -0.0687 -0.1413
 9126TIP3    H248794   1.068   3.145   5.093  0.5585  1.6601  0.1918
 9127TIP3   OH248795   0.274   5.945  14.786 -0.0835 -0.1040 -0.1989
 9127TIP3    H148796   0.286   5.977  14.697  1.2996 -0.6873 -0.2553
 9127TIP3    H248797   0.208   5.877  14.779  1.3277 -1.4523 -1.1407
 9128TIP3   OH248798   1.668   3.240   0.284 -0.1419 -0.0220  0.1143
 9128TIP3    H148799   1.672   3.166   0.224 -0.8200  0.8779 -1.0748
 9128TIP3    H248800   1.749   3.288   0.269 -0.9794  1.0565 -1.2778
 9129TIP3   OH248801   5.566   2.443  12.474  0.1599 -1.1211 -0.5798
 9129TIP3    H148802   5.505   2.492  12.529  0.8908 -0.3379 -0.4591
 9129TIP3    H248803   5.613   2.385  12.534  1.1580 -0.0634 -0.3195
 9130TIP3   OH248804   3.592   5.280   3.346 -0.1284 -0.0690  0.3870
 9130TIP3    H148805   3.514   5.225   3.337 -0.2350  0.0906  0.3225
 9130TIP3    H248806   3.638   5.244   3.421  0.8170 -1.4692 -0.8145
 9131TIP3   OH248807   5.082   4.905   3.312  0.4390  0.2159  0.0690
 9131TIP3    H148808   5.093   4.822   3.265  1.6100 -0.1095  0.8603
 9131TIP3    H248809   5.110   4.885   3.402 -2.6160  0.5657  1.2270
 9132TIP3   OH248810   3.750   1.061   3.566 -0.3789  0.2008  0.1347
 9132TIP3    H148811   3.825   1.117   3.547 -0.0585 -0.4300 -0.4976
 9132TIP3    H248812   3.674   1.120   3.562 -0.0125  0.6550 -0.1867
 9133TIP3   OH248813   4.284   4.170   0.690  0.6118 -0.3412  0.0357
 9133TIP3    H148814   4.227   4.149   0.616  1.6488 -2.3208 -0.2928
 9133TIP3    H248815   4.336   4.245   0.660  0.0009 -0.1868 -0.6659
 9134TIP3   OH248816   1.189   4.698   0.183  0.4229  0.2500  0.0260
 9134TIP3    H148817   1.236   4.756   0.243 -0.9018 -1.0183  2.4539
 9134TIP3    H248818   1.144   4.758   0.123  0.9966  1.6457  0.9279
 9135TIP3   OH248819   2.332   3.520   1.970  0.3635 -0.5790  0.1854
 9135TIP3    H148820   2.253   3.510   2.023  0.5557 -0.0640  0.5827
 9135TIP3    H248821   2.303   3.503   1.880 -0.4480  0.6630  0.1790
 9136TIP3   OH248822   3.038   5.412  12.830  0.0930 -0.2432 -0.4180
 9136TIP3    H148823   3.038   5.351  12.757  1.7348 -1.7448  0.7336
 9136TIP3    H248824   2.946   5.419  12.856 -0.3188 -0.9033 -1.6382
 9137TIP3   OH248825   0.394   0.037   2.780  0.2254  0.1207  0.5264
 9137TIP3    H148826   0.424   0.067   2.695  0.1842  1.3004  0.9139
 9137TIP3    H248827   0.450  -0.038   2.800  1.7295  1.1931  0.4500
 9138TIP3   OH248828   6.591   5.972  15.914  0.0477  0.3246  0.6723
 9138TIP3    H148829   6.515   6.030  15.909 -0.8747 -0.8276  0.8900
 9138TIP3    H248830   6.555   5.884  15.905  1.3350 -0.2663  1.0293
 9139TIP3   OH248831   2.138   3.501  15.304  0.3843 -0.1434 -0.8726
 9139TIP3    H148832   2.068   3.458  15.353  0.1154 -0.9826 -1.9525
 9139TIP3    H248833   2.106   3.591  15.291 -0.9260 -0.7563 -2.1258
 9140TIP3   OH248834   5.848   0.691   5.647 -0.4643  0.2651 -0.4746
 9140TIP3    H148835   5.903   0.691   5.725 -0.9430  1.5888 -0.1098
 9140TIP3    H248836   5.910   0.685   5.574  0.0271 -0.3030 -0.0246
 9141TIP3   OH248837   2.365   1.595   5.811 -0.4960 -0.1281  0.8721
 9141TIP3    H148838   2.356   1.591   5.716 -0.0728 -1.1044  0.8608
 9141TIP3    H248839   2.459   1.596   5.827 -0.5588 -0.2932  1.2878
 9142TIP3   OH248840   4.785   1.476  14.641  0.3686 -0.3143 -0.1653
 9142TIP3    H148841   4.861   1.476  14.699 -0.3451  1.5147  0.8984
 9142TIP3    H248842   4.718   1.428  14.690  0.6154 -1.3123 -0.7904
 9143TIP3   OH248843   1.663   0.805   2.957  0.2740 -0.5496 -0.0492
 9143TIP3    H148844   1.568   0.803   2.968  0.2900 -0.6315  0.0621
 9143TIP3    H248845   1.690   0.713   2.958  0.5096 -0.4789  1.1909
 9144TIP3   OH248846   1.262   1.445  11.090 -0.0277 -0.3214 -0.4356
 9144TIP3    H148847   1.263   1.353  11.066  0.4648  0.1059 -2.1566
 9144TIP3    H248848   1.295   1.491  11.013  0.4744  1.2371  0.6513
 9145TIP3   OH248849   3.048   6.355  12.100 -0.3065  0.0721 -0.3612
 9145TIP3    H148850   3.040   6.347  12.194 -2.2675 -1.7510 -0.6332
 9145TIP3    H248851   2.959   6.345  12.066  0.4145  0.1172 -2.4448
 9146TIP3   OH248852   3.570   6.155   1.791  0.0149 -0.3890 -0.2084
 9146TIP3    H148853   3.576   6.141   1.697 -0.3397 -2.1803  0.0048
 9146TIP3    H248854   3.484   6.196   1.804 -0.0889 -0.4704 -0.6281
 9147TIP3   OH248855   2.783   4.859   3.735 -0.0514 -0.7416 -0.1876
 9147TIP3    H148856   2.814   4.897   3.653  2.6018 -2.5024 -0.1422
 9147TIP3    H248857   2.754   4.771   3.712  1.6131 -1.6112  0.8110
 9148TIP3   OH248858   0.105   2.996  13.999  0.1115  0.2310  0.0790
 9148TIP3    H148859   0.045   2.960  14.064 -1.7621  1.3116 -0.9548
 9148TIP3    H248860   0.068   3.081  13.976  0.5740 -0.1815 -2.5075
 9149TIP3   OH248861   0.647   5.165   5.108 -0.3133  0.0417 -0.1871
 9149TIP3    H148862   0.688   5.148   5.193 -0.8361 -2.7761 -0.4076
 9149TIP3    H248863   0.565   5.209   5.130  0.3537  0.9556  0.6062
 9150TIP3   OH248864   5.068   3.491  16.278  0.1096  0.2224 -0.2922
 9150TIP3    H148865   5.122   3.569  16.288  2.7026 -1.1520 -2.1591
 9150TIP3    H248866   5.019   3.505  16.197  0.7119 -0.1157 -0.7249
 9151TIP3   OH248867   4.906   3.506  15.767  0.2187 -0.2299 -0.2857
 9151TIP3    H148868   4.913   3.588  15.718  0.1917  2.8325  4.2630
 9151TIP3    H248869   4.813   3.484  15.763  0.3178 -0.4867 -2.0270
 9152TIP3   OH248870   3.009   6.086   0.625 -0.1483 -1.0090 -0.0378
 9152TIP3    H148871   2.930   6.046   0.589  0.4214 -1.8327 -0.4083
 9152TIP3    H248872   2.999   6.077   0.720 -0.9441 -0.2067 -0.0303
 9153TIP3   OH248873   2.607   5.231   5.629  0.2922 -0.0785  0.0147
 9153TIP3    H148874   2.666   5.169   5.586  0.9813  1.9328 -2.1088
 9153TIP3    H248875   2.574   5.183   5.705  0.2063 -3.2923 -1.8741
 9154TIP3   OH248876   4.678   3.264  10.723 -0.3989  0.2173 -0.3444
 9154TIP3    H148877   4.631   3.332  10.674 -0.5379  1.0460  0.8766
 9154TIP3    H248878   4.610   3.221  10.775 -0.1246 -0.0525 -0.2079
 9155TIP3   OH248879   5.376   2.492  10.903 -0.0885 -0.3929  0.1265
 9155TIP3    H148880   5.353   2.430  10.833  2.3380 -0.1170 -1.0423
 9155TIP3    H248881   5.378   2.577  10.859  1.6883 -0.2485  0.4273
 9156TIP3   OH248882   0.049   6.715  13.313 -0.1026 -0.1098 -0.3784
 9156TIP3    H148883   0.060   6.746  13.223  0.3082 -0.7123 -0.5442
 9156TIP3    H248884  -0.045   6.722  13.330  0.1175  2.6852  0.1479
 9157TIP3   OH248885   0.604   2.782  16.595 -0.1869  0.2518 -0.4396
 9157TIP3    H148886   0.623   2.876  16.603 -0.5954  0.1680  2.4431
 9157TIP3    H248887   0.520   2.779  16.549  0.4451  1.2100 -1.7116
 9158TIP3   OH248888   4.105   5.859   2.320  0.6109  0.5328  0.2376
 9158TIP3    H148889   4.140   5.930   2.373  1.5878  0.5185 -0.3673
 9158TIP3    H248890   4.130   5.881   2.230 -0.2891  0.1343 -0.1264
 9159TIP3   OH248891   0.773   5.596  14.413  0.1545 -0.2377  0.4760
 9159TIP3    H148892   0.702   5.556  14.463 -0.0168 -0.2748  0.2084
 9159TIP3    H248893   0.806   5.526  14.357 -1.8585  0.5474 -1.9196
 9160TIP3   OH248894   4.653   2.873   0.821 -0.3227 -0.3397 -0.4111
 9160TIP3    H148895   4.670   2.951   0.874 -0.4623 -2.0046  2.2509
 9160TIP3    H248896   4.564   2.885   0.788 -0.2201  0.7598 -0.3213
 9161TIP3   OH248897   5.723   4.008  15.063 -0.4857 -0.2569 -0.3819
 9161TIP3    H148898   5.650   4.020  15.124  0.4250 -0.2456  0.7318
 9161TIP3    H248899   5.782   3.947  15.108 -0.2794 -1.0637 -1.6965
 9162TIP3   OH248900   0.419   3.991   1.109 -0.0296 -0.2115  0.4988
 9162TIP3    H148901   0.338   3.984   1.159 -0.4565  0.9629  0.0186
 9162TIP3    H248902   0.452   4.079   1.129  0.8075 -0.4446  0.2083
 9163TIP3   OH248903   3.476   4.180  14.209  0.4055  0.0201  0.4917
 9163TIP3    H148904   3.465   4.108  14.147 -1.7254 -0.7014  1.6009
 9163TIP3    H248905   3.570   4.198  14.208  0.5708 -0.5045 -2.2731
 9164TIP3   OH248906   3.910   4.595  12.062 -0.2524  0.8858  0.0949
 9164TIP3    H148907   3.818   4.590  12.089 -0.2587 -0.0186 -0.0788
 9164TIP3    H248908   3.950   4.514  12.094 -0.1427 -0.0121 -2.1233
 9165TIP3   OH248909   4.482   2.954  10.666 -0.1772  0.4405 -0.0590
 9165TIP3    H148910   4.559   2.929  10.615  0.4196  0.5380  0.7674
 9165TIP3    H248911   4.458   2.875  10.714  0.0808  0.7079  0.5189
 9166TIP3   OH248912   1.077   4.657  11.695 -0.5921  0.1597  1.3297
 9166TIP3    H148913   1.017   4.729  11.681  1.3704  1.5988 -0.4364
 9166TIP3    H248914   1.071   4.605  11.614  2.0201  1.5996  0.0792
 9167TIP3   OH248915   6.562   5.953  16.272  0.8250  0.1337 -0.3575
 9167TIP3    H148916   6.514   6.036  16.263  0.7863  0.0168 -1.4397
 9167TIP3    H248917   6.546   5.908  16.189  1.3854 -0.6758 -0.0369
 9168TIP3   OH248918   2.593   5.052  15.084  0.6002  0.1913  0.5901
 9168TIP3    H148919   2.681   5.057  15.120  1.0665 -0.8562 -0.3376
 9168TIP3    H248920   2.580   5.136  15.040  1.4589  0.0289  0.0160
 9169TIP3   OH248921   6.064   2.361  16.562  0.3372 -0.1186 -0.0166
 9169TIP3    H148922   6.147   2.408  16.568  0.4249  0.1378 -2.3172
 9169TIP3    H248923   6.088   2.274  16.530 -0.2615 -0.0187 -0.7706
 9170TIP3   OH248924   6.061   5.548   0.293 -0.2217 -0.1401 -0.2759
 9170TIP3    H148925   6.138   5.492   0.302 -0.6832 -0.6315  0.7320
 9170TIP3    H248926   6.090   5.634   0.321 -0.0795 -0.3654  0.2863
 9171TIP3   OH248927   4.222   2.277   3.237  0.2090 -0.8090  0.3464
 9171TIP3    H148928   4.313   2.269   3.207 -0.0006 -1.1915 -0.2108
 9171TIP3    H248929   4.197   2.366   3.214  0.6276 -0.4984  1.0484
 9172TIP3   OH248930   1.231   2.831   0.721 -0.2252 -0.5258 -0.0205
 9172TIP3    H148931   1.158   2.864   0.668  0.6136  0.5648 -0.5499
 9172TIP3    H248932   1.245   2.898   0.787  1.6197  0.3635 -1.2145
 9173TIP3   OH248933   2.611   2.693   6.355 -0.0743 -0.3775 -0.1238
 9173TIP3    H148934   2.669   2.716   6.282 -0.0744  1.0021  0.2885
 9173TIP3    H248935   2.562   2.617   6.323 -0.3499  0.4275 -1.7291
 9174TIP3   OH248936   3.181   6.207  12.931 -0.0900 -0.1963  0.5898
 9174TIP3    H148937   3.105   6.169  12.976  0.1630 -0.6744  0.6156
 9174TIP3    H248938   3.209   6.279  12.988 -0.0263 -0.5354  0.9893
 9175TIP3   OH248939   3.952   5.383  12.734  0.5378 -0.5127  0.2654
 9175TIP3    H148940   3.883   5.449  12.739  2.6352  2.1241 -2.4706
 9175TIP3    H248941   3.906   5.302  12.710 -1.7886  0.6123  0.6871
 9176TIP3   OH248942   2.320   4.250  14.184  0.0790 -0.2597  0.2900
 9176TIP3    H148943   2.291   4.202  14.106  0.7769 -1.6737  0.8623
 9176TIP3    H248944   2.240   4.262  14.235 -0.2784  0.1270 -0.3389
 9177TIP3   OH248945   1.783   6.505  16.894 -0.1153  0.1185 -0.4113
 9177TIP3    H148946   1.760   6.561  16.820  2.2422  1.6435 -0.1021
 9177TIP3    H248947   1.784   6.565  16.969 -1.5866 -1.2226  0.7370
 9178TIP3   OH248948   1.100   2.252   5.628  0.3327  0.0267 -0.2358
 9178TIP3    H148949   1.098   2.196   5.551 -0.0972  0.2451 -0.3910
 9178TIP3    H248950   1.076   2.195   5.701 -1.1762  0.2169 -0.5410
 9179TIP3   OH248951   1.410   1.916  15.715 -0.0032 -0.2608 -0.0313
 9179TIP3    H148952   1.354   1.859  15.767  0.6167 -1.3597 -0.5134
 9179TIP3    H248953   1.494   1.870  15.712  0.4467  0.5707 -0.6363
 9180TIP3   OH248954   3.465   3.792  12.166  0.5716 -0.8179 -0.1091
 9180TIP3    H148955   3.526   3.787  12.093 -0.9764 -0.8456 -1.4752
 9180TIP3    H248956   3.392   3.845  12.133  0.7517  0.9755  2.1579
 9181TIP3   OH248957   1.023   4.081  13.737 -0.2920  0.2556  0.7234
 9181TIP3    H148958   1.063   3.997  13.756  1.2547  0.5837 -0.7893
 9181TIP3    H248959   0.936   4.059  13.704  0.9391 -1.0296 -2.0278
 9182TIP3   OH248960   1.141   4.140  16.486 -0.0142 -0.0448 -0.3769
 9182TIP3    H148961   1.193   4.217  16.461  0.2203 -0.3778 -0.9286
 9182TIP3    H248962   1.205   4.077  16.519 -0.2483  0.1305  0.4268
 9183TIP3   OH248963   4.475   2.221   5.256  0.1927 -0.1553 -0.2314
 9183TIP3    H148964   4.427   2.220   5.339  0.1408  0.6360 -0.2443
 9183TIP3    H248965   4.567   2.223   5.282  0.2623 -1.9792 -0.2053
 9184TIP3   OH248966   1.386   2.798   2.226 -0.0927  0.1471  0.1722
 9184TIP3    H148967   1.420   2.821   2.313 -0.1578 -0.0737  0.2561
 9184TIP3    H248968   1.421   2.710   2.210 -0.3859  0.0387  0.1322
 9185TIP3   OH248969   3.054   1.479  16.196 -0.4222 -0.0226  0.6578
 9185TIP3    H148970   3.011   1.445  16.117 -1.6123  0.8697  0.8988
 9185TIP3    H248971   3.118   1.412  16.219 -0.0292 -0.2713 -1.0871
 9186TIP3   OH248972   0.040   3.835   1.975 -0.4272  0.4794 -0.1662
 9186TIP3    H148973   0.080   3.782   2.044 -0.2382 -1.3909 -1.6395
 9186TIP3    H248974   0.062   3.790   1.894 -0.5735  2.6531 -1.4997
 9187TIP3   OH248975   3.957   1.886  11.802 -0.0899 -0.5379 -0.4092
 9187TIP3    H148976   3.861   1.878  11.806 -0.2101  0.5446 -0.8037
 9187TIP3    H248977   3.979   1.865  11.711  0.0747 -0.9502 -0.2777
 9188TIP3   OH248978   6.123   3.290  16.741  0.3209 -0.2078  0.9898
 9188TIP3    H148979   6.171   3.267  16.662 -0.0965 -0.0979  0.6985
 9188TIP3    H248980   6.079   3.208  16.767  1.5821 -0.6236  1.9257
 9189TIP3   OH248981   1.158   4.369  15.584 -0.1398  0.2240 -0.4092
 9189TIP3    H148982   1.193   4.457  15.574 -0.1560  0.2199 -0.5031
 9189TIP3    H248983   1.149   4.337  15.495  2.1992 -0.8008 -0.3584
 9190TIP3   OH248984   4.576   4.631   3.010  0.9231  1.1945 -0.2544
 9190TIP3    H148985   4.512   4.560   3.014  0.9815  1.1988  1.2276
 9190TIP3    H248986   4.547   4.686   2.937 -0.6871  1.1204  0.2975
 9191TIP3   OH248987   3.570   6.182   6.287 -0.3448  0.0234 -0.0565
 9191TIP3    H148988   3.502   6.116   6.305  0.0134 -0.2082  0.4693
 9191TIP3    H248989   3.652   6.137   6.306  0.2587 -0.8084 -3.7630
 9192TIP3   OH248990   4.000   6.660  16.530  0.6038 -0.0030 -0.5307
 9192TIP3    H148991   4.047   6.587  16.490 -0.0883  0.0063 -1.3927
 9192TIP3    H248992   3.957   6.622  16.606  0.6074 -0.3920 -0.7203
 9193TIP3   OH248993   2.597   3.681   6.760  0.1492 -0.3660  0.2650
 9193TIP3    H148994   2.585   3.647   6.671 -0.8893  1.0507 -0.1621
 9193TIP3    H248995   2.687   3.657   6.783  0.2046 -1.3393 -0.8965
 9194TIP3   OH248996   4.757   2.453  13.276 -0.3379 -0.3290  0.3887
 9194TIP3    H148997   4.735   2.536  13.235 -4.3916 -1.5212 -0.2648
 9194TIP3    H248998   4.762   2.473  13.370 -1.8820  0.6028  0.2990
 9195TIP3   OH248999   5.201   1.304   5.349  0.3472 -0.2127  0.0509
 9195TIP3    H149000   5.296   1.312   5.357  0.6446 -0.7776 -2.2032
 9195TIP3    H249001   5.171   1.393   5.329  0.5784 -0.2520 -0.4970
 9196TIP3   OH249002   5.502   4.865   2.682  0.7392 -0.1113  0.2430
 9196TIP3    H149003   5.512   4.895   2.592  3.3026 -0.2195  0.4035
 9196TIP3    H249004   5.408   4.862   2.697  0.2614  0.1837 -2.3237
 9197TIP3   OH249005   0.633   1.894   6.722 -0.2459  0.0427  0.2034
 9197TIP3    H149006   0.653   1.948   6.799  0.9932  0.7114 -0.5561
 9197TIP3    H249007   0.538   1.883   6.724 -0.4991  1.9677  0.5847
 9198TIP3   OH249008   3.947   1.903  12.138 -0.3802 -0.0087 -0.1667
 9198TIP3    H149009   3.860   1.924  12.101 -0.7501 -1.3434 -0.0969
 9198TIP3    H249010   3.983   1.838  12.078 -0.5321 -1.3982  1.1883
 9199TIP3   OH249011   1.896   2.751   1.806  0.2053 -0.2887 -0.3984
 9199TIP3    H149012   1.938   2.836   1.817 -0.9983  0.0442  2.3189
 9199TIP3    H249013   1.964   2.696   1.766  0.9393  1.9340 -2.4467
 9200TIP3   OH249014   3.069   1.116   0.033 -0.4994  0.1645  0.5154
 9200TIP3    H149015   3.095   1.188  -0.025  1.0718 -1.3827 -0.8410
 9200TIP3    H249016   2.997   1.073  -0.013 -1.1533  0.5887  1.1211
 9201TIP3   OH249017   3.683   3.640  10.674  0.0942 -0.2436 -0.3738
 9201TIP3    H149018   3.771   3.675  10.691  1.5913 -0.5309 -5.8799
 9201TIP3    H249019   3.689   3.548  10.699  1.4160 -0.2942 -0.8199
 9202TIP3   OH249020   5.782   4.950   6.335  0.6915  0.3662  0.0533
 9202TIP3    H149021   5.755   5.019   6.274  1.3992  1.5593  1.0252
 9202TIP3    H249022   5.878   4.955   6.336  0.7961 -1.0989 -0.3431
 9203TIP3   OH249023   2.225   5.104  12.063 -0.1835  0.0537  0.5180
 9203TIP3    H149024   2.257   5.108  12.154 -0.1859 -1.7362  0.6351
 9203TIP3    H249025   2.132   5.123  12.070  0.0923  1.4381  0.6741
 9204TIP3   OH249026   5.984   0.714   1.858  0.1676  0.0672  0.2399
 9204TIP3    H149027   5.917   0.753   1.803  1.6846  0.1867 -1.6462
 9204TIP3    H249028   5.972   0.754   1.944 -1.7749  0.4861 -0.1886
 9205TIP3   OH249029   2.429   3.828  16.219 -0.9815  0.1640 -0.2323
 9205TIP3    H149030   2.376   3.756  16.187 -0.7004  0.1908 -0.7753
 9205TIP3    H249031   2.509   3.824  16.167 -0.2524 -0.1553  0.8781
 9206TIP3   OH249032   3.230   6.220  15.199  0.1429  0.1295  0.4380
 9206TIP3    H149033   3.292   6.181  15.137  1.1817  1.6266  0.4825
 9206TIP3    H249034   3.250   6.179  15.283 -1.0572 -1.6731 -0.0924
 9207TIP3   OH249035   5.955   0.107  11.308 -0.1348  0.0487 -0.0378
 9207TIP3    H149036   5.859   0.101  11.311 -0.1241 -0.2437 -0.2362
 9207TIP3    H249037   5.973   0.201  11.304 -0.4996  0.0642 -2.8122
 9208TIP3   OH249038   0.757   5.087   0.650  0.2866  0.2206 -0.0681
 9208TIP3    H149039   0.707   5.162   0.616 -0.4895 -0.1745  0.1679
 9208TIP3    H249040   0.821   5.068   0.582  0.5350  1.1418 -0.1028
 9209TIP3   OH249041   5.766   0.074  15.913  0.9328 -0.2655 -0.6687
 9209TIP3    H149042   5.731  -0.014  15.900 -1.1464  0.6660 -1.9968
 9209TIP3    H249043   5.844   0.078  15.858  1.5829 -1.5395  0.1341
 9210TIP3   OH249044   2.990   0.357   1.305 -0.3298 -0.5647 -0.5211
 9210TIP3    H149045   2.898   0.382   1.312  0.2040  1.3025  0.5841
 9210TIP3    H249046   3.030   0.390   1.385  0.9271 -3.3299  0.1233
 9211TIP3   OH249047   2.176   3.828  13.961  0.6838 -0.3456  0.0819
 9211TIP3    H149048   2.250   3.772  13.936  0.1195 -2.0372  1.9617
 9211TIP3    H249049   2.188   3.842  14.055 -0.7779  0.2873  0.1915
 9212TIP3   OH249050   0.334   4.912  13.194  0.4011  0.0745  0.2160
 9212TIP3    H149051   0.350   4.948  13.282  1.2809  0.5045 -0.1080
 9212TIP3    H249052   0.363   4.821  13.200 -1.1812 -0.4210  0.8447
 9213TIP3   OH249053   5.172   3.798   1.219 -0.2217  0.1392  0.2023
 9213TIP3    H149054   5.154   3.799   1.124  1.0357 -1.3092 -0.0911
 9213TIP3    H249055   5.085   3.800   1.259 -0.8106  0.0446 -1.0046
 9214TIP3   OH249056   0.449   3.077  12.822 -0.1508 -0.3048 -0.6718
 9214TIP3    H149057   0.405   3.156  12.854  1.6552 -0.4503  2.6517
 9214TIP3    H249058   0.491   3.105  12.740 -1.3317  1.5474 -0.7109
 9215TIP3   OH249059   2.352   4.442   5.551  0.4739  0.4366 -0.7186
 9215TIP3    H149060   2.313   4.357   5.527  1.6247 -0.0852 -0.7876
 9215TIP3    H249061   2.279   4.504   5.543 -0.3982 -0.5384 -0.6448
 9216TIP3   OH249062   0.645   2.737  11.464 -0.4827 -0.0783  0.4002
 9216TIP3    H149063   0.695   2.812  11.432  1.6848 -1.8565 -0.6248
 9216TIP3    H249064   0.586   2.715  11.392 -1.7311  1.0763  1.0204
 9217TIP3   OH249065   1.333   0.054  14.526  0.1497  0.6070 -0.3256
 9217TIP3    H149066   1.321   0.098  14.611  1.4421 -0.0362  0.2229
 9217TIP3    H249067   1.418   0.010  14.534  0.1866  0.3501 -1.8865
 9218TIP3   OH249068   6.269   5.752  13.343  0.6644 -0.1113  0.1892
 9218TIP3    H149069   6.301   5.678  13.395  0.6477  0.3672  0.8927
 9218TIP3    H249070   6.180   5.727  13.319 -0.3211  0.7566  2.6378
 9219TIP3   OH249071   1.345   6.038   2.379 -0.3535 -0.0059  0.1239
 9219TIP3    H149072   1.308   5.982   2.447  0.5934  0.7750  1.3258
 9219TIP3    H249073   1.394   5.979   2.323  0.0773 -0.4729  0.9828
 9220TIP3   OH249074   4.330   2.426  16.679  0.0499  0.0376  0.5423
 9220TIP3    H149075   4.378   2.506  16.661  0.5741 -0.3400  0.2154
 9220TIP3    H249076   4.324   2.421  16.774  2.2349 -0.7972  0.6887
 9221TIP3   OH249077   5.825   2.196   1.211 -1.0434 -0.1110  0.3960
 9221TIP3    H149078   5.862   2.268   1.262 -1.2392 -0.0867  0.5014
 9221TIP3    H249079   5.779   2.239   1.139 -0.8019 -0.1442  0.2195
 9222TIP3   OH249080   0.880   5.678  15.921  0.1738  0.1168 -0.5657
 9222TIP3    H149081   0.843   5.690  15.833 -1.2551 -3.5498 -0.6277
 9222TIP3    H249082   0.804   5.664  15.977  1.1697 -0.0341  0.7886
 9223TIP3   OH249083   0.035   3.630  11.415  0.4819  0.1014  0.0911
 9223TIP3    H149084  -0.035   3.695  11.425  1.9862  1.7134  0.4840
 9223TIP3    H249085   0.110   3.668  11.459  1.5017 -1.8180  0.0970
 9224TIP3   OH249086   2.538   2.604  13.742  0.2207  0.1326 -0.7142
 9224TIP3    H149087   2.578   2.647  13.818  1.7497 -0.5474 -1.0903
 9224TIP3    H249088   2.531   2.512  13.768  1.2032 -0.1979 -1.5308
 9225TIP3   OH249089   4.397   1.185   1.271  0.0629  0.4491  0.4149
 9225TIP3    H149090   4.444   1.123   1.327  2.1019  0.3009 -1.3497
 9225TIP3    H249091   4.311   1.193   1.312  0.8721 -0.9485  2.5799
 9226TIP3   OH249092   1.816   3.569   2.558 -0.5332 -0.0453  0.3212
 9226TIP3    H149093   1.754   3.559   2.630  1.2712 -1.4645  1.7908
 9226TIP3    H249094   1.880   3.632   2.590 -0.6382  0.6397 -0.7724
 9227TIP3   OH249095   5.105   0.608   1.723 -0.0785 -0.0411  0.4666
 9227TIP3    H149096   5.149   0.682   1.764  1.1569  0.7905 -2.1570
 9227TIP3    H249097   5.144   0.531   1.765 -0.5810  0.7098  2.4362
 9228TIP3   OH249098   0.170   4.330  11.845  0.0278 -0.2506 -0.5629
 9228TIP3    H149099   0.161   4.415  11.801  0.9374 -0.9031 -2.0600
 9228TIP3    H249100   0.181   4.353  11.938 -1.3287  1.1787 -0.7034
 9229TIP3   OH249101   5.954   0.117   4.258  0.4245  0.4861  0.2214
 9229TIP3    H149102   5.935   0.036   4.211  0.5917  1.0554 -0.8623
 9229TIP3    H249103   5.871   0.163   4.262  0.2235  0.0516  1.2768
 9230TIP3   OH249104   2.066   4.381  14.297  0.3427 -0.4236 -0.1532
 9230TIP3    H149105   2.074   4.424  14.212  2.2741  0.2609  0.3370
 9230TIP3    H249106   2.115   4.436  14.358 -0.7930 -1.0257  1.3833
 9231TIP3   OH249107   0.679   2.619   1.666 -0.2334  0.3569  0.7200
 9231TIP3    H149108   0.617   2.681   1.703  0.6308  1.3926  0.4668
 9231TIP3    H249109   0.765   2.657   1.682  0.2845 -0.4084 -0.0870
 9232TIP3   OH249110   0.311   1.255   4.968  0.3069 -0.0531 -0.1053
 9232TIP3    H149111   0.344   1.217   4.885 -0.6909 -0.5182 -0.3021
 9232TIP3    H249112   0.347   1.344   4.969  1.6371 -0.5517 -0.2673
 9233TIP3   OH249113   5.389   3.110  11.174  0.0588  0.1389 -0.0471
 9233TIP3    H149114   5.484   3.102  11.179  0.2216  2.2091  1.8193
 9233TIP3    H249115   5.369   3.100  11.081  1.5193 -4.6533 -0.0696
 9234TIP3   OH249116   6.544   0.647  15.783  0.3667 -0.6502 -0.1401
 9234TIP3    H149117   6.461   0.676  15.820 -0.8403 -1.8178 -1.7691
 9234TIP3    H249118   6.577   0.583  15.846 -0.3111 -0.6721  0.2046
 9235TIP3   OH249119   3.608   2.278   5.343 -0.1993  0.2044 -0.3664
 9235TIP3    H149120   3.675   2.231   5.391 -0.4681 -0.1651 -0.3497
 9235TIP3    H249121   3.619   2.370   5.368  0.9458  0.2946 -1.1353
 9236TIP3   OH249122   4.058   5.392  11.303 -0.1485 -0.3649  0.2150
 9236TIP3    H149123   3.968   5.378  11.331 -0.7215  2.5577  0.1769
 9236TIP3    H249124   4.111   5.374  11.381 -1.2233  2.0636  1.6456
 9237TIP3   OH249125   3.821   5.770   2.230  0.1924 -0.2100 -0.3703
 9237TIP3    H149126   3.879   5.842   2.252 -1.1574  0.8326 -0.0453
 9237TIP3    H249127   3.870   5.717   2.167  1.4076  0.7126 -0.2295
 9238TIP3   OH249128   5.084   0.250  12.373  0.8336  0.1315 -0.1667
 9238TIP3    H149129   5.096   0.341  12.345  1.6154 -0.2048 -0.9399
 9238TIP3    H249130   5.103   0.198  12.296 -1.8089 -0.6431 -0.3885
 9239TIP3   OH249131   4.115   3.542   1.312 -0.0407 -0.0332 -0.1532
 9239TIP3    H149132   4.154   3.458   1.290  0.0394  0.0384 -0.2868
 9239TIP3    H249133   4.021   3.529   1.297 -0.3775 -0.8920  2.3108
 9240TIP3   OH249134   0.455   4.855  12.936  0.1599 -0.1393  0.1785
 9240TIP3    H149135   0.430   4.900  13.017  0.1760  0.5611 -0.1970
 9240TIP3    H249136   0.387   4.881  12.873 -0.8548 -2.0712  0.3986
 9241TIP3   OH249137   2.170   0.083   1.626  0.1381 -0.2488 -0.4546
 9241TIP3    H149138   2.257   0.085   1.585  0.6127 -1.6071  0.4230
 9241TIP3    H249139   2.185   0.046   1.713 -1.4000 -1.1214 -0.5202
 9242TIP3   OH249140   2.501   4.678   4.135  0.4815  0.4940 -0.1780
 9242TIP3    H149141   2.444   4.642   4.067  0.1558  0.5511  0.0617
 9242TIP3    H249142   2.588   4.679   4.096  0.5741 -0.9168 -0.0457
 9243TIP3   OH249143   1.968   6.398  12.011 -0.0388  0.3068  0.2006
 9243TIP3    H149144   1.980   6.392  12.106 -0.0559  0.2787  0.2012
 9243TIP3    H249145   1.985   6.489  11.989  1.2513  0.0486  0.0537
 9244TIP3   OH249146   3.941   4.591   4.814 -0.0814 -0.2505 -0.6062
 9244TIP3    H149147   3.966   4.627   4.899 -0.4164 -0.7323 -0.2972
 9244TIP3    H249148   4.011   4.617   4.755 -0.2104  0.7174 -0.3427
 9245TIP3   OH249149   2.345   0.989   0.861 -0.3188  0.3696 -0.3511
 9245TIP3    H149150   2.354   1.049   0.935  2.0178  0.4955 -0.6707
 9245TIP3    H249151   2.348   1.045   0.784 -1.5644  0.1215 -0.6065
 9246TIP3   OH249152   5.013   1.592   3.644 -0.1680  0.6909 -0.0044
 9246TIP3    H149153   4.991   1.499   3.650  0.1040  0.4230 -2.3305
 9246TIP3    H249154   5.078   1.606   3.713  0.7723 -1.1590 -0.4563
 9247TIP3   OH249155   0.899   4.402   4.357 -0.3583  0.3327 -0.1007
 9247TIP3    H149156   0.979   4.359   4.327  1.2865  1.7225  2.0280
 9247TIP3    H249157   0.848   4.416   4.277  0.9112 -1.7457 -1.3518
 9248TIP3   OH249158   3.113   6.737  13.056 -0.2091  0.2595 -0.6011
 9248TIP3    H149159   3.075   6.792  13.124  1.4617  0.9479 -0.1851
 9248TIP3    H249160   3.168   6.796  13.005  0.1808 -0.6696 -1.2815
 9249TIP3   OH249161   2.976   0.796  16.287  0.0146 -0.0379  0.3443
 9249TIP3    H149162   2.891   0.771  16.325  0.3036  0.1585  1.1471
 9249TIP3    H249163   3.018   0.847  16.356 -0.1740  1.8964 -0.9018
 9250TIP3   OH249164   0.512   1.136  13.485 -0.3279  0.7983  0.1194
 9250TIP3    H149165   0.509   1.149  13.390  0.7758  0.2274 -0.0140
 9250TIP3    H249166   0.443   1.193  13.519  0.0988  2.0064 -0.9281
 9251TIP3   OH249167   1.249   6.668  13.826  0.2854 -0.1051 -0.6147
 9251TIP3    H149168   1.215   6.611  13.756 -1.8055  1.8604 -1.3253
 9251TIP3    H249169   1.333   6.700  13.792  1.0032 -1.8502 -0.6353
 9252TIP3   OH249170   6.628   4.899   3.334 -0.0226 -0.2678 -0.0985
 9252TIP3    H149171   6.692   4.907   3.405  0.3922  1.3507 -0.6087
 9252TIP3    H249172   6.547   4.935   3.369 -0.0332 -0.2131 -0.1770
 9253TIP3   OH249173   4.962   3.448   4.119  0.1398 -0.5238  0.2876
 9253TIP3    H149174   5.029   3.394   4.078  0.6743 -0.7625  1.4211
 9253TIP3    H249175   4.946   3.406   4.204 -1.6605 -0.6294 -0.0710
 9254TIP3   OH249176   4.567   2.617   3.125 -0.2555 -0.2148  0.1878
 9254TIP3    H149177   4.551   2.538   3.175  0.7236  0.3469  1.4669
 9254TIP3    H249178   4.543   2.688   3.184  2.7210  0.5254  0.7008
 9255TIP3   OH249179   2.643   6.445   2.351  0.3393 -0.5562  0.1577
 9255TIP3    H149180   2.660   6.393   2.430 -0.2380  0.0898  0.7156
 9255TIP3    H249181   2.548   6.441   2.339  0.4166 -0.6224 -0.4981
 9256TIP3   OH249182   3.865   0.505  14.169 -0.7762  0.3281  0.3192
 9256TIP3    H149183   3.838   0.558  14.094  1.6775 -0.4835 -1.2363
 9256TIP3    H249184   3.814   0.425  14.161 -0.1695  0.0389 -0.8222
 9257TIP3   OH249185   3.765   4.744   5.127 -0.2200  0.7330 -0.2929
 9257TIP3    H149186   3.841   4.721   5.179 -0.8953 -0.8933  0.0267
 9257TIP3    H249187   3.798   4.808   5.064  1.5814 -0.4132 -0.5975
 9258TIP3   OH249188   0.025   3.650  16.209 -0.5736 -0.2468  0.5252
 9258TIP3    H149189   0.010   3.612  16.123 -0.2859 -0.2856  0.4945
 9258TIP3    H249190   0.113   3.687  16.205 -0.6151 -0.1182  0.7526
 9259TIP3   OH249191   5.581   5.376  11.931 -0.1462 -0.0019  0.0961
 9259TIP3    H149192   5.638   5.446  11.897  0.8134 -1.4216 -1.3665
 9259TIP3    H249193   5.540   5.340  11.853 -1.2010 -0.6007  0.9132
 9260TIP3   OH249194   5.592   4.381  12.703  0.4023  0.2865  0.6903
 9260TIP3    H149195   5.623   4.325  12.774 -1.0989 -0.5487  0.7152
 9260TIP3    H249196   5.585   4.322  12.628 -0.4899  0.5930  0.5225
 9261TIP3   OH249197   6.432   5.538  12.923 -0.3055 -0.3527 -0.4086
 9261TIP3    H149198   6.446   5.629  12.951  3.5279 -0.7262 -0.4503
 9261TIP3    H249199   6.455   5.538  12.830  0.7774 -1.4848 -0.1667
 9262TIP3   OH249200   2.192   4.557   3.903  0.3839 -0.3825  0.2554
 9262TIP3    H149201   2.139   4.499   3.850 -0.3658 -0.4413  1.0552
 9262TIP3    H249202   2.272   4.507   3.920  1.3356  0.1949 -2.0451
 9263TIP3   OH249203   4.204   0.304   2.600  0.1361 -0.0277  0.4781
 9263TIP3    H149204   4.135   0.371   2.603  1.1688  1.1673 -1.0369
 9263TIP3    H249205   4.235   0.298   2.690  0.1440  1.6998  0.6278
 9264TIP3   OH249206   4.576   0.160   1.725  0.3879 -0.0978  0.4904
 9264TIP3    H149207   4.574   0.121   1.812  0.3782 -0.2017  0.4432
 9264TIP3    H249208   4.498   0.126   1.681 -0.6211  1.3781  1.0539
 9265TIP3   OH249209   1.331   3.678   2.440 -0.2618 -0.6793 -0.0827
 9265TIP3    H149210   1.343   3.584   2.423  1.5421 -0.1733 -2.0163
 9265TIP3    H249211   1.338   3.686   2.535  1.7270 -2.2870 -0.0210
 9266TIP3   OH249212   3.340   4.977   0.160  0.3527 -0.4971  0.1251
 9266TIP3    H149213   3.361   4.964   0.067 -1.6036  1.4333 -0.6942
 9266TIP3    H249214   3.244   4.977   0.162  0.3620 -0.7395  2.2248
 9267TIP3   OH249215   5.441   4.804   1.402 -0.3904  1.0362  0.1077
 9267TIP3    H149216   5.452   4.716   1.367 -3.1802  0.4119  0.5852
 9267TIP3    H249217   5.469   4.798   1.493  0.5131  0.9573 -0.1673
 9268TIP3   OH249218   0.666   5.875  12.871 -0.1609 -0.0086  0.0780
 9268TIP3    H149219   0.702   5.837  12.791  1.6953 -0.7706  1.2155
 9268TIP3    H249220   0.742   5.889  12.927 -1.3678  0.9019  1.5619
 9269TIP3   OH249221   1.472   4.730   5.869 -0.3032 -0.1797 -0.4317
 9269TIP3    H149222   1.514   4.645   5.885 -1.6647 -0.5018  1.9560
 9269TIP3    H249223   1.545   4.791   5.860  0.6936 -1.2515  0.0854
 9270TIP3   OH249224   1.045   3.699  13.306  0.0102 -0.2112  0.1626
 9270TIP3    H149225   1.093   3.758  13.363 -0.8174  0.7109 -0.0747
 9270TIP3    H249226   1.070   3.725  13.217  2.3094 -2.4787  0.0337
 9271TIP3   OH249227   4.687   1.151   0.607  0.1517 -0.0189  0.0411
 9271TIP3    H149228   4.663   1.122   0.695  0.9823 -0.1511  0.2336
 9271TIP3    H249229   4.649   1.085   0.549 -1.3907  0.6807  0.2057
 9272TIP3   OH249230   3.074   3.899   3.086 -0.0080  0.5298 -0.4302
 9272TIP3    H149231   3.067   3.851   3.004 -0.3111 -1.1406  0.5238
 9272TIP3    H249232   3.137   3.849   3.138 -1.6429  0.1363  1.2714
 9273TIP3   OH249233   1.770   5.733   3.913 -0.2157 -0.0865 -0.7982
 9273TIP3    H149234   1.698   5.672   3.894  0.5180 -1.1961 -0.1867
 9273TIP3    H249235   1.759   5.804   3.850 -2.0819 -0.0236 -0.4338
 9274TIP3   OH249236   2.586   0.051  14.446 -0.4928 -0.6299 -0.0566
 9274TIP3    H149237   2.616   0.102  14.521  0.0179 -0.3684 -0.4406
 9274TIP3    H249238   2.490   0.049  14.455 -0.5371  0.6106 -0.1779
 9275TIP3   OH249239   1.585   3.342  16.797  0.3573 -0.2377 -0.3801
 9275TIP3    H149240   1.586   3.344  16.701 -1.1594 -0.1608 -0.4162
 9275TIP3    H249241   1.509   3.288  16.819  0.8368 -0.4634  0.7945
 9276TIP3   OH249242   1.141   1.660  10.852 -0.0126 -0.3709 -0.0992
 9276TIP3    H149243   1.225   1.626  10.822 -0.8742 -2.2064 -0.5818
 9276TIP3    H249244   1.086   1.662  10.774 -0.3132  1.2377  0.1240
 9277TIP3   OH249245   2.170   4.551   5.930 -0.4141 -0.4644 -0.6842
 9277TIP3    H149246   2.093   4.530   5.983 -1.3454 -1.8206 -2.4459
 9277TIP3    H249247   2.134   4.586   5.848  1.0080  2.8389 -0.0543
 9278TIP3   OH249248   0.959   3.003  12.031 -0.3212 -0.4537 -0.1561
 9278TIP3    H149249   0.920   2.968  11.951  0.0968  0.0697 -0.5984
 9278TIP3    H249250   0.884   3.016  12.090 -0.6829 -0.4860 -0.6013
 9279TIP3   OH249251   0.807   2.028   5.914 -0.1210  0.0647  0.5521
 9279TIP3    H149252   0.784   2.092   5.846 -1.9558 -0.5694  0.5265
 9279TIP3    H249253   0.897   2.050   5.938 -0.3343  1.9679 -0.2183
 9280TIP3   OH249254   5.218   6.073  17.078 -0.1627 -0.4089  0.1009
 9280TIP3    H149255   5.185   6.158  17.051 -2.1078 -0.7271  1.2593
 9280TIP3    H249256   5.171   6.053  17.159  1.1493 -2.0412  0.5368
 9281TIP3   OH249257   4.840   5.809  12.770  0.1189 -0.0468  0.3459
 9281TIP3    H149258   4.853   5.876  12.837  3.0849 -0.9318  0.7955
 9281TIP3    H249259   4.830   5.727  12.819  1.7138 -0.6196 -0.2249
 9282TIP3   OH249260   1.040   1.432  14.232  0.3893  0.0099 -0.4481
 9282TIP3    H149261   1.054   1.479  14.314  0.2071 -0.5760 -0.0743
 9282TIP3    H249262   1.122   1.445  14.183  0.3804  0.6185 -0.3118
 9283TIP3   OH249263   5.162   2.080   0.924  0.1716 -0.1072 -0.0251
 9283TIP3    H149264   5.077   2.041   0.903  0.2196 -0.2607  0.0687
 9283TIP3    H249265   5.206   2.016   0.979  1.0281 -0.7722 -1.4198
 9284TIP3   OH249266   4.349   1.461   2.107  0.2000  0.1688 -0.2363
 9284TIP3    H149267   4.278   1.524   2.118  0.6752  0.5426  0.8835
 9284TIP3    H249268   4.416   1.508   2.057  0.2494  0.3167 -0.0346
 9285TIP3   OH249269   4.098   1.569   1.688  0.2296 -0.3848  0.3203
 9285TIP3    H149270   4.140   1.565   1.602 -0.2155 -0.6932  0.1171
 9285TIP3    H249271   4.025   1.508   1.682  0.0902 -0.2732  0.8618
 9286TIP3   OH249272   0.884   0.798  14.783 -0.4921  0.2762 -0.0021
 9286TIP3    H149273   0.960   0.833  14.737 -0.3909  3.7885  2.3994
 9286TIP3    H249274   0.877   0.853  14.862 -4.1194 -1.4383  1.0815
 9287TIP3   OH249275   5.662   4.642   1.744 -0.0415  0.2290  0.0622
 9287TIP3    H149276   5.742   4.693   1.757  0.7294 -1.0284  0.4433
 9287TIP3    H249277   5.605   4.667   1.817 -0.3553  1.7205 -0.6434
 9288TIP3   OH249278   5.646   4.580  15.276 -0.2581 -0.0464  0.4249
 9288TIP3    H149279   5.726   4.541  15.310  0.2629 -0.5114 -1.2117
 9288TIP3    H249280   5.595   4.506  15.244 -1.2489  0.2692  1.2444
 9289TIP3   OH249281   2.046   6.111   1.296 -0.1424  0.2259  0.0953
 9289TIP3    H149282   2.074   6.157   1.217  2.1594 -1.2356 -0.0395
 9289TIP3    H249283   1.967   6.157   1.324  0.1183  2.0532 -1.9088
 9290TIP3   OH249284   1.418   2.646   5.961 -0.1838  0.1235 -0.2907
 9290TIP3    H149285   1.371   2.599   6.030 -1.7122 -0.2352 -1.5278
 9290TIP3    H249286   1.494   2.684   6.006 -1.7980  1.0349  1.8993
 9291TIP3   OH249287   3.183   2.874  17.103  0.5426  0.1269  0.4099
 9291TIP3    H149288   3.208   2.844  17.015  2.7337  2.0593  0.3061
 9291TIP3    H249289   3.115   2.812  17.130  1.3560 -1.8568 -1.7467
 9292TIP3   OH249290   5.773   2.235   0.429  0.1650 -0.7864  0.2817
 9292TIP3    H149291   5.719   2.157   0.417 -0.0693 -0.8858  1.7429
 9292TIP3    H249292   5.709   2.306   0.440  0.3765 -0.4246 -0.7404
 9293TIP3   OH249293   3.555   3.501  13.811  0.4165  0.0243  0.6509
 9293TIP3    H149294   3.485   3.441  13.838  0.3219 -0.1039  0.1312
 9293TIP3    H249295   3.626   3.444  13.782  0.2291  0.1614 -0.0869
 9294TIP3   OH249296   3.269   4.689  16.378 -0.1806  0.4094  0.0486
 9294TIP3    H149297   3.244   4.781  16.381  0.9702  0.7605 -0.7911
 9294TIP3    H249298   3.349   4.687  16.327  1.4969 -0.7083  2.5325
 9295TIP3   OH249299   4.934   5.510   3.407  0.3328  0.6703  0.1068
 9295TIP3    H149300   4.981   5.427   3.397  1.3163  1.1711  0.4646
 9295TIP3    H249301   4.873   5.494   3.479  0.8708  0.4031  0.5140
 9296TIP3   OH249302   5.184   2.025   3.863  0.2817 -0.5579 -0.6076
 9296TIP3    H149303   5.217   2.036   3.952  1.3037 -0.9169 -0.9338
 9296TIP3    H249304   5.113   1.960   3.872 -1.5518  1.4512  0.3499
 9297TIP3   OH249305   4.822   4.463   3.125  0.7198 -0.0236 -0.0049
 9297TIP3    H149306   4.756   4.484   3.058  0.1251 -1.0015  0.2566
 9297TIP3    H249307   4.771   4.440   3.203  1.4114  2.0152  1.1150
 9298TIP3   OH249308   6.178   5.766  11.343  0.5821 -0.1553 -0.2176
 9298TIP3    H149309   6.273   5.757  11.354  0.5385  0.1035  0.4569
 9298TIP3    H249310   6.168   5.828  11.271  0.9107 -1.2945 -1.2620
 9299TIP3   OH249311   0.823   6.279  13.059  0.4278  0.0420 -0.3502
 9299TIP3    H149312   0.770   6.213  13.103 -1.2594  0.4304 -1.6753
 9299TIP3    H249313   0.881   6.228  13.001  0.9476 -0.3555  0.5053
 9300TIP3   OH249314   5.920   2.707  14.179  0.2461  0.3388  0.1996
 9300TIP3    H149315   5.887   2.715  14.089 -0.1087  0.6281  0.3572
 9300TIP3    H249316   6.010   2.738  14.173  0.0937  0.7655  0.0248
 9301TIP3   OH249317   4.902   1.818   0.843 -0.5020 -0.1339  0.4717
 9301TIP3    H149318   4.861   1.737   0.812 -0.7808 -0.1802  0.9438
 9301TIP3    H249319   4.995   1.797   0.849 -0.7241 -0.8484  1.8516
 9302TIP3   OH249320   4.646   5.913  13.633  0.1609 -0.3334  0.1760
 9302TIP3    H149321   4.561   5.868  13.630  0.6186 -1.2761  0.8420
 9302TIP3    H249322   4.628   5.993  13.682 -0.4606 -0.2723 -0.1426
 9303TIP3   OH249323   4.972   1.620   0.235 -0.2738 -0.2056  0.3456
 9303TIP3    H149324   4.989   1.564   0.159  0.4242 -0.5960  0.7803
 9303TIP3    H249325   4.994   1.708   0.205  0.0374 -0.3629  0.0993
 9304TIP3   OH249326   4.159   2.526  13.252 -0.1668 -0.0525 -0.3088
 9304TIP3    H149327   4.217   2.451  13.237 -0.9697 -0.3193 -2.3318
 9304TIP3    H249328   4.108   2.534  13.171 -2.7131  0.3914  1.2138
 9305TIP3   OH249329   1.812   4.480   3.200  0.4541  0.3350  0.0017
 9305TIP3    H149330   1.886   4.484   3.140 -0.6541 -1.1992 -1.5911
 9305TIP3    H249331   1.759   4.557   3.178  1.3271  1.2018  0.8530
 9306TIP3   OH249332   4.752   4.453  15.679 -0.0967  0.6229  0.5788
 9306TIP3    H149333   4.741   4.360  15.658 -1.4432  0.5244  1.6046
 9306TIP3    H249334   4.743   4.458  15.774 -2.3081  2.0489  0.3777
 9307TIP3   OH249335   3.283   1.536  13.012  0.2531  0.2810 -0.5040
 9307TIP3    H149336   3.344   1.498  12.949 -0.7273 -2.0964 -0.0988
 9307TIP3    H249337   3.331   1.537  13.095  1.2564  2.6642 -1.0230
 9308TIP3   OH249338   5.452   3.044   1.948  0.3709  0.1412  0.0823
 9308TIP3    H149339   5.430   2.964   1.901  3.2154  0.0263 -1.3099
 9308TIP3    H249340   5.489   3.014   2.031  0.3255  0.0646  0.0748
 9309TIP3   OH249341   6.072   6.354  15.690  0.7148 -0.0333  0.0283
 9309TIP3    H149342   6.027   6.436  15.711 -0.4924 -0.5248 -0.5189
 9309TIP3    H249343   6.068   6.304  15.771  2.5153  0.8659  0.7390
 9310TIP3   OH249344   1.097   3.425   2.350  0.0099  0.2393  0.5834
 9310TIP3    H149345   1.134   3.434   2.438 -1.1579  0.8875  1.0146
 9310TIP3    H249346   1.091   3.330   2.337  0.4800  0.1356  1.0758
 9311TIP3   OH249347   1.240   5.218  11.858  1.3846  0.3974 -0.0838
 9311TIP3    H149348   1.239   5.124  11.871 -3.0979  0.0826 -0.8940
 9311TIP3    H249349   1.237   5.230  11.763  1.6988  1.3705  0.0141
 9312TIP3   OH249350   1.322   0.397  16.545 -0.0269 -0.2193 -0.3738
 9312TIP3    H149351   1.332   0.485  16.581 -0.2202 -0.6817  0.8449
 9312TIP3    H249352   1.411   0.363  16.543  0.1399  0.2216 -1.4829
 9313TIP3   OH249353   3.807   3.355  13.269 -0.2194  0.1258  0.5507
 9313TIP3    H149354   3.796   3.450  13.279  1.6349  0.5619 -0.8579
 9313TIP3    H249355   3.855   3.329  13.348  1.6139  0.8988 -0.2413
 9314TIP3   OH249356   1.749   3.328   4.263 -0.1659 -0.3915 -0.1367
 9314TIP3    H149357   1.663   3.370   4.268  0.9102  1.9556  0.4030
 9314TIP3    H249358   1.804   3.381   4.321  1.9074 -1.1258 -1.3503
 9315TIP3   OH249359   6.097   1.630   0.618 -0.3985  0.4617 -0.1651
 9315TIP3    H149360   6.081   1.718   0.584 -0.3273  0.4288 -0.2834
 9315TIP3    H249361   6.088   1.640   0.713 -0.8523  0.4984 -0.2096
 9316TIP3   OH249362   4.917   5.249   2.882 -0.0858  0.4681  0.0849
 9316TIP3    H149363   4.936   5.181   2.946  1.8754 -0.0588 -1.0089
 9316TIP3    H249364   4.953   5.329   2.921  1.7660  0.0221 -0.6026
 9317TIP3   OH249365   4.106   2.535   4.706  0.3030  0.1366  0.1292
 9317TIP3    H149366   4.055   2.615   4.698  0.7125  0.2258 -2.4245
 9317TIP3    H249367   4.150   2.543   4.790 -2.4256  0.8808  1.6036
 9318TIP3   OH249368   1.597   5.889  16.050 -0.3555  0.1297 -0.2097
 9318TIP3    H149369   1.521   5.940  16.079 -0.1135 -0.5440  1.7436
 9318TIP3    H249370   1.586   5.803  16.090  1.6609  0.1675  0.5901
 9319TIP3   OH249371   2.902   2.217   4.344  0.5160  0.6457  0.5814
 9319TIP3    H149372   2.835   2.283   4.328  0.2437  0.8851  2.4457
 9319TIP3    H249373   2.877   2.143   4.289 -0.6396  1.1421  0.4130
 9320TIP3   OH249374   6.072   4.270  15.787  0.1880 -0.0304  0.2877
 9320TIP3    H149375   6.003   4.308  15.841  0.0140 -0.1761  0.1666
 9320TIP3    H249376   6.146   4.330  15.797  0.2620 -0.2129  0.9321
 9321TIP3   OH249377   2.116   6.293   5.688 -0.3094 -0.1062  0.0358
 9321TIP3    H149378   2.153   6.281   5.775 -0.3689  0.4067  0.1365
 9321TIP3    H249379   2.182   6.259   5.628 -1.0518 -2.2506  0.3503
 9322TIP3   OH249380   5.820   6.703   0.757 -0.5546  0.4659 -0.1983
 9322TIP3    H149381   5.804   6.743   0.672 -0.4593 -1.6626 -1.2745
 9322TIP3    H249382   5.874   6.766   0.804  1.4318  0.6888 -2.6165
 9323TIP3   OH249383   4.856   2.955   3.134 -0.4434 -0.1224 -0.1043
 9323TIP3    H149384   4.840   3.049   3.132 -0.0530 -0.0645 -0.4647
 9323TIP3    H249385   4.950   2.945   3.120 -0.5994 -0.5953 -0.9365
 9324TIP3   OH249386   4.351   3.932   1.787  0.4588  0.1683  0.0111
 9324TIP3    H149387   4.343   4.023   1.816  2.3374  0.7579 -1.1247
 9324TIP3    H249388   4.426   3.898   1.837 -0.2295 -0.7773  0.4234
 9325TIP3   OH249389   5.552   2.630  11.799 -0.0943  0.4368 -0.1637
 9325TIP3    H149390   5.612   2.678  11.856 -1.6581  2.8924 -0.4607
 9325TIP3    H249391   5.465   2.661  11.823 -1.3766 -3.0228  0.2805
 9326TIP3   OH249392   3.560   5.094  14.554  0.0645  0.4049  0.1751
 9326TIP3    H149393   3.632   5.138  14.508 -0.4875  0.1617 -0.9478
 9326TIP3    H249394   3.552   5.143  14.636  0.4690  1.4487 -0.3793
 9327TIP3   OH249395   4.468   6.132  12.598 -0.3637 -0.2441  0.2798
 9327TIP3    H149396   4.399   6.121  12.532 -1.3936 -1.7376  1.5267
 9327TIP3    H249397   4.487   6.043  12.627  1.2339  0.2616  0.8599
 9328TIP3   OH249398   0.864   2.447  12.314  0.0048  0.6025  0.7746
 9328TIP3    H149399   0.915   2.368  12.328 -0.3093  0.2444 -0.0293
 9328TIP3    H249400   0.929   2.516  12.302  0.2925  0.2894  0.5090
 9329TIP3   OH249401   6.312   5.554   5.315 -0.1108  0.1892  0.1617
 9329TIP3    H149402   6.346   5.548   5.404 -1.8351  2.0703  1.0455
 9329TIP3    H249403   6.254   5.479   5.305 -1.3249  0.9181  1.3590
 9330TIP3   OH249404   4.307   4.652   0.021 -0.0585  0.2451 -0.4066
 9330TIP3    H149405   4.301   4.741  -0.014 -1.9616  0.0561 -0.6640
 9330TIP3    H249406   4.219   4.633   0.055  0.6437 -1.0834  0.7881
 9331TIP3   OH249407   4.772   2.010   6.021  0.6714 -0.8738 -0.1518
 9331TIP3    H149408   4.730   1.990   5.937 -0.9911 -2.8371  1.0304
 9331TIP3    H249409   4.841   1.944   6.029 -0.1620 -1.6694  0.6538
 9332TIP3   OH249410   1.405   6.281  12.258  0.5928  0.2912  0.1211
 9332TIP3    H149411   1.369   6.220  12.193  0.5289  1.0390 -0.5665
 9332TIP3    H249412   1.328   6.325  12.295  0.4617 -1.4543  2.1173
 9333TIP3   OH249413   0.733   3.742  13.875  0.0799  0.4900  0.6707
 9333TIP3    H149414   0.645   3.714  13.850  1.2307 -0.8140 -2.4556
 9333TIP3    H249415   0.744   3.828  13.833  0.2298  0.7622  1.2547
 9334TIP3   OH249416   5.755   5.672   2.794  0.0792  0.1293  0.0852
 9334TIP3    H149417   5.802   5.588   2.797 -0.6959 -0.3997 -1.3407
 9334TIP3    H249418   5.822   5.737   2.811  0.6390 -0.7768  1.5714
 9335TIP3   OH249419   3.634   5.723  13.494  0.4987 -0.6084 -0.8141
 9335TIP3    H149420   3.718   5.767  13.510 -0.2121  0.8267 -0.8209
 9335TIP3    H249421   3.654   5.653  13.433  2.0492 -1.6505  0.8023
 9336TIP3   OH249422   0.413   2.970   1.401  0.0589 -0.1032  0.2713
 9336TIP3    H149423   0.426   2.995   1.310  1.4738  0.3227  0.5654
 9336TIP3    H249424   0.327   3.005   1.424 -0.2214 -0.0515 -0.8329
 9337TIP3   OH249425   4.001   4.041  14.292 -0.1942  0.0543  0.7809
 9337TIP3    H149426   4.007   4.083  14.206  1.9301 -1.5695  0.0625
 9337TIP3    H249427   3.915   3.999  14.293 -0.4442  0.5232 -0.3389
 9338TIP3   OH249428   3.579   5.640  15.594  0.2623 -0.3173  0.8186
 9338TIP3    H149429   3.533   5.719  15.568 -0.4416 -0.8697  0.3719
 9338TIP3    H249430   3.664   5.672  15.627  0.0434  0.6010  0.5225
 9339TIP3   OH249431   2.239   0.709  17.064  0.3444  0.4221 -0.1408
 9339TIP3    H149432   2.317   0.655  17.048  0.7669  0.8985  0.2942
 9339TIP3    H249433   2.273   0.788  17.105 -0.5141  0.0162  1.4170
 9340TIP3   OH249434   2.653   6.561   3.595 -0.0110 -0.2473  0.1731
 9340TIP3    H149435   2.625   6.651   3.578  0.1284 -0.4094 -1.0310
 9340TIP3    H249436   2.738   6.570   3.637  0.0323  0.1932 -0.0021
 9341TIP3   OH249437   4.421   3.274  15.112 -0.0083 -0.3792 -0.0708
 9341TIP3    H149438   4.354   3.285  15.045 -0.4557  0.5380  0.5047
 9341TIP3    H249439   4.379   3.222  15.180 -0.2633  0.4519  0.4287
 9342TIP3   OH249440   2.873   6.711   5.601 -0.3801 -0.0273  0.0196
 9342TIP3    H149441   2.875   6.750   5.688  3.7728 -1.1510  0.6224
 9342TIP3    H249442   2.888   6.785   5.541 -0.6122  0.3828  0.4606
 9343TIP3   OH249443   1.030   0.101  13.584  0.1925 -0.1264 -0.4619
 9343TIP3    H149444   1.106   0.119  13.530  1.0760 -0.4899  0.6291
 9343TIP3    H249445   1.051   0.139  13.669 -0.6327 -0.6567 -0.0046
 9344TIP3   OH249446   1.433   4.159  15.980 -0.2459  0.1684  0.0185
 9344TIP3    H149447   1.460   4.227  15.918  2.1889 -0.1886  0.5643
 9344TIP3    H249448   1.479   4.080  15.950 -1.2116 -0.6907  0.7275
 9345TIP3   OH249449   4.018   5.218   6.461 -0.4250 -0.2398 -0.1077
 9345TIP3    H149450   3.987   5.278   6.394  2.4984 -0.5177 -1.8953
 9345TIP3    H249451   4.098   5.259   6.495  1.7897 -3.0197 -1.5051
 9346TIP3   OH249452   3.671   6.367   5.174 -0.2713  0.3144 -0.5000
 9346TIP3    H149453   3.627   6.363   5.090 -0.2992 -0.6269 -0.4406
 9346TIP3    H249454   3.756   6.409   5.154  0.0158 -0.5459 -1.1214
 9347TIP3   OH249455   4.327   2.838   3.046 -0.0310 -0.1535 -0.4815
 9347TIP3    H149456   4.395   2.824   3.112  0.2853 -1.6528 -1.0819
 9347TIP3    H249457   4.298   2.750   3.023 -2.5888  0.4322  0.1351
 9348TIP3   OH249458   2.938   6.641  12.005 -0.2090 -0.1878 -0.1270
 9348TIP3    H149459   3.015   6.625  11.950  1.6202  1.8218  1.6147
 9348TIP3    H249460   2.936   6.736  12.016 -1.5715 -0.3794  1.7615
 9349TIP3   OH249461   4.421   5.607  11.052 -0.1236 -0.4837  0.5042
 9349TIP3    H149462   4.473   5.562  10.985 -0.4851 -1.2628  0.7431
 9349TIP3    H249463   4.447   5.699  11.043 -1.3603 -0.2752 -1.8376
 9350TIP3   OH249464   4.196   0.034   4.450 -0.1336 -0.1056  0.1887
 9350TIP3    H149465   4.159  -0.046   4.410 -1.9807  0.1508  1.2626
 9350TIP3    H249466   4.120   0.092   4.460  1.3089  2.1929 -1.3877
 9351TIP3   OH249467   3.284   1.785  13.247 -0.7898  0.3286  0.1142
 9351TIP3    H149468   3.251   1.788  13.337 -1.5300 -2.1062 -0.0203
 9351TIP3    H249469   3.379   1.776  13.257 -0.7515  1.1370  0.6077
 9352TIP3   OH249470   4.227   1.458   4.894 -0.2971  0.2463  0.6721
 9352TIP3    H149471   4.280   1.533   4.923  0.2121 -0.5844  1.9853
 9352TIP3    H249472   4.278   1.382   4.921 -0.9832 -0.5844 -0.3261
 9353TIP3   OH249473   6.431   6.262   3.484 -0.0933  0.4327 -0.0232
 9353TIP3    H149474   6.388   6.315   3.418  0.5174 -0.5962 -1.2940
 9353TIP3    H249475   6.498   6.212   3.436 -2.3468 -3.5612  0.5042
 9354TIP3   OH249476   6.333   4.209  12.926  0.2761 -0.7466  0.3860
 9354TIP3    H149477   6.313   4.133  12.981  0.3515  0.0446  1.5464
 9354TIP3    H249478   6.254   4.263  12.930  0.3720 -0.5602 -0.1056
 9355TIP3   OH249479   0.519   2.352  15.383 -0.0910  0.0487  0.9429
 9355TIP3    H149480   0.465   2.301  15.444 -0.5570 -0.8152 -0.1627
 9355TIP3    H249481   0.568   2.286  15.334  0.2529  0.7309  0.3541
 9356TIP3   OH249482   2.921   3.883  14.889 -0.2301 -0.5738  0.3312
 9356TIP3    H149483   3.001   3.927  14.861 -0.3052 -0.6190  0.0473
 9356TIP3    H249484   2.890   3.934  14.964  0.6071 -1.1347  1.0752
 9357TIP3   OH249485   6.531   4.274   2.018  0.2815 -0.6841  0.7610
 9357TIP3    H149486   6.606   4.217   2.032  0.2350 -1.7267 -2.3981
 9357TIP3    H249487   6.455   4.216   2.021  0.2090 -0.9243 -2.1422
 9358TIP3   OH249488   0.522   3.414  17.039 -0.3079 -0.6637 -0.4865
 9358TIP3    H149489   0.445   3.395  17.093  0.0172 -0.1287  0.1755
 9358TIP3    H249490   0.493   3.484  16.980  0.4106  1.5270  1.6048
 9359TIP3   OH249491   4.536   6.344  16.121  0.0515  0.0112 -0.8123
 9359TIP3    H149492   4.520   6.390  16.039  0.7740 -0.2763 -1.1189
 9359TIP3    H249493   4.518   6.252  16.101  0.8897 -0.1497 -0.8343
 9360TIP3   OH249494   2.133   4.380   0.926  0.1703  0.3160 -0.4800
 9360TIP3    H149495   2.186   4.321   0.872  2.0197  1.6385 -0.2343
 9360TIP3    H249496   2.121   4.333   1.008  0.8619 -0.0748 -0.5921
 9361TIP3   OH249497   6.004   3.280   0.212 -0.1383  0.3261 -0.4061
 9361TIP3    H149498   5.928   3.334   0.233  0.0875  0.1372  1.0042
 9361TIP3    H249499   6.077   3.342   0.207  0.2574  0.1650  1.9352
 9362TIP3   OH249500   6.643   5.288  13.610 -0.1554  0.1909 -0.1633
 9362TIP3    H149501   6.584   5.323  13.543 -0.4482 -1.6614 -0.9348
 9362TIP3    H249502   6.586   5.270  13.685 -0.6667 -1.6738 -0.9356
 9363TIP3   OH249503   5.107   3.975  14.509  0.5924  0.0954  0.0149
 9363TIP3    H149504   5.045   3.920  14.557  1.6857 -0.6050  0.6549
 9363TIP3    H249505   5.102   3.944  14.419  2.5043 -2.3617  0.6601
 9364TIP3   OH249506   5.773   2.221  16.595  0.4143 -0.6219  1.1314
 9364TIP3    H149507   5.693   2.209  16.543  0.6360 -0.0177  0.6336
 9364TIP3    H249508   5.813   2.300  16.559  2.4142 -2.1245 -0.1577
 9365TIP3   OH249509   0.970   0.817  12.153 -0.4777 -0.3826  0.7037
 9365TIP3    H149510   1.039   0.816  12.219  2.6273  0.8574 -2.2112
 9365TIP3    H249511   0.929   0.903  12.162  0.6274  0.1896  0.4085
 9366TIP3   OH249512   5.286   2.897  17.069  0.0640  0.1283 -0.5158
 9366TIP3    H149513   5.271   2.988  17.095 -2.2131 -0.5913  1.0343
 9366TIP3    H249514   5.251   2.892  16.980  1.3537  1.0216 -1.0959
 9367TIP3   OH249515   6.433   0.493   3.194 -0.5851 -0.0797 -0.4752
 9367TIP3    H149516   6.521   0.455   3.189 -0.7212 -0.4870  0.0396
 9367TIP3    H249517   6.374   0.422   3.169 -0.7508  0.2871 -1.1369
 9368TIP3   OH249518   6.022   4.071  13.374 -0.9147 -0.2020 -0.1939
 9368TIP3    H149519   5.945   4.125  13.360 -1.7176 -1.1423  0.5155
 9368TIP3    H249520   5.988   3.983  13.389  0.3210 -0.7457 -0.4338
 9369TIP3   OH249521   1.117   4.301   5.306  0.1649  0.8533  0.0461
 9369TIP3    H149522   1.077   4.370   5.252 -0.0788  0.7183  0.0516
 9369TIP3    H249523   1.051   4.231   5.308 -0.4385  1.4309  1.7009
 9370TIP3   OH249524   5.784   4.698  11.434  0.0405  0.2272  0.0184
 9370TIP3    H149525   5.742   4.677  11.350  0.3484 -0.6142  0.0648
 9370TIP3    H249526   5.782   4.794  11.438  0.9151  0.3465 -1.4254
 9371TIP3   OH249527   4.900   4.251   2.499 -0.0650  0.4003 -0.0441
 9371TIP3    H149528   4.874   4.343   2.506 -2.7284 -0.2350 -0.4340
 9371TIP3    H249529   4.898   4.219   2.589 -0.3076  0.4476 -0.0322
 9372TIP3   OH249530   2.964   3.590  16.075  0.6782 -0.6106 -0.0259
 9372TIP3    H149531   3.017   3.627  16.005  1.4951 -1.1887  0.2745
 9372TIP3    H249532   2.881   3.568  16.034  0.5976  0.4392 -0.4711
 9373TIP3   OH249533   1.218   6.189   3.521  0.0828  0.1672  0.4217
 9373TIP3    H149534   1.173   6.234   3.449 -0.0487  0.1994  0.5246
 9373TIP3    H249535   1.308   6.180   3.490  0.3769  1.4363  0.8103
 9374TIP3   OH249536   6.189   6.176  13.480 -0.1392 -0.3366 -0.2723
 9374TIP3    H149537   6.189   6.102  13.540  1.8581  0.0532  0.2825
 9374TIP3    H249538   6.281   6.202  13.473 -0.6263  1.2815 -1.4645
 9375TIP3   OH249539   3.390   5.437  10.961 -0.7012 -0.3538 -0.2177
 9375TIP3    H149540   3.383   5.440  11.057 -1.6891  0.1188 -0.2916
 9375TIP3    H249541   3.484   5.440  10.944 -0.4904  3.5178  0.6585
 9376TIP3   OH249542   5.497   6.733   6.133  0.5831  0.1283 -0.3170
 9376TIP3    H149543   5.450   6.805   6.092  0.4947 -0.4872 -1.3289
 9376TIP3    H249544   5.589   6.761   6.130  0.6020 -0.0015 -1.1418
 9377TIP3   OH249545   4.500   5.044   1.275  0.2503 -0.0200  0.5333
 9377TIP3    H149546   4.425   5.004   1.230  1.5852  0.0997 -1.9661
 9377TIP3    H249547   4.494   5.011   1.364 -1.3489 -2.0777 -0.2396
 9378TIP3   OH249548   3.505   4.762   1.203 -0.4994  0.2279  0.7433
 9378TIP3    H149549   3.520   4.764   1.108 -1.3449 -0.6075  0.5749
 9378TIP3    H249550   3.486   4.853   1.226 -1.4276  0.2666 -0.1006
 9379TIP3   OH249551   6.583   4.916   4.770 -0.1365 -0.7283  0.2397
 9379TIP3    H149552   6.640   4.932   4.845  0.7539 -0.0828 -0.5472
 9379TIP3    H249553   6.644   4.898   4.698 -0.7219  2.6829 -1.3048
 9380TIP3   OH249554   5.893   4.251   1.595 -0.1303 -0.3775  0.2188
 9380TIP3    H149555   5.940   4.326   1.558 -0.4000 -0.8710 -1.1712
 9380TIP3    H249556   5.960   4.202   1.643  0.2197  0.3150  0.4389
 9381TIP3   OH249557   0.602   0.693  11.071  0.6397 -0.8222 -0.3889
 9381TIP3    H149558   0.695   0.671  11.073  0.4565 -1.9060 -1.7482
 9381TIP3    H249559   0.586   0.718  10.980  0.3356  3.0116  0.5470
 9382TIP3   OH249560   2.094   4.307  13.219  0.7294 -0.2033 -0.1501
 9382TIP3    H149561   2.038   4.383  13.209  0.0688 -0.5329  0.9087
 9382TIP3    H249562   2.055   4.257  13.291 -0.1305 -2.6740 -2.2072
 9383TIP3   OH249563   5.624   5.470  15.042  0.0954 -0.0913  0.7850
 9383TIP3    H149564   5.635   5.452  15.136  0.0563  0.7985  0.9684
 9383TIP3    H249565   5.573   5.396  15.009 -0.0377 -0.3284  1.4994
 9384TIP3   OH249566   0.805   1.267   5.844  0.0770  0.0601  0.6118
 9384TIP3    H149567   0.754   1.252   5.923 -2.2903  0.7919 -0.6806
 9384TIP3    H249568   0.894   1.281   5.875 -0.7969  0.4586  3.1559
 9385TIP3   OH249569   0.235   5.099   3.005 -0.2953 -0.1176  0.0282
 9385TIP3    H149570   0.304   5.089   3.071 -0.2265 -0.3606 -0.0817
 9385TIP3    H249571   0.280   5.094   2.921 -0.2699  0.9629 -0.0446
 9386TIP3   OH249572   2.695   1.329   5.328 -0.1594 -0.6407 -0.0388
 9386TIP3    H149573   2.702   1.367   5.240 -1.1308  0.4837  0.3466
 9386TIP3    H249574   2.667   1.238   5.312 -2.6671  0.1758 -0.8994
 9387TIP3   OH249575   1.800   0.002  16.239 -0.3532  0.1944 -0.0392
 9387TIP3    H149576   1.772  -0.023  16.151 -0.6019  0.8878 -0.1638
 9387TIP3    H249577   1.853   0.081  16.226  3.6006 -2.1481 -0.0857
 9388TIP3   OH249578   6.483   4.430   5.712  0.4430 -0.1496  0.0614
 9388TIP3    H149579   6.553   4.465   5.658  1.0140  1.6026  1.8108
 9388TIP3    H249580   6.503   4.460   5.800 -1.9971 -0.3938  0.7867
 9389TIP3   OH249581   2.697   0.246  15.357 -0.8156  0.2882  0.3331
 9389TIP3    H149582   2.681   0.159  15.321 -1.2584  0.8450 -0.8817
 9389TIP3    H249583   2.613   0.290  15.351 -0.5820  0.8243  0.8968
 9390TIP3   OH249584   5.711   0.530   1.522  0.6444  0.0995  0.2272
 9390TIP3    H149585   5.736   0.559   1.434 -0.6783  0.4103 -0.0621
 9390TIP3    H249586   5.618   0.510   1.516  0.6256 -0.2920  1.4622
 9391TIP3   OH249587   2.172   2.683  14.468 -0.5078 -0.2587 -0.0849
 9391TIP3    H149588   2.260   2.677  14.433 -0.1408 -0.2578  0.8011
 9391TIP3    H249589   2.122   2.732  14.403  0.2764  0.1850 -0.3543
 9392TIP3   OH249590   6.605   5.466   0.300  0.2195  0.6862 -0.0585
 9392TIP3    H149591   6.697   5.454   0.277  0.0690 -0.6451 -0.0382
 9392TIP3    H249592   6.557   5.415   0.234 -0.2916 -2.1429  2.3038
 9393TIP3   OH249593   0.492   2.866   3.137  0.7292  0.2210  0.6708
 9393TIP3    H149594   0.417   2.824   3.094  1.9635 -2.3964  0.8749
 9393TIP3    H249595   0.455   2.910   3.213 -1.0229  1.9841 -1.0957
 9394TIP3   OH249596   6.707   5.823  11.786 -0.1705 -0.1239  0.0449
 9394TIP3    H149597   6.628   5.793  11.740  1.1221 -2.6480 -0.6911
 9394TIP3    H249598   6.777   5.815  11.721  1.6614 -3.3966  2.1563
 9395TIP3   OH249599   5.207   0.233  13.423  0.1745 -0.1292 -0.4654
 9395TIP3    H149600   5.215   0.160  13.485  0.5730  0.6441  0.4178
 9395TIP3    H249601   5.284   0.287  13.440 -0.4167  0.8071 -0.6868
 9396TIP3   OH249602   1.301   4.396  11.625 -0.6155 -0.0550  0.0391
 9396TIP3    H149603   1.228   4.426  11.570  0.1137  0.7258 -0.5353
 9396TIP3    H249604   1.293   4.300  11.626 -1.3136 -0.0096 -0.4850
 9397TIP3   OH249605   4.911   4.661   6.465  0.3947 -0.0269 -0.5418
 9397TIP3    H149606   4.891   4.596   6.398 -0.4085  0.9538 -1.3032
 9397TIP3    H249607   4.828   4.674   6.511  0.6299  0.2071 -0.1799
 9398TIP3   OH249608   2.934   1.921  15.598  0.0759 -0.1319 -0.8291
 9398TIP3    H149609   2.867   1.945  15.662  1.1936  0.0630  0.2854
 9398TIP3    H249610   2.890   1.931  15.513 -1.2768  0.0673 -0.1280
 9399TIP3   OH249611   1.403   5.182   0.676  0.0697  0.0928  0.0025
 9399TIP3    H149612   1.384   5.272   0.649 -1.9303  0.1464  1.3846
 9399TIP3    H249613   1.333   5.160   0.738  0.3451 -2.5270 -0.5162
 9400TIP3   OH249614   2.435   3.204   4.524 -0.0350  0.0740 -0.4510
 9400TIP3    H149615   2.525   3.210   4.554 -0.5007  0.2239  1.0258
 9400TIP3    H249616   2.397   3.132   4.573 -0.8381  0.2946 -0.7128
 9401TIP3   OH249617   4.774   6.216   5.000  0.0959 -0.0727  0.7424
 9401TIP3    H149618   4.811   6.129   5.014  1.2834  0.4001  0.6543
 9401TIP3    H249619   4.847   6.269   4.967 -1.0610  0.4752 -1.0775
 9402TIP3   OH249620   1.975   5.679   3.127 -0.2866  0.2157 -0.2030
 9402TIP3    H149621   2.049   5.622   3.109 -0.3254 -0.2028  0.9015
 9402TIP3    H249622   1.934   5.693   3.042  0.2199 -0.7073 -0.6070
 9403TIP3   OH249623   3.373   4.255  16.576 -0.0522  0.4108  0.2588
 9403TIP3    H149624   3.284   4.287  16.563 -0.4409 -0.2233  1.2326
 9403TIP3    H249625   3.373   4.219  16.664  1.6031  1.7688  0.8678
 9404TIP3   OH249626   4.279   1.230  12.132 -0.7952  0.2072  0.4538
 9404TIP3    H149627   4.196   1.262  12.096 -0.7423 -1.2427 -1.0877
 9404TIP3    H249628   4.329   1.202  12.056  0.0342 -1.4189  1.5354
 9405TIP3   OH249629   3.524   0.159  17.000 -0.1070 -0.1407  0.7686
 9405TIP3    H149630   3.470   0.190  16.927 -0.7902 -0.3863  1.1629
 9405TIP3    H249631   3.559   0.240  17.039  0.2567 -0.0078  0.1807
 9406TIP3   OH249632   0.709   2.473   0.764  0.7473  0.2473  0.6708
 9406TIP3    H149633   0.708   2.506   0.854  0.7486 -3.2843  2.1420
 9406TIP3    H249634   0.626   2.501   0.727  0.3304  0.9921  2.0868
 9407TIP3   OH249635   0.728   3.313   1.953  0.1152  0.2532 -0.2527
 9407TIP3    H149636   0.766   3.260   2.023 -1.0275  0.0946  0.2721
 9407TIP3    H249637   0.736   3.403   1.985 -1.8893  0.0925  0.9070
 9408TIP3   OH249638   0.630   3.487   0.990  0.2242  0.0913  0.2129
 9408TIP3    H149639   0.601   3.578   0.999 -0.8484  0.0068 -1.8201
 9408TIP3    H249640   0.555   3.435   1.018  0.7133 -0.1882  1.0360
 9409TIP3   OH249641   1.569   6.684  10.562  0.2318  0.0735  0.0546
 9409TIP3    H149642   1.608   6.646  10.641 -2.0417 -1.3699  0.5856
 9409TIP3    H249643   1.583   6.778  10.571 -0.8644  0.0843  2.7800
 9410TIP3   OH249644   3.810   0.943   0.167  0.5796 -0.4388 -0.3380
 9410TIP3    H149645   3.773   0.952   0.079  1.8106 -1.3808 -0.9861
 9410TIP3    H249646   3.788   1.025   0.211 -2.3219 -0.9427 -0.6211
 9411TIP3   OH249647   0.372   0.383  10.483 -0.1442 -0.1244  0.4321
 9411TIP3    H149648   0.277   0.375  10.481 -0.1732  0.0716  0.8917
 9411TIP3    H249649   0.388   0.471  10.518  0.1857  0.5703 -1.3784
 9412TIP3   OH249650   0.854   1.785   0.218 -0.5809 -0.4176  0.0193
 9412TIP3    H149651   0.891   1.835   0.146 -1.8733  0.0269 -0.3602
 9412TIP3    H249652   0.847   1.848   0.290 -0.1264 -0.6347  0.2581
 9413TIP3   OH249653   6.446   4.561  13.530 -0.5200 -0.4103  0.2328
 9413TIP3    H149654   6.392   4.634  13.559 -0.8648 -1.1266  1.4819
 9413TIP3    H249655   6.389   4.484  13.540 -0.3163 -0.8215 -1.4555
 9414TIP3   OH249656   2.515   3.730  10.971 -0.4082  0.2887  0.6202
 9414TIP3    H149657   2.490   3.659  11.030  1.4176 -0.7213  0.2523
 9414TIP3    H249658   2.539   3.687  10.890  0.3066  1.3604  0.2366
 9415TIP3   OH249659   1.956   0.599  12.945 -0.0911  0.0341 -0.0274
 9415TIP3    H149660   2.051   0.585  12.939  0.1481  0.8731  1.4800
 9415TIP3    H249661   1.946   0.667  13.011 -1.7212  0.4414 -0.6642
 9416TIP3   OH249662   1.615   4.445   3.799  0.4112 -0.4872  0.1944
 9416TIP3    H149663   1.624   4.527   3.750 -1.8817 -0.5714 -0.4988
 9416TIP3    H249664   1.699   4.433   3.842  0.7632  2.3661  0.5110
 9417TIP3   OH249665   6.117   1.153  13.636 -0.1809 -0.7961  0.4357
 9417TIP3    H149666   6.045   1.196  13.683 -0.7968 -1.1905 -0.1399
 9417TIP3    H249667   6.121   1.065  13.674 -0.7834 -1.1685 -0.3521
 9418TIP3   OH249668   2.951   6.579  13.966 -0.1054 -0.0202  0.3289
 9418TIP3    H149669   2.957   6.559  14.059  1.2445 -1.0858  0.0462
 9418TIP3    H249670   2.944   6.494  13.923  5.9878 -0.3006 -0.9383
 9419TIP3   OH249671   1.331   5.844  14.543  0.6513 -0.0044 -0.2037
 9419TIP3    H149672   1.324   5.918  14.603 -0.0020  0.1576 -0.4801
 9419TIP3    H249673   1.425   5.828  14.536  0.7431 -0.0052  0.8450
 9420TIP3   OH249674   1.978   6.651   4.355 -0.3638  0.1281  0.1310
 9420TIP3    H149675   2.022   6.570   4.383  1.0814  1.0125  0.5006
 9420TIP3    H249676   1.957   6.696   4.436  1.8575  1.6685 -0.0725
 9421TIP3   OH249677   0.240   2.203  15.534  0.1034  0.0896 -0.3002
 9421TIP3    H149678   0.297   2.180  15.608  0.5791 -0.3936 -0.8074
 9421TIP3    H249679   0.195   2.122  15.512 -0.4457  0.3657 -0.1946
 9422TIP3   OH249680   2.780   4.225   2.116 -0.5737  0.2111  0.3480
 9422TIP3    H149681   2.753   4.146   2.069 -0.4264  0.3722 -0.0153
 9422TIP3    H249682   2.713   4.290   2.093 -1.2545 -0.0794  1.4478
 9423TIP3   OH249683   3.763   0.472  15.661 -0.8044 -0.5890 -0.3724
 9423TIP3    H149684   3.763   0.483  15.566 -1.6634  2.1430 -0.1556
 9423TIP3    H249685   3.685   0.420  15.679 -0.6643 -1.0761 -1.1519
 9424TIP3   OH249686   1.129   4.815  13.851 -0.2811 -0.1841  0.7765
 9424TIP3    H149687   1.072   4.745  13.883 -2.2208  0.2325 -1.5120
 9424TIP3    H249688   1.193   4.771  13.795 -0.9178 -0.2541  0.0925
 9425TIP3   OH249689   6.308   3.738   5.473  0.0697  1.0353  0.1016
 9425TIP3    H149690   6.271   3.713   5.557  2.8103  0.2004  1.1600
 9425TIP3    H249691   6.354   3.821   5.490  1.4667  0.3754 -0.2775
 9426TIP3   OH249692   2.289   5.975   5.569 -0.0491  0.0864 -0.1777
 9426TIP3    H149693   2.297   5.903   5.506 -0.7066  1.6086 -2.1099
 9426TIP3    H249694   2.357   5.958   5.634  0.1721 -1.9646 -0.8571
 9427TIP3   OH249695   4.697   3.949  12.692 -0.0797  0.1826 -0.6280
 9427TIP3    H149696   4.652   3.888  12.633 -0.1643 -2.0862  1.6036
 9427TIP3    H249697   4.632   3.970  12.759  1.5693 -1.9818  1.8341
 9428TIP3   OH249698   3.559   5.851   3.079 -0.5203  0.6677 -0.0665
 9428TIP3    H149699   3.502   5.778   3.055  1.9801 -1.3044 -0.3953
 9428TIP3    H249700   3.499   5.923   3.099 -3.0667 -1.1621 -0.6864
 9429TIP3   OH249701   3.049   2.633   4.542 -0.6065 -0.3090  0.4701
 9429TIP3    H149702   3.141   2.651   4.526 -0.9855  1.3989  0.0564
 9429TIP3    H249703   3.048   2.588   4.627  0.5447  0.3757  0.8695
 9430TIP3   OH249704   0.948   2.673   1.719  0.2913 -0.0361  0.5077
 9430TIP3    H149705   0.995   2.671   1.635  0.0662 -0.3015  0.3878
 9430TIP3    H249706   0.977   2.755   1.760  0.8404 -0.1839  0.4268
 9431TIP3   OH249707   3.043   1.767   2.801  0.0476  0.1870 -0.5301
 9431TIP3    H149708   3.120   1.733   2.846 -2.5528 -2.6504  2.2679
 9431TIP3    H249709   2.970   1.715   2.835 -3.2142  2.8284 -2.7785
 9432TIP3   OH249710   5.930   5.714  17.005 -0.2049 -1.2062 -0.3116
 9432TIP3    H149711   5.998   5.670  16.954 -1.7403 -2.8453 -1.0757
 9432TIP3    H249712   5.889   5.643  17.054  0.1353  0.0969  1.9717
 9433TIP3   OH249713   3.468   0.946  14.126 -0.5721  0.1820  0.2525
 9433TIP3    H149714   3.380   0.933  14.162 -0.1223 -0.7245  1.0754
 9433TIP3    H249715   3.525   0.893  14.182  0.4512  0.4407 -0.5107
 9434TIP3   OH249716   3.098   0.530   5.490  0.1331 -0.2818 -0.2221
 9434TIP3    H149717   3.080   0.552   5.398 -0.2363 -0.2014 -0.1338
 9434TIP3    H249718   3.091   0.614   5.536 -0.8465 -0.4979  0.0507
 9435TIP3   OH249719   2.992   1.404  13.342  0.2347  0.5165  0.4966
 9435TIP3    H149720   3.049   1.344  13.391 -0.0609 -0.2600 -0.0757
 9435TIP3    H249721   2.914   1.413  13.397 -0.0012 -0.1738  0.2994
 9436TIP3   OH249722   4.505   5.247  12.163  0.0083 -0.0189  0.2648
 9436TIP3    H149723   4.489   5.214  12.075 -1.8475  1.0379  0.1460
 9436TIP3    H249724   4.424   5.228  12.211 -0.0024  1.6410  0.9909
 9437TIP3   OH249725   6.345   1.184   5.301 -0.0069 -0.2039  0.0319
 9437TIP3    H149726   6.394   1.253   5.256 -0.5754 -0.9320 -1.7897
 9437TIP3    H249727   6.308   1.228   5.378  0.4949  1.2497 -0.5152
 9438TIP3   OH249728   2.962   3.646  12.021 -0.0409 -0.3906  0.3681
 9438TIP3    H149729   2.893   3.692  12.068 -0.9975 -0.3635 -1.0139
 9438TIP3    H249730   2.992   3.579  12.082  0.4782  1.1864  1.9332
 9439TIP3   OH249731   1.900   1.079  16.732  0.4225 -0.1661  0.2698
 9439TIP3    H149732   1.892   1.146  16.664  0.0283  0.4497  0.9061
 9439TIP3    H249733   1.994   1.059  16.735  0.5364  0.3034  0.0134
 9440TIP3   OH249734   3.216   3.648   2.670  0.2378  0.5256 -0.0395
 9440TIP3    H149735   3.198   3.566   2.715 -1.0663  0.9291  0.2291
 9440TIP3    H249736   3.170   3.640   2.586 -1.5982  1.7063  0.7845
 9441TIP3   OH249737   2.008   2.975   4.506  0.4667 -0.3532  0.2873
 9441TIP3    H149738   2.043   2.939   4.425  0.5591 -3.8835  1.7377
 9441TIP3    H249739   1.920   3.007   4.482  1.0302 -0.0120 -1.4360
 9442TIP3   OH249740   6.145   1.353   5.064  0.0228 -0.3445 -0.0476
 9442TIP3    H149741   6.155   1.272   5.014  0.7351 -0.9507  1.0385
 9442TIP3    H249742   6.057   1.384   5.043 -0.1717 -1.2798 -0.6471
 9443TIP3   OH249743   2.327   6.166  13.666  0.1250  0.2366 -0.1984
 9443TIP3    H149744   2.367   6.081  13.649  0.7958 -0.1785  2.9455
 9443TIP3    H249745   2.260   6.149  13.732 -1.0437  1.8965 -0.8881
 9444TIP3   OH249746   6.535   3.597  13.754 -0.3303  0.2422  0.2401
 9444TIP3    H149747   6.444   3.626  13.760  0.1053  1.8015 -0.1711
 9444TIP3    H249748   6.544   3.569  13.663 -0.4064  0.0647  0.2872
 9445TIP3   OH249749   6.158   3.202  17.053  0.2762 -0.3407  0.1245
 9445TIP3    H149750   6.072   3.197  17.095  0.1659 -3.0356 -0.2192
 9445TIP3    H249751   6.147   3.155  16.970  1.9228 -0.1590 -0.2317
 9446TIP3   OH249752   0.821   6.613   2.639  0.1523  0.2189 -0.2542
 9446TIP3    H149753   0.915   6.602   2.628  0.3760  1.6736 -0.0384
 9446TIP3    H249754   0.813   6.661   2.722 -0.8517 -0.8787  0.3131
 9447TIP3   OH249755   0.419   3.962  14.995 -0.5370 -0.2158 -0.0745
 9447TIP3    H149756   0.462   4.035  15.039 -0.5674 -1.1977  1.6671
 9447TIP3    H249757   0.383   3.909  15.066 -0.7029 -1.8166 -1.2939
 9448TIP3   OH249758   0.921   1.104   2.058  0.0752 -0.7007 -0.4413
 9448TIP3    H149759   0.850   1.084   2.119  0.4989  0.5626  0.5058
 9448TIP3    H249760   0.992   1.044   2.083 -0.1459 -0.9737 -0.4585
 9449TIP3   OH249761   0.625   0.922   0.748 -0.2875  0.4003  0.0336
 9449TIP3    H149762   0.531   0.927   0.766 -0.5980 -0.3878 -1.2329
 9449TIP3    H249763   0.665   0.976   0.815 -1.5582 -0.2228  1.3475
 9450TIP3   OH249764   0.551   5.316  13.519 -0.1006  0.1842  0.2460
 9450TIP3    H149765   0.475   5.355  13.476 -0.4564 -0.7437  0.0089
 9450TIP3    H249766   0.623   5.376  13.499 -0.5400  0.4861 -0.4720
 9451TIP3   OH249767   2.529   5.912   5.095  0.1416  0.1307 -0.2935
 9451TIP3    H149768   2.492   5.831   5.129  2.2817 -0.5688  0.5843
 9451TIP3    H249769   2.593   5.883   5.030 -2.4211  1.3743 -3.6601
 9452TIP3   OH249770   2.839   5.667  11.000  0.4836  0.1859 -0.2343
 9452TIP3    H149771   2.812   5.617  11.077  1.3370 -0.3985 -0.2965
 9452TIP3    H249772   2.883   5.603  10.944  0.4189  0.7350 -0.9248
 9453TIP3   OH249773   3.258   0.625   2.410  0.0366  0.5072  0.4533
 9453TIP3    H149774   3.170   0.645   2.377 -0.9972 -0.0931  2.7049
 9453TIP3    H249775   3.309   0.606   2.331 -2.2435 -0.6496 -0.8488
 9454TIP3   OH249776   2.788   4.503   5.380  0.2650 -0.3194  0.2668
 9454TIP3    H149777   2.780   4.492   5.475 -1.5573  1.1213  0.3348
 9454TIP3    H249778   2.874   4.543   5.368  1.8656 -3.2182  0.9598
 9455TIP3   OH249779   0.293   0.564   5.714 -0.4650 -0.0654 -1.1451
 9455TIP3    H149780   0.243   0.483   5.728  0.9511 -0.6541  0.8484
 9455TIP3    H249781   0.250   0.628   5.770  0.4549 -0.3649 -0.0586
 9456TIP3   OH249782   3.116   3.249   1.792  0.8373 -0.2255 -0.2596
 9456TIP3    H149783   3.029   3.240   1.831  1.4309  0.2883  1.2486
 9456TIP3    H249784   3.175   3.265   1.866  2.1949 -0.3316 -1.2641
 9457TIP3   OH249785   3.974   0.441  12.811 -0.1717 -0.2454  0.2868
 9457TIP3    H149786   4.001   0.483  12.730  1.2583 -0.7397  0.4864
 9457TIP3    H249787   3.998   0.504  12.880 -0.8872 -0.0565  0.3669
 9458TIP3   OH249788   5.682   5.879   1.487  0.0852  0.0913  0.4332
 9458TIP3    H149789   5.648   5.791   1.474  0.4135 -0.2499  1.7203
 9458TIP3    H249790   5.658   5.901   1.577 -0.8080  1.7004 -0.1488
 9459TIP3   OH249791   6.459   1.210  12.939 -0.0799 -1.0144  0.0781
 9459TIP3    H149792   6.494   1.131  12.899 -0.2391 -1.8764  1.5892
 9459TIP3    H249793   6.493   1.209  13.028 -0.0195  0.6730  0.1117
 9460TIP3   OH249794   2.705   5.327   4.099 -0.0993 -0.3973 -0.7047
 9460TIP3    H149795   2.612   5.311   4.115 -0.4352  0.4239 -1.7362
 9460TIP3    H249796   2.725   5.408   4.146 -0.3094  0.2821 -1.7536
 9461TIP3   OH249797   1.327   6.305  15.074 -0.0097  0.2708 -0.0724
 9461TIP3    H149798   1.380   6.320  15.152  0.3696  0.7103 -0.4070
 9461TIP3    H249799   1.299   6.213  15.081 -0.6822  0.5428  0.9896
 9462TIP3   OH249800   0.441   0.684   3.772 -0.0120  0.3547 -0.1687
 9462TIP3    H149801   0.524   0.686   3.818 -0.0519  2.2512 -0.1235
 9462TIP3    H249802   0.446   0.606   3.716  2.7794  1.6580 -1.9288
 9463TIP3   OH249803   3.091   6.679  16.892 -0.2437 -0.4196 -0.2224
 9463TIP3    H149804   3.135   6.605  16.850 -1.2496 -1.2473  0.1195
 9463TIP3    H249805   3.008   6.688  16.845 -0.0231  0.6651 -0.4244
 9464TIP3   OH249806   4.729   0.150   5.081  0.2750  0.2221 -0.5393
 9464TIP3    H149807   4.791   0.078   5.072  2.8723  2.3916 -1.1601
 9464TIP3    H249808   4.783   0.227   5.101 -2.3903  1.9524  0.6483
 9465TIP3   OH249809   0.939   4.391  11.765  0.5804  0.0910 -0.5290
 9465TIP3    H149810   0.982   4.331  11.827  1.1858 -0.9115 -1.8724
 9465TIP3    H249811   1.009   4.448  11.734  0.4653 -0.0127 -0.9813
 9466TIP3   OH249812   1.134   4.546   1.655 -0.4325 -0.4829 -0.0301
 9466TIP3    H149813   1.135   4.600   1.734 -1.0772 -1.0680  0.3815
 9466TIP3    H249814   1.206   4.581   1.602 -0.6158  0.5547  0.3745
 9467TIP3   OH249815   1.513   2.289   1.380  0.1842 -0.2158  0.4547
 9467TIP3    H149816   1.578   2.330   1.438  0.3296 -2.0049  1.6300
 9467TIP3    H249817   1.526   2.333   1.296  2.2592  0.1711  0.9012
 9468TIP3   OH249818   1.321   2.980   2.584 -0.0434  0.3714  0.1863
 9468TIP3    H149819   1.250   3.044   2.575 -1.1943 -0.8642  0.1208
 9468TIP3    H249820   1.394   3.030   2.620 -0.5754  1.9377 -0.7914
 9469TIP3   OH249821   5.329   0.897   0.187  0.0738  0.0915  0.6805
 9469TIP3    H149822   5.347   0.957   0.260  1.4648 -0.4847  0.8524
 9469TIP3    H249823   5.355   0.946   0.109  1.8245 -0.4518  0.8683
 9470TIP3   OH249824   0.934   5.997   0.917 -0.2185 -0.3701 -0.2792
 9470TIP3    H149825   0.870   6.067   0.927  0.7253  0.3528  1.2219
 9470TIP3    H249826   0.928   5.970   0.826 -4.0709 -1.7837  0.2280
 9471TIP3   OH249827   1.184   2.470  15.722 -0.3515  0.5788 -0.1165
 9471TIP3    H149828   1.163   2.409  15.651  2.0324 -1.2320  0.6238
 9471TIP3    H249829   1.127   2.546  15.706 -1.9570 -0.9640 -2.2596
 9472TIP3   OH249830   3.090   0.099   5.921 -0.1374 -0.1912  0.5191
 9472TIP3    H149831   2.999   0.071   5.929 -0.1729 -0.2661 -0.0852
 9472TIP3    H249832   3.085   0.186   5.882 -0.0932  1.3841  3.7095
 9473TIP3   OH249833   6.315   2.023  15.622  0.0418 -0.5816 -0.0500
 9473TIP3    H149834   6.266   2.036  15.702  0.9656  0.6295  0.3427
 9473TIP3    H249835   6.283   2.090  15.562  2.3692  1.4579  0.8092
 9474TIP3   OH249836   2.266   5.629   5.764  0.2980  0.5556  0.1053
 9474TIP3    H149837   2.284   5.667   5.850  1.5057 -1.3225  0.7426
 9474TIP3    H249838   2.194   5.568   5.779 -0.5446  1.3567 -0.5677
 9475TIP3   OH249839   1.827   5.165  16.200 -0.4326  0.0916  0.3111
 9475TIP3    H149840   1.783   5.083  16.223  0.1101 -0.5147 -0.7267
 9475TIP3    H249841   1.757   5.223  16.170 -0.6868 -0.3932 -0.0345
 9476TIP3   OH249842   0.533   1.313  12.927 -0.3903 -0.2331 -0.5199
 9476TIP3    H149843   0.441   1.289  12.938 -0.4474  0.5464  1.1511
 9476TIP3    H249844   0.576   1.279  13.006  0.3238  1.1923 -0.2521
 9477TIP3   OH249845   1.092   4.160   1.431  0.5146  0.5310 -0.1983
 9477TIP3    H149846   1.125   4.158   1.520  1.1848  1.5451 -0.3988
 9477TIP3    H249847   1.050   4.246   1.423  1.3120  0.8513 -1.1374
 9478TIP3   OH249848   3.257   1.487   3.110 -0.2320  0.4483 -0.2893
 9478TIP3    H149849   3.345   1.516   3.088  0.4182 -1.3680 -0.2553
 9478TIP3    H249850   3.224   1.554   3.170  0.4678  2.0127 -1.5788
 9479TIP3   OH249851   5.616   2.652   2.927  0.0656 -0.0506  0.1161
 9479TIP3    H149852   5.607   2.631   3.020 -1.1282  0.0133  0.0309
 9479TIP3    H249853   5.604   2.568   2.883  0.7849 -0.1084  0.0144
 9480TIP3   OH249854   4.235   3.432   2.983  0.1637 -0.1531  0.1279
 9480TIP3    H149855   4.141   3.449   2.973  0.2012 -0.1011 -0.1543
 9480TIP3    H249856   4.243   3.337   2.978  0.3818 -0.0539 -2.2453
 9481TIP3   OH249857   5.506   5.307  13.623  0.3853  0.2188  0.2482
 9481TIP3    H149858   5.417   5.273  13.623 -0.5111  2.3461 -0.9034
 9481TIP3    H249859   5.560   5.235  13.590 -1.0291 -0.8236  0.1246
 9482TIP3   OH249860   0.654   3.617  15.129 -0.0143 -0.3653  0.0373
 9482TIP3    H149861   0.729   3.651  15.178 -0.7180  1.6670 -0.1663
 9482TIP3    H249862   0.663   3.655  15.042 -1.5982  0.5378  0.2082
 9483TIP3   OH249863   6.643   1.420  17.144 -0.5171  0.4971  0.6408
 9483TIP3    H149864   6.654   1.380  17.231 -1.0827 -1.0940  0.0173
 9483TIP3    H249865   6.729   1.458  17.125 -0.4357  1.0379  1.9591
 9484TIP3   OH249866   2.101   6.086   4.858 -0.6144  0.3210  0.7666
 9484TIP3    H149867   2.048   6.114   4.783  1.3989 -0.7893 -1.1659
 9484TIP3    H249868   2.130   6.168   4.898 -2.8254  0.9449  1.2252
 9485TIP3   OH249869   6.734   1.755   1.535 -0.4444 -0.0857  0.5164
 9485TIP3    H149870   6.685   1.767   1.454  0.3057 -0.9499 -0.0959
 9485TIP3    H249871   6.769   1.841   1.555  0.2212 -0.0519 -0.6710
 9486TIP3   OH249872   3.722   3.398   5.154  0.2327 -0.2273  0.3626
 9486TIP3    H149873   3.780   3.371   5.225  0.6784 -3.0679 -0.9181
 9486TIP3    H249874   3.779   3.446   5.094  0.5168 -0.2381  0.6190
 9487TIP3   OH249875   4.166   5.816   1.850 -0.2950 -0.3799 -0.3005
 9487TIP3    H149876   4.234   5.876   1.822 -0.1354 -0.5471 -0.2744
 9487TIP3    H249877   4.189   5.732   1.810 -0.8363 -0.2858 -0.8200
 9488TIP3   OH249878   1.953   1.133  14.031  0.4525  0.5376  0.4987
 9488TIP3    H149879   1.890   1.150  14.101  0.5024  0.4812  0.5567
 9488TIP3    H249880   1.899   1.096  13.960  0.0904  2.3129 -0.1920
 9489TIP3   OH249881   4.477   6.592  11.424 -0.8915 -0.4627  0.2800
 9489TIP3    H149882   4.538   6.616  11.494 -1.6792 -0.1869  0.8969
 9489TIP3    H249883   4.521   6.618  11.343 -1.1610  1.9427  0.8396
 9490TIP3   OH249884   2.593   4.702  15.800 -0.2770  0.4487  0.3733
 9490TIP3    H149885   2.566   4.662  15.717 -0.3761  0.0253  0.6018
 9490TIP3    H249886   2.660   4.642  15.834  0.5854  1.2222  0.0559
 9491TIP3   OH249887   0.281   2.194   5.492 -0.8905 -0.1178 -0.3857
 9491TIP3    H149888   0.281   2.180   5.587  0.2850  0.3805 -0.3005
 9491TIP3    H249889   0.249   2.283   5.480  1.7968  0.9453 -0.2310
 9492TIP3   OH249890   6.533   5.076   1.241  0.5130 -0.4095  0.0456
 9492TIP3    H149891   6.485   5.159   1.235 -0.6527 -1.0291  0.4156
 9492TIP3    H249892   6.625   5.100   1.228  0.2533  1.0048  0.6358
 9493TIP3   OH249893   0.108   4.848   3.209 -0.3642  0.1361  0.2617
 9493TIP3    H149894   0.033   4.886   3.254 -0.6209  0.5685 -0.5043
 9493TIP3    H249895   0.183   4.896   3.244 -0.6818  1.3855 -0.6785
 9494TIP3   OH249896   4.850   5.972  11.573 -0.0424 -0.5012 -0.4554
 9494TIP3    H149897   4.869   6.063  11.597  0.4029 -0.3415 -1.3528
 9494TIP3    H249898   4.846   5.925  11.656  1.4381  0.0236 -0.0519
 9495TIP3   OH249899   5.205   6.367  12.605  0.1913  0.8777  0.0177
 9495TIP3    H149900   5.177   6.314  12.530  1.0204 -0.5473  0.6507
 9495TIP3    H249901   5.298   6.383  12.589  0.4325  0.3691  0.8216
 9496TIP3   OH249902   2.811   4.588   0.890  0.0230 -0.2624  0.1842
 9496TIP3    H149903   2.719   4.614   0.886  0.2456  0.5619  0.2203
 9496TIP3    H249904   2.809   4.499   0.924 -0.8049 -0.5571 -0.6007
 9497TIP3   OH249905   3.329   1.009  11.431 -0.4883 -0.1128 -0.0003
 9497TIP3    H149906   3.358   0.962  11.353  0.3678  0.6292 -0.1413
 9497TIP3    H249907   3.404   1.005  11.491 -0.7852  0.1651  0.3982
 9498TIP3   OH249908   1.633   2.599   4.597  0.0850  0.0407 -0.5941
 9498TIP3    H149909   1.595   2.676   4.554 -0.1290 -0.6195 -1.6304
 9498TIP3    H249910   1.604   2.525   4.544  2.0660 -0.5879 -0.8949
 9499TIP3   OH249911   1.212   2.262   1.356  0.2531 -0.3163  0.6766
 9499TIP3    H149912   1.211   2.357   1.365  0.3843 -0.1212 -0.9608
 9499TIP3    H249913   1.304   2.241   1.339 -0.1332 -0.3456 -1.8761
 9500TIP3   OH249914   1.502   6.714  12.192 -0.1370 -0.2895  0.1159
 9500TIP3    H149915   1.589   6.680  12.211 -0.0568 -0.0803  0.1241
 9500TIP3    H249916   1.495   6.712  12.097  0.0782  0.1889  0.0878
 9501TIP3   OH249917   1.915   4.086  11.409  0.0345 -0.5846  0.2668
 9501TIP3    H149918   1.863   4.162  11.383  0.1214 -0.4673  0.4331
 9501TIP3    H249919   1.963   4.061  11.330  0.1713 -0.3328  0.2718
 9502TIP3   OH249920   5.732   4.374   5.803  0.0971  0.0069 -0.1387
 9502TIP3    H149921   5.779   4.398   5.883 -0.4922  0.3176  0.1127
 9502TIP3    H249922   5.767   4.434   5.736 -2.1733  2.4727  0.7147
 9503TIP3   OH249923   5.715   0.861   1.843 -0.0028  0.1715 -0.2402
 9503TIP3    H149924   5.687   0.949   1.868  3.5266  1.3318  0.2365
 9503TIP3    H249925   5.687   0.805   1.916 -1.8101  0.9520 -0.2879
 9504TIP3   OH249926   0.609   1.501   1.479  0.1518 -0.0455  0.1851
 9504TIP3    H149927   0.688   1.455   1.507 -0.4805 -0.9643  0.5286
 9504TIP3    H249928   0.640   1.565   1.415  1.0160 -1.3491 -0.7568
 9505TIP3   OH249929   1.170   2.487   2.507 -0.5492 -0.2076 -0.1793
 9505TIP3    H149930   1.133   2.575   2.508  1.2465  0.6058  1.7167
 9505TIP3    H249931   1.150   2.452   2.594  3.5589  0.5905  1.3091
 9506TIP3   OH249932   3.663   4.475   4.842 -0.4618 -0.4922  0.5705
 9506TIP3    H149933   3.598   4.418   4.884 -1.8979  0.6185 -0.0608
 9506TIP3    H249934   3.746   4.450   4.883 -1.0884 -2.7257  0.6226
 9507TIP3   OH249935   3.615   2.411   4.424  0.0178 -0.4207  0.2673
 9507TIP3    H149936   3.692   2.432   4.478 -1.2262  2.8318  0.9754
 9507TIP3    H249937   3.583   2.329   4.460  2.6735 -1.5120  0.4246
 9508TIP3   OH249938   2.778   1.495   4.743  0.3441  0.0887  0.0953
 9508TIP3    H149939   2.859   1.496   4.793 -0.0147  0.6752  0.6976
 9508TIP3    H249940   2.770   1.406   4.710  0.7207 -0.2406  0.8797
 9509TIP3   OH249941   4.742   5.459   0.301  0.0309 -0.4680 -0.2568
 9509TIP3    H149942   4.694   5.528   0.255 -1.0682 -0.4420  0.8563
 9509TIP3    H249943   4.687   5.381   0.291  0.9134 -1.0190 -0.9056
 9510TIP3   OH249944   5.065   4.256  16.647 -0.0091 -0.1832 -0.0076
 9510TIP3    H149945   5.059   4.263  16.552 -0.7764 -0.5465  0.0092
 9510TIP3    H249946   5.149   4.212  16.663  0.7967  1.1346 -0.4461
 9511TIP3   OH249947   3.805   5.833  12.475  0.1591 -0.1556 -0.7057
 9511TIP3    H149948   3.779   5.747  12.509  1.0922 -0.7648 -1.4782
 9511TIP3    H249949   3.817   5.818  12.381 -1.5195  1.2692 -1.1978
 9512TIP3   OH249950   3.321   5.098  16.615 -0.0533 -0.3933 -0.3269
 9512TIP3    H149951   3.283   5.037  16.552 -0.4706  0.3028 -0.7722
 9512TIP3    H249952   3.263   5.174  16.612  0.1659 -0.1807  0.5932
 9513TIP3   OH249953   6.464   3.681   2.723 -0.3517  0.1817 -0.2072
 9513TIP3    H149954   6.403   3.676   2.796  0.5612  0.2006  0.5749
 9513TIP3    H249955   6.542   3.723   2.759 -0.5604  1.9586 -1.6685
 9514TIP3   OH249956   0.926   4.689   3.658 -0.4148 -0.0628 -0.1125
 9514TIP3    H149957   0.920   4.716   3.566  2.6049  0.2051 -0.3405
 9514TIP3    H249958   0.903   4.767   3.708 -1.0885  0.0868 -0.6456
 9515TIP3   OH249959   2.908   3.448  15.245 -0.0520  0.0366  0.8078
 9515TIP3    H149960   2.840   3.484  15.302  0.3742 -0.9994  2.0217
 9515TIP3    H249961   2.913   3.509  15.171 -2.0499  0.3195  0.8617
 9516TIP3   OH249962   0.925   1.226   4.181 -0.6168  0.2479 -0.6744
 9516TIP3    H149963   0.879   1.197   4.102  0.0152  0.8584 -1.2790
 9516TIP3    H249964   0.892   1.314   4.197 -0.4715  0.2658 -0.4719
 9517TIP3   OH249965   4.356   0.057   4.214  0.1052 -0.4626  0.1923
 9517TIP3    H149966   4.313   0.083   4.296  2.3652  2.2894  0.6632
 9517TIP3    H249967   4.293   0.082   4.146 -0.1055  1.2160  0.9434
 9518TIP3   OH249968   2.189   4.014   1.973 -0.2627  0.0739  0.4125
 9518TIP3    H149969   2.189   3.941   1.911  1.3213  0.0162  0.4382
 9518TIP3    H249970   2.105   4.057   1.959 -0.8972 -1.2827 -0.1604
 9519TIP3   OH249971   0.643   0.826  11.888 -0.6353 -0.2000  0.0736
 9519TIP3    H149972   0.709   0.758  11.903  0.2040  0.1050 -1.8638
 9519TIP3    H249973   0.587   0.789  11.820 -1.7410  0.0373  0.8442
 9520TIP3   OH249974   6.019   5.713   0.937 -0.0231  0.1007 -0.1165
 9520TIP3    H149975   5.980   5.752   1.015  0.5237  1.4424 -0.4951
 9520TIP3    H249976   5.944   5.692   0.881 -0.3900 -0.4820  0.5754
 9521TIP3   OH249977   0.804   6.149  14.559  0.1789 -0.2931 -0.1806
 9521TIP3    H149978   0.710   6.162  14.566  0.2393  0.4441 -0.6152
 9521TIP3    H249979   0.842   6.212  14.620  0.3880 -0.8643  0.2945
 9522TIP3   OH249980   4.087   1.693   3.408  0.1176 -0.1531  0.2940
 9522TIP3    H149981   4.119   1.781   3.429  0.1813 -0.1815  0.3171
 9522TIP3    H249982   4.076   1.693   3.313 -0.7015  0.1537  0.3878
 9523TIP3   OH249983   0.893   6.500   1.967 -0.2327 -0.0289 -0.1270
 9523TIP3    H149984   0.971   6.466   1.922 -1.1262  0.3288 -2.0566
 9523TIP3    H249985   0.873   6.582   1.922 -1.5688  0.0259  0.5101
 9524TIP3   OH249986   3.349   5.609  15.749  0.0427  0.4792 -0.6932
 9524TIP3    H149987   3.429   5.614  15.698 -1.4804  0.7665 -3.2388
 9524TIP3    H249988   3.324   5.516  15.744  0.9964  0.0442  1.5038
 9525TIP3   OH249989   3.248   0.547  13.218 -0.0005 -0.5364 -0.1120
 9525TIP3    H149990   3.251   0.478  13.285 -0.8921  0.8017  1.3697
 9525TIP3    H249991   3.165   0.533  13.173 -1.2408  0.7961  1.6323
 9526TIP3   OH249992   0.801   1.467   4.271  0.1743  0.0958 -0.1195
 9526TIP3    H149993   0.892   1.483   4.297  1.1767 -0.7085 -2.7882
 9526TIP3    H249994   0.770   1.551   4.237  1.1509 -0.3709 -2.3550
 9527TIP3   OH249995   1.367   1.058   2.089 -0.4610 -0.5909 -0.0220
 9527TIP3    H149996   1.460   1.050   2.110 -0.3492  0.2872 -0.1470
 9527TIP3    H249997   1.348   1.151   2.099 -1.0034 -0.5420 -1.3211
 9528TIP3   OH249998   6.457   4.074   1.640 -0.1168  0.2356  0.1876
 9528TIP3    H149999   6.401   4.028   1.703 -0.7249  0.4950 -0.1496
 9528TIP3    H250000   6.546   4.051   1.666 -0.3242  0.7930  1.5065
 9529TIP3   OH250001   4.208   0.814   4.327  0.2912  0.3302 -0.2452
 9529TIP3    H150002   4.231   0.905   4.310  1.6149 -0.1608 -1.3368
 9529TIP3    H250003   4.291   0.774   4.355 -0.4023 -0.4113  0.7856
 9530TIP3   OH250004   4.586   0.238   4.765  0.2136 -0.3269 -0.0965
 9530TIP3    H150005   4.629   0.154   4.749 -0.2309 -0.5339 -0.2256
 9530TIP3    H250006   4.494   0.215   4.779  0.3997 -0.0655  1.8700
 9531TIP3   OH250007   0.532   0.013  15.794  0.3161  0.6199 -0.1993
 9531TIP3    H150008   0.578  -0.056  15.747  3.0858  3.7094 -2.5633
 9531TIP3    H250009   0.593   0.038  15.865 -0.5382  0.7853  0.4937
 9532TIP3   OH250010   3.717   5.119   5.820 -0.0514 -0.4371 -0.1789
 9532TIP3    H150011   3.663   5.175   5.876  1.8019  1.0988  0.1676
 9532TIP3    H250012   3.742   5.176   5.747  2.4086 -0.5245  0.5025
 9533TIP3   OH250013   2.677   4.325   3.449  0.2192  0.2099  0.0665
 9533TIP3    H150014   2.658   4.354   3.360 -1.6829  1.1043  0.7208
 9533TIP3    H250015   2.773   4.330   3.456  0.2222  3.5544 -0.8225
 9534TIP3   OH250016   0.392   0.909   0.964  0.1932  0.8833  0.4589
 9534TIP3    H150017   0.435   0.949   1.039  0.3967  0.5752  0.5099
 9534TIP3    H250018   0.381   0.817   0.990  1.0612  0.5741 -0.2335
 9535TIP3   OH250019   3.470   1.783  10.622  0.1123 -0.0417  0.2367
 9535TIP3    H150020   3.402   1.827  10.571  0.9970  0.3219 -0.6718
 9535TIP3    H250021   3.529   1.854  10.649  0.7057 -0.4730  0.0943
 9536TIP3   OH250022   3.158   5.496  11.509  0.2292 -0.7027  0.4030
 9536TIP3    H150023   3.133   5.524  11.598 -0.3637  0.3700 -0.0756
 9536TIP3    H250024   3.076   5.495  11.461  0.9260  2.9181 -1.2211
 9537TIP3   OH250025   0.417   1.569   4.196 -0.1443 -0.2679 -0.2901
 9537TIP3    H150026   0.389   1.615   4.276 -0.0730 -0.7303  0.0061
 9537TIP3    H250027   0.495   1.616   4.168 -0.0634 -0.2144  0.0186
 9538TIP3   OH250028   5.682   1.850   1.786  0.3172  0.0843 -0.4579
 9538TIP3    H150029   5.710   1.941   1.781  1.6690 -0.2521  0.4033
 9538TIP3    H250030   5.641   1.842   1.873 -1.0861  0.1916 -1.0877
 9539TIP3   OH250031   1.559   5.574   3.897  0.1387  0.3141 -0.3886
 9539TIP3    H150032   1.570   5.502   3.960  0.4075  0.7421  0.0526
 9539TIP3    H250033   1.560   5.530   3.811 -1.5692 -0.4459 -0.0644
 9540TIP3   OH250034   4.739   3.428   2.697 -0.2534  0.2783  0.4983
 9540TIP3    H150035   4.653   3.394   2.676  0.5449 -1.3853 -0.2653
 9540TIP3    H250036   4.732   3.458   2.788 -1.1798 -1.4229  1.0307
 9541TIP3   OH250037   0.559   6.584   3.901 -0.0960  0.6749  0.2116
 9541TIP3    H150038   0.602   6.669   3.890 -0.4983  0.7129 -1.2725
 9541TIP3    H250039   0.480   6.590   3.846  0.4266 -1.0244 -0.8014
 9542TIP3   OH250040   1.327   2.332  12.417 -0.1211 -0.4889 -0.0415
 9542TIP3    H150041   1.380   2.410  12.399 -3.0234  1.7636  0.5046
 9542TIP3    H250042   1.281   2.315  12.334 -0.6570 -0.6815  0.2938
 9543TIP3   OH250043   5.722   2.634  11.196 -0.2459 -0.2207 -0.5196
 9543TIP3    H150044   5.737   2.651  11.103  0.5073 -0.1673 -0.3961
 9543TIP3    H250045   5.786   2.689  11.241 -0.7043 -0.1390  0.0373
 9544TIP3   OH250046   3.092   2.964   0.975 -0.1522 -0.0760  0.5912
 9544TIP3    H150047   3.122   3.052   0.951 -1.6399  0.0419 -1.0178
 9544TIP3    H250048   3.025   2.978   1.041 -0.6561  0.0265  0.0593
 9545TIP3   OH250049   5.428   0.830  16.548 -0.2590  0.1815  0.0148
 9545TIP3    H150050   5.402   0.900  16.488  0.1045 -0.2945 -0.7120
 9545TIP3    H250051   5.523   0.837  16.554 -0.0903 -0.9520 -0.9754
 9546TIP3   OH250052   2.957   2.507   0.886  0.4837  0.0094 -0.1591
 9546TIP3    H150053   2.926   2.596   0.866 -0.2395 -0.1815  0.0778
 9546TIP3    H250054   3.051   2.509   0.866  0.3242  0.6089 -0.8913
 9547TIP3   OH250055   3.135   3.991  10.898 -0.3221  0.3764  0.2520
 9547TIP3    H150056   3.189   3.963  10.973  0.9495 -0.2989 -0.8795
 9547TIP3    H250057   3.167   4.078  10.877 -0.0112  0.1788 -0.1025
 9548TIP3   OH250058   5.410   5.838   0.524 -0.1186  0.7279 -0.3539
 9548TIP3    H150059   5.378   5.895   0.593  1.4107 -1.1252  2.0562
 9548TIP3    H250060   5.505   5.845   0.529  0.1920 -2.3595  0.5105
 9549TIP3   OH250061   5.791   4.109   5.628  0.1578 -0.0437  0.4717
 9549TIP3    H150062   5.850   4.062   5.688  1.1152 -2.6049 -2.1918
 9549TIP3    H250063   5.820   4.200   5.633  2.2705 -0.6929  1.5835
 9550TIP3   OH250064   2.855   1.711  13.105 -0.4340 -0.0545 -0.6418
 9550TIP3    H150065   2.913   1.686  13.033 -0.4552 -0.2582 -0.5899
 9550TIP3    H250066   2.795   1.637  13.113 -0.2291 -0.1792 -0.2046
 9551TIP3   OH250067   0.564   2.755   1.899 -0.1331  0.2923  0.1516
 9551TIP3    H150068   0.505   2.679   1.894 -2.2771  1.8634  0.2655
 9551TIP3    H250069   0.621   2.736   1.974  0.0256 -1.6035 -0.3940
 9552TIP3   OH250070   1.370   4.293  15.725 -0.8019  0.1513 -0.6725
 9552TIP3    H150071   1.381   4.205  15.689  0.5203  0.4319 -1.0240
 9552TIP3    H250072   1.306   4.334  15.668  0.0656  0.0564 -1.7693
 9553TIP3   OH250073   4.210   4.806  11.347 -0.1384  0.0089  0.3433
 9553TIP3    H150074   4.291   4.831  11.392 -1.1090  1.5220  1.3120
 9553TIP3    H250075   4.151   4.777  11.416 -0.1484 -2.0538 -0.4532
 9554TIP3   OH250076   3.544   1.025   0.327  0.1761 -0.0474 -0.3591
 9554TIP3    H150077   3.461   1.013   0.281 -0.6055 -0.3156  1.0913
 9554TIP3    H250078   3.551   0.949   0.385 -0.0137  1.3929  1.6606
 9555TIP3   OH250079   4.708   4.482   2.522  0.4121  0.6042  0.4328
 9555TIP3    H150080   4.657   4.480   2.603  0.9119  3.1597  0.9033
 9555TIP3    H250081   4.717   4.575   2.502  2.3219  0.1218 -1.2774
 9556TIP3   OH250082   3.853   2.920   1.678 -0.4266  0.6928 -0.1971
 9556TIP3    H150083   3.806   2.972   1.613 -0.1395  0.6454 -0.4457
 9556TIP3    H250084   3.852   2.974   1.757 -2.4882 -0.0612  0.3703
 9557TIP3   OH250085   0.762   0.753  13.524 -0.0805  0.6912  0.6719
 9557TIP3    H150086   0.819   0.830  13.532 -0.2966  1.0751 -0.9554
 9557TIP3    H250087   0.789   0.695  13.595  2.6625  0.6657 -0.2668
 9558TIP3   OH250088   1.961   6.583  12.566  0.3479 -0.1517  0.0488
 9558TIP3    H150089   2.047   6.578  12.608 -0.1946  1.2656  1.4321
 9558TIP3    H250090   1.955   6.672  12.533 -0.7159 -0.1221  0.2782
 9559TIP3   OH250091   1.537   2.025   3.575  0.6319 -0.2354  0.1913
 9559TIP3    H150092   1.589   2.105   3.586 -0.2834  0.2683  1.0438
 9559TIP3    H250093   1.597   1.954   3.596  1.4790  0.2103 -0.6363
 9560TIP3   OH250094   2.126   2.927  15.563 -0.5551  0.3303  0.0184
 9560TIP3    H150095   2.194   2.920  15.496 -1.2576  1.2653 -0.8372
 9560TIP3    H250096   2.106   3.021  15.567  0.4256  0.5074  2.5683
 9561TIP3   OH250097   2.423   6.025   1.658 -0.0447  0.4668  0.4267
 9561TIP3    H150098   2.374   5.957   1.704 -1.5450  0.3433 -1.2440
 9561TIP3    H250099   2.514   6.006   1.678 -0.5829 -0.1365  2.5258
 9562TIP3   OH250100   1.904   1.710   2.652  0.2928 -0.1978  0.2765
 9562TIP3    H150101   1.910   1.799   2.685  0.6429  0.7032 -1.9881
 9562TIP3    H250102   1.828   1.712   2.594  0.5472 -1.2544 -0.1131
 9563TIP3   OH250103   2.832   1.662  15.805  0.7524 -0.2152  0.0716
 9563TIP3    H150104   2.815   1.606  15.730  4.7152 -2.0666  0.3227
 9563TIP3    H250105   2.889   1.732  15.770  0.5099  0.3968  0.8726
 9564TIP3   OH250106   2.011   0.055   0.615 -0.6115  0.1080  0.0372
 9564TIP3    H150107   1.940   0.005   0.654 -0.7477  0.3639  0.1139
 9564TIP3    H250108   1.987   0.063   0.522 -0.8535  0.4933  0.1322
 9565TIP3   OH250109   5.222   2.421   2.405  0.0076 -0.1650  0.0379
 9565TIP3    H150110   5.264   2.451   2.324 -1.3151 -0.5835 -0.8245
 9565TIP3    H250111   5.258   2.478   2.473 -1.6059  2.6783 -1.3542
 9566TIP3   OH250112   1.153   6.455  15.624 -0.0888  0.0394 -0.3540
 9566TIP3    H150113   1.111   6.372  15.604  0.5192 -0.4854  0.4500
 9566TIP3    H250114   1.235   6.430  15.668  0.4196  1.0491 -0.6981
 9567TIP3   OH250115   4.489   0.661  15.915 -0.1317  0.5889 -0.3169
 9567TIP3    H150116   4.513   0.571  15.938 -1.1694  0.7928  1.8933
 9567TIP3    H250117   4.393   0.660  15.915 -0.1541  1.6579 -0.4076
 9568TIP3   OH250118   3.208   6.621  14.529 -0.3773  0.2108  0.2622
 9568TIP3    H150119   3.245   6.533  14.536  0.9489  0.8185  1.3678
 9568TIP3    H250120   3.116   6.607  14.505  0.5621 -1.3633 -3.0266
 9569TIP3   OH250121   1.856   3.691  14.269 -0.0950  0.4428 -0.3131
 9569TIP3    H150122   1.884   3.700  14.178  2.2526 -1.5270  0.1015
 9569TIP3    H250123   1.763   3.713  14.268 -0.0963  0.6596 -3.1438
 9570TIP3   OH250124   5.673   5.625   0.527  0.4543  0.1586 -0.4383
 9570TIP3    H150125   5.669   5.716   0.498  0.1807  0.2893 -0.0021
 9570TIP3    H250126   5.731   5.582   0.464 -0.4053  0.3468 -1.3794
 9571TIP3   OH250127   4.434   0.750   4.105 -0.0697  0.4299  0.3972
 9571TIP3    H150128   4.450   0.762   4.198  1.8460 -0.4875  0.2400
 9571TIP3    H250129   4.458   0.659   4.088 -3.3905 -0.4165 -0.4563
 9572TIP3   OH250130   5.673   6.555  13.566  0.1046  0.4598 -0.2116
 9572TIP3    H150131   5.590   6.585  13.528 -1.1741 -1.9079  0.5062
 9572TIP3    H250132   5.660   6.562  13.661  1.4228  1.6529 -0.0730
 9573TIP3   OH250133   0.369   3.500   4.671 -0.1090 -0.0431  0.3975
 9573TIP3    H150134   0.369   3.413   4.630 -0.6221  0.5111 -0.8326
 9573TIP3    H250135   0.321   3.488   4.752  0.7127 -1.1281  0.7627
 9574TIP3   OH250136   4.755   2.590  10.712  0.1030  1.0965 -0.3318
 9574TIP3    H150137   4.699   2.599  10.635 -0.1739  1.9060 -0.0399
 9574TIP3    H250138   4.704   2.627  10.784  0.4226  0.4859  0.2148
 9575TIP3   OH250139   2.309   6.568   1.673  0.0282  0.4001  0.4448
 9575TIP3    H150140   2.219   6.555   1.643  0.5232 -0.6089 -0.6703
 9575TIP3    H250141   2.303   6.641   1.734 -1.5857  0.2041  0.5780
 9576TIP3   OH250142   2.575   0.331  13.494  0.0859 -0.4542  0.3128
 9576TIP3    H150143   2.582   0.242  13.457 -0.5512  0.0706 -1.1430
 9576TIP3    H250144   2.487   0.360  13.471 -0.5348 -0.2256  2.6960
 9577TIP3   OH250145   0.684   3.522  14.427  0.1557  0.2494 -0.0631
 9577TIP3    H150146   0.700   3.562  14.512 -0.9860 -3.3201  2.0422
 9577TIP3    H250147   0.754   3.456  14.418 -1.9784 -2.2182  0.1987
 9578TIP3   OH250148   3.418   1.915   2.285  0.5496 -0.4384 -0.3680
 9578TIP3    H150149   3.342   1.956   2.244 -0.4663 -3.6294 -2.0337
 9578TIP3    H250150   3.392   1.900   2.375  0.1408  0.5965 -0.2981
 9579TIP3   OH250151   0.851   1.645  14.049 -0.2701 -0.0582 -0.7185
 9579TIP3    H150152   0.927   1.596  14.016 -0.1350  0.3469 -1.0147
 9579TIP3    H250153   0.878   1.677  14.135 -0.4306 -0.6709 -0.4371
 9580TIP3   OH250154   2.302   6.359   0.938 -0.6782  0.1163  0.3132
 9580TIP3    H150155   2.298   6.455   0.937 -1.6818  0.0853 -0.3170
 9580TIP3    H250156   2.360   6.336   0.866 -1.0735  0.2378 -0.0476
 9581TIP3   OH250157   1.212   0.602  12.440 -0.2333 -0.0230 -0.2352
 9581TIP3    H150158   1.275   0.571  12.506 -0.5525  1.2459  0.7124
 9581TIP3    H250159   1.254   0.679  12.402 -1.9497  2.0703  1.8127
 9582TIP3   OH250160   2.909   6.704  12.858  0.5245  0.1004  0.3369
 9582TIP3    H150161   2.853   6.695  12.935  0.1631  0.9729  0.1965
 9582TIP3    H250162   2.998   6.697  12.892  0.4027 -3.4387  0.2875
 9583TIP3   OH250163   0.119   6.722  14.866 -0.5731  0.2735 -0.3341
 9583TIP3    H150164   0.073   6.779  14.928 -0.8039  0.3257 -0.5512
 9583TIP3    H250165   0.205   6.762  14.855  0.5906 -1.2684  2.1806
 9584TIP3   OH250166   5.021   6.589   0.337 -0.4618  0.1119 -0.6374
 9584TIP3    H150167   5.075   6.667   0.333 -0.3871  0.0713 -0.4562
 9584TIP3    H250168   5.081   6.520   0.367 -0.4410 -0.0939 -1.1553
 9585TIP3   OH250169   0.811   6.361   2.775  0.0139 -0.1866  0.4499
 9585TIP3    H150170   0.866   6.438   2.788  0.1602 -0.5454  2.2168
 9585TIP3    H250171   0.722   6.395   2.765  0.4554  0.4067 -2.5137
 9586TIP3   OH250172   0.957   4.956   6.779  0.0103 -0.6556 -0.4699
 9586TIP3    H150173   1.028   4.896   6.757 -1.4234 -2.6834  0.1971
 9586TIP3    H250174   0.879   4.902   6.778 -1.0584  0.6257  2.7133
 9587TIP3   OH250175   4.220   0.074  11.166 -0.0224 -0.1420 -0.5989
 9587TIP3    H150176   4.296   0.130  11.180  0.7631 -1.5446  1.0391
 9587TIP3    H250177   4.157   0.130  11.121  0.1789  2.5228  2.1686
 9588TIP3   OH250178   5.348   2.373  16.285  0.6281  0.7278 -0.2818
 9588TIP3    H150179   5.310   2.436  16.346 -1.1448  0.6789 -1.2485
 9588TIP3    H250180   5.272   2.324  16.251  1.8167 -1.0549 -0.5219
 9589TIP3   OH250181   2.214   3.910   3.129  0.1866 -0.3027 -0.2171
 9589TIP3    H150182   2.199   3.939   3.219 -0.9530  2.6862 -1.2372
 9589TIP3    H250183   2.133   3.933   3.083  0.8218 -1.5833 -2.0667
 9590TIP3   OH250184   3.145   6.490  15.193 -0.2064  0.1509  0.0191
 9590TIP3    H150185   3.202   6.534  15.130 -0.7063  0.3703 -0.2856
 9590TIP3    H250186   3.167   6.397  15.184 -0.2918  0.1770 -0.4999
 9591TIP3   OH250187   6.242   4.027   3.515  0.9696 -0.0534 -0.7404
 9591TIP3    H150188   6.153   4.061   3.524  0.1078 -2.3795  0.3959
 9591TIP3    H250189   6.252   4.011   3.421 -0.2962 -0.9112 -0.7511
 9592TIP3   OH250190   1.251   5.689  14.044  0.1343 -0.1021 -0.5275
 9592TIP3    H150191   1.251   5.784  14.036 -0.9059 -0.1878 -2.0076
 9592TIP3    H250192   1.176   5.669  14.100  0.6652 -0.0379  0.2163
 9593TIP3   OH250193   5.457   1.155  11.245 -0.3315 -0.0232  0.1938
 9593TIP3    H150194   5.499   1.156  11.159 -0.8328  0.0923 -0.0534
 9593TIP3    H250195   5.402   1.233  11.247  1.5779  1.3834  1.6050
 9594TIP3   OH250196   3.304   6.036  13.577  0.0098 -0.0041 -0.2478
 9594TIP3    H150197   3.345   6.038  13.664 -0.9462  0.5536  0.2113
 9594TIP3    H250198   3.366   6.082  13.520  1.5198 -1.9780 -0.2921
 9595TIP3   OH250199   2.779   3.681   5.778 -0.0256  0.6639  0.2229
 9595TIP3    H150200   2.730   3.683   5.696 -1.8820 -0.4242  1.2357
 9595TIP3    H250201   2.733   3.616   5.832  1.7479  0.5912  1.7571
 9596TIP3   OH250202   4.609   1.695   4.857 -0.4994 -0.5116 -0.6322
 9596TIP3    H150203   4.668   1.730   4.924 -1.0696 -0.8435  0.0624
 9596TIP3    H250204   4.634   1.741   4.777  1.1796 -1.1766 -0.5316
 9597TIP3   OH250205   1.439   1.659   0.243  0.5058  0.1386  0.0613
 9597TIP3    H150206   1.493   1.655   0.164  0.2446 -2.7346 -0.0623
 9597TIP3    H250207   1.489   1.611   0.309 -0.3446  0.4431  0.9566
 9598TIP3   OH250208   4.127   0.045   1.872 -0.4513 -0.1868  0.0030
 9598TIP3    H150209   4.073   0.084   1.803 -0.9305 -1.1995 -0.2160
 9598TIP3    H250210   4.093   0.082   1.953  0.4548  1.4170 -0.3094
 9599TIP3   OH250211   0.351   0.341  17.113 -0.0470 -0.1182  0.2203
 9599TIP3    H150212   0.335   0.350  17.018  0.5245 -0.8950  0.0440
 9599TIP3    H250213   0.386   0.426  17.139 -1.0940  0.4306 -0.0698
 9600TIP3   OH250214   5.484   4.974   3.883  0.3292 -0.5819  0.1013
 9600TIP3    H150215   5.464   4.889   3.844 -0.6236  0.1656 -1.1281
 9600TIP3    H250216   5.464   4.964   3.976  2.5662 -2.4068  0.4804
 9601TIP3   OH250217   1.361   6.668   0.688 -0.7590  0.1435 -0.6059
 9601TIP3    H150218   1.436   6.723   0.666  0.2378 -0.7624  0.4402
 9601TIP3    H250219   1.330   6.702   0.772  0.3152 -1.2899  0.4158
 9602TIP3   OH250220   3.290   6.230   1.874 -0.1623  0.1506 -0.2748
 9602TIP3    H150221   3.222   6.256   1.936  0.4822 -0.6613  0.7948
 9602TIP3    H250222   3.267   6.276   1.793 -1.4980  0.5543  0.3076
 9603TIP3   OH250223   0.594   1.412   5.405 -0.3046 -0.5515  0.1305
 9603TIP3    H150224   0.547   1.345   5.357 -1.9735  0.4552  0.2972
 9603TIP3    H250225   0.684   1.406   5.373 -1.0207 -0.9832 -1.9219
 9604TIP3   OH250226   2.244   6.618   4.201  0.3941  0.4148 -0.4172
 9604TIP3    H150227   2.165   6.656   4.238  0.0503  0.5699 -1.2791
 9604TIP3    H250228   2.286   6.572   4.274 -0.7034 -0.0204 -0.0498
 9605TIP3   OH250229   5.743   3.292   5.542  0.3010  0.0077  0.3261
 9605TIP3    H150230   5.765   3.208   5.581  0.4452  0.3989  1.1123
 9605TIP3    H250231   5.714   3.271   5.453  0.5037 -0.8472  0.4569
 9606TIP3   OH250232   3.480   5.733  14.517  0.7721 -0.2332  0.0662
 9606TIP3    H150233   3.480   5.678  14.438  1.7955 -0.2776  0.0856
 9606TIP3    H250234   3.508   5.675  14.587  1.4698  0.2049  0.1590
 9607TIP3   OH250235   2.395   6.564   5.929  0.0171  0.6242  0.3059
 9607TIP3    H150236   2.330   6.530   5.990  1.2232  2.0056  2.5071
 9607TIP3    H250237   2.410   6.492   5.868 -1.3515 -0.8034  1.5465
 9608TIP3   OH250238   6.071   3.296   2.676 -0.6264 -0.1439  0.0958
 9608TIP3    H150239   6.146   3.351   2.653  0.1035 -0.6185  1.2338
 9608TIP3    H250240   5.995   3.352   2.663  0.0003  0.7009 -0.0324
 9609TIP3   OH250241   1.088   1.799  10.382 -0.3478 -0.2491  0.1731
 9609TIP3    H150242   1.019   1.860  10.355 -0.2580 -0.1620  0.1409
 9609TIP3    H250243   1.043   1.715  10.392 -0.4910 -0.1539  0.3232
 9610TIP3   OH250244   5.718   4.130  16.500 -0.1723  0.5110 -0.0436
 9610TIP3    H150245   5.732   4.120  16.406  0.2602  0.6955  0.0001
 9610TIP3    H250246   5.782   4.195  16.527 -1.1900  1.4627  0.1428
 9611TIP3   OH250247   6.735   6.707  13.811 -0.5924 -0.0946  0.3011
 9611TIP3    H150248   6.770   6.772  13.873  2.6070 -0.3291 -1.0722
 9611TIP3    H250249   6.770   6.734  13.726 -0.5320 -2.6511 -0.5703
 9612TIP3   OH250250   2.217   6.745  14.888 -0.3388  0.2977 -0.0863
 9612TIP3    H150251   2.125   6.771  14.888 -0.7062 -0.9166  0.5541
 9612TIP3    H250252   2.229   6.699  14.971  0.1225 -1.9334 -1.3010
 9613TIP3   OH250253   4.953   4.749  16.170 -0.2452 -0.1962  0.6913
 9613TIP3    H150254   5.043   4.775  16.191  0.2350 -0.4757 -0.8399
 9613TIP3    H250255   4.939   4.782  16.081 -2.0774  0.8198  1.3117
 9614TIP3   OH250256   4.853   2.520   0.186  0.3247  0.4283 -0.1653
 9614TIP3    H150257   4.855   2.550   0.096  0.7915 -1.0313 -0.6685
 9614TIP3    H250258   4.771   2.470   0.194  0.8561 -0.4647 -0.1464
 9615TIP3   OH250259   4.154   6.735  13.705 -0.1298  0.0682  0.7055
 9615TIP3    H150260   4.068   6.747  13.746 -0.9401  0.7070 -1.0646
 9615TIP3    H250261   4.142   6.659  13.649  0.3764  0.3441  0.2250
 9616TIP3   OH250262   6.739   4.587   2.564  0.4041 -0.3504 -0.6869
 9616TIP3    H150263   6.767   4.529   2.494  0.6523  0.5082 -1.3058
 9616TIP3    H250264   6.643   4.586   2.559  0.3664 -1.3171 -0.1702
 9617TIP3   OH250265   4.278   5.861  11.905  0.3076  0.7464 -0.2839
 9617TIP3    H150266   4.310   5.896  11.988  0.4966  0.2017 -0.1174
 9617TIP3    H250267   4.355   5.820  11.865 -0.4784 -2.3746  1.0377
 9618TIP3   OH250268   5.479   0.059  16.409  0.0254  0.0621 -0.4880
 9618TIP3    H150269   5.548   0.087  16.468 -0.7513  0.5046  0.2426
 9618TIP3    H250270   5.464   0.135  16.352  0.9333 -0.4466 -1.4191
 9619TIP3   OH250271   4.196   2.344   4.905  0.1018 -0.3465 -0.2989
 9619TIP3    H150272   4.217   2.431   4.937  0.4968 -0.3063 -0.6576
 9619TIP3    H250273   4.206   2.350   4.810  0.9302 -0.9812 -0.2742
 9620TIP3   OH250274   4.627   1.966  14.267 -0.2213  0.6281 -0.5790
 9620TIP3    H150275   4.631   2.062  14.264 -0.8657  0.6573 -3.3046
 9620TIP3    H250276   4.558   1.943  14.205 -0.1214 -1.6209  0.0547
 9621TIP3   OH250277   5.385   0.710   3.267 -0.5617 -0.5124 -0.0888
 9621TIP3    H150278   5.353   0.660   3.342 -1.1815 -0.6806 -0.4614
 9621TIP3    H250279   5.333   0.679   3.193 -0.2937  0.0004 -0.4998
 9622TIP3   OH250280   5.110   5.164   5.346 -0.1586  0.2300 -0.3507
 9622TIP3    H150281   5.131   5.102   5.277 -1.8237 -0.2619 -0.4492
 9622TIP3    H250282   5.015   5.176   5.341 -0.1154  1.4013  0.8330
 9623TIP3   OH250283   2.483   3.290   6.661 -0.1366 -0.1788 -0.0891
 9623TIP3    H150284   2.555   3.313   6.720  0.2066  0.8025 -0.8609
 9623TIP3    H250285   2.518   3.304   6.573 -1.1661 -0.0153 -0.4909
 9624TIP3   OH250286   1.101   6.347  10.806 -0.0921  0.0727  0.7250
 9624TIP3    H150287   1.026   6.382  10.757 -0.6194  1.3893  2.3681
 9624TIP3    H250288   1.062   6.312  10.886  1.0918  1.6566  2.0695
 9625TIP3   OH250289   3.694   5.590   3.051  0.0273  0.0992  0.0230
 9625TIP3    H150290   3.674   5.597   3.144  1.1138 -1.0468  0.3815
 9625TIP3    H250291   3.755   5.661   3.034  0.2799 -0.0419  0.3293
 9626TIP3   OH250292   2.231   6.091  16.395  0.1965  0.0642  0.1571
 9626TIP3    H150293   2.311   6.098  16.447  0.2334 -0.0039  0.1092
 9626TIP3    H250294   2.172   6.157  16.432 -0.8205 -1.7956  2.1275
 9627TIP3   OH250295   0.692   0.653  13.275  0.4636  0.4031  0.0568
 9627TIP3    H150296   0.749   0.723  13.244 -0.5302  1.5449  0.7278
 9627TIP3    H250297   0.713   0.645  13.368  1.4118 -1.0429 -0.2429
 9628TIP3   OH250298   6.743   1.494  11.920  0.3469  0.6901  0.2278
 9628TIP3    H150299   6.789   1.518  12.000  1.6013 -1.0361  0.0772
 9628TIP3    H250300   6.703   1.409  11.939  1.7113 -0.3702 -1.3056
 9629TIP3   OH250301   1.703   0.808  12.099  0.7235 -0.3878  0.4348
 9629TIP3    H150302   1.721   0.717  12.123 -0.4798 -0.7897 -0.1153
 9629TIP3    H250303   1.695   0.854  12.182  1.5407 -0.7404  0.7132
 9630TIP3   OH250304   0.013   2.009   2.272  0.3330  0.1662  0.2905
 9630TIP3    H150305  -0.008   1.916   2.265 -0.4605  0.2645  1.2079
 9630TIP3    H250306  -0.043   2.042   2.342  2.0229  0.9216  1.3634
 9631TIP3   OH250307   2.843   2.398  14.784  0.9986  0.7105  0.4635
 9631TIP3    H150308   2.813   2.488  14.777 -0.6769  0.1450 -0.0425
 9631TIP3    H250309   2.788   2.359  14.851  0.8360 -0.2661 -0.2141
 9632TIP3   OH250310   2.076   3.420   3.922  0.1452  0.2492 -0.2710
 9632TIP3    H150311   2.009   3.376   3.975 -2.0969  1.7154 -1.7010
 9632TIP3    H250312   2.154   3.365   3.931 -1.3381 -1.7526  1.2225
 9633TIP3   OH250313   4.019   3.796   4.169  0.2817 -0.3166  0.2816
 9633TIP3    H150314   4.008   3.750   4.086  0.0791 -0.8963  0.6246
 9633TIP3    H250315   4.086   3.862   4.152 -1.6018  1.3668 -1.0827
 9634TIP3   OH250316   3.688   1.994  14.405 -0.3418 -0.1136 -0.1748
 9634TIP3    H150317   3.781   1.987  14.426 -0.1716  0.9714 -0.4960
 9634TIP3    H250318   3.646   2.017  14.487 -0.0981  0.9489 -0.3223
 9635TIP3   OH250319   2.714   1.825  16.493  0.2521  0.6483  0.6986
 9635TIP3    H150320   2.737   1.736  16.466 -0.5793  0.4667  0.5649
 9635TIP3    H250321   2.698   1.872  16.411  2.1480  1.3547  0.6823
 9636TIP3   OH250322   1.637   2.793   2.849 -0.1518 -0.3558  0.1657
 9636TIP3    H150323   1.597   2.875   2.820  0.6363 -0.0679 -0.1519
 9636TIP3    H250324   1.655   2.745   2.768  0.9120 -0.0981  0.2237
 9637TIP3   OH250325   3.057   1.046  12.493  0.1443 -1.1234  0.4394
 9637TIP3    H150326   3.073   1.109  12.562 -0.2182 -1.1103  0.5142
 9637TIP3    H250327   3.068   0.960  12.535  2.6783 -1.1489 -0.1294
 9638TIP3   OH250328   6.559   1.526  11.685  0.7076 -0.3391 -0.2095
 9638TIP3    H150329   6.633   1.538  11.744  0.2924  1.4152  0.0110
 9638TIP3    H250330   6.529   1.437  11.701  1.3912 -0.3174  1.2985
 9639TIP3   OH250331   6.112   2.520  16.978 -0.2261  0.4674 -0.2382
 9639TIP3    H150332   6.128   2.546  17.069  0.0923 -1.3175  0.2540
 9639TIP3    H250333   6.022   2.546  16.961 -0.5776  0.0653  0.8960
 9640TIP3   OH250334   6.172   3.741  16.692  1.1233 -0.1646 -0.2358
 9640TIP3    H150335   6.144   3.658  16.655 -0.0787 -0.1993  0.6954
 9640TIP3    H250336   6.133   3.808  16.636 -0.1710 -0.2235  0.5533
 9641TIP3   OH250337   2.398   0.933  14.497  0.1417  0.0213 -1.1450
 9641TIP3    H150338   2.384   1.000  14.565  2.9472  1.0989 -1.4947
 9641TIP3    H250339   2.347   0.964  14.423 -3.0139 -1.1910  0.3479
 9642TIP3   OH250340   0.177   1.917   4.698 -0.1896 -0.2482 -0.1384
 9642TIP3    H150341   0.190   1.935   4.791  2.1595 -0.0673 -0.4395
 9642TIP3    H250342   0.089   1.950   4.679  0.2310  2.0400  1.4723
 9643TIP3   OH250343   1.013   3.224  11.830 -0.4005 -0.8775  0.2790
 9643TIP3    H150344   0.985   3.163  11.898  0.6617 -0.5696  1.0096
 9643TIP3    H250345   0.995   3.177  11.748 -1.9862 -1.1202  0.7354
 9644TIP3   OH250346   0.286   3.772   2.979 -0.5920  0.2689  0.2516
 9644TIP3    H150347   0.316   3.758   3.069 -1.6171  0.1070  0.5780
 9644TIP3    H250348   0.272   3.866   2.973  0.5092  0.4336 -0.0910
 9645TIP3   OH250349   1.540   4.095  16.367 -0.4695 -0.1677 -0.3098
 9645TIP3    H150350   1.468   4.151  16.340 -0.6501 -0.4720 -0.4578
 9645TIP3    H250351   1.616   4.127  16.318 -0.3042  0.7182  0.4981
 9646TIP3   OH250352   5.543   4.754  13.176 -0.2143 -0.7022 -0.5156
 9646TIP3    H150353   5.484   4.698  13.227 -1.5469  0.2695 -0.9339
 9646TIP3    H250354   5.623   4.758  13.229 -0.4769 -2.0891  0.0431
 9647TIP3   OH250355   4.675   2.474  15.016  1.1184 -0.3323 -0.1696
 9647TIP3    H150356   4.734   2.407  15.050 -0.0956 -1.7435 -0.7195
 9647TIP3    H250357   4.727   2.522  14.952  2.0489 -0.6499  0.3274
 9648TIP3   OH250358   4.824   3.035  15.726 -0.3436  0.1122 -0.1141
 9648TIP3    H150359   4.909   3.012  15.689  1.6566  3.8179  1.6597
 9648TIP3    H250360   4.789   3.102  15.667 -1.3794 -0.3441 -0.0466
 9649TIP3   OH250361   2.248   3.886   4.551 -0.4861  0.2452 -0.0975
 9649TIP3    H150362   2.190   3.831   4.604 -1.3528 -1.7499 -2.9037
 9649TIP3    H250363   2.333   3.844   4.558 -0.7801 -0.5205 -0.8659
 9650TIP3   OH250364   5.097   0.515  12.307 -0.1081 -0.4509  0.1178
 9650TIP3    H150365   5.057   0.544  12.225  2.3402  1.6579 -0.5034
 9650TIP3    H250366   5.029   0.527  12.373 -1.7081 -0.8840 -1.3915
 9651TIP3   OH250367   0.319   0.667  12.476  0.0624  0.0893  0.1502
 9651TIP3    H150368   0.361   0.644  12.394 -0.5885  0.0775 -0.1869
 9651TIP3    H250369   0.240   0.715  12.450 -1.2248 -1.6611  0.6871
 9652TIP3   OH250370   1.538   6.504   5.257 -0.2980 -0.4443  0.8665
 9652TIP3    H150371   1.580   6.507   5.171 -1.1500 -1.2066  0.4029
 9652TIP3    H250372   1.600   6.456   5.312  0.4603  0.4413  0.8202
 9653TIP3   OH250373   1.146   0.994  15.536 -0.2920 -0.3614 -0.2659
 9653TIP3    H150374   1.147   0.979  15.441 -1.0986  0.1979 -0.3717
 9653TIP3    H250375   1.103   1.079  15.547 -0.6687 -0.6558  0.6359
 9654TIP3   OH250376   4.644   2.361   0.586 -0.0380  0.0321 -0.4570
 9654TIP3    H150377   4.678   2.287   0.535 -2.1516 -1.2084 -0.2142
 9654TIP3    H250378   4.574   2.323   0.639 -2.1181  2.4090 -1.2774
 9655TIP3   OH250379   0.345   1.026  14.730  0.6291  0.6073  0.2844
 9655TIP3    H150380   0.441   1.027  14.728  0.6998 -1.4212  0.4614
 9655TIP3    H250381   0.323   0.933  14.732 -1.3893  0.9810 -1.3301
 9656TIP3   OH250382   5.492   1.424  13.708 -0.1366  0.4554  0.5439
 9656TIP3    H150383   5.408   1.467  13.690  0.1545  1.3706  1.2901
 9656TIP3    H250384   5.490   1.406  13.802  1.2276  2.1493  0.9437
 9657TIP3   OH250385   1.477   4.893   5.546 -0.2330  0.3112 -0.1444
 9657TIP3    H150386   1.493   4.881   5.639 -3.2171 -0.8223  0.3434
 9657TIP3    H250387   1.564   4.894   5.506  1.1285  0.9252  2.6270
 9658TIP3   OH250388   1.788   0.809  14.421 -0.3893  0.4400  0.3485
 9658TIP3    H150389   1.749   0.869  14.357 -0.6097 -0.8139 -0.7281
 9658TIP3    H250390   1.769   0.722  14.387  0.5195 -0.2472  1.5289
 9659TIP3   OH250391   3.410   0.625   0.633  0.7266 -0.4044  0.1593
 9659TIP3    H150392   3.422   0.665   0.719 -0.6168  1.8155 -0.5997
 9659TIP3    H250393   3.389   0.699   0.575  1.7176 -1.8145 -2.1141
 9660TIP3   OH250394   4.885   4.127  12.166  0.6417  0.1052  0.5003
 9660TIP3    H150395   4.935   4.092  12.092 -3.9184 -2.0555 -1.9914
 9660TIP3    H250396   4.858   4.049  12.215  2.1048  1.4052  3.6378
 9661TIP3   OH250397   5.254   2.009   2.689  0.5485  0.1571  0.1332
 9661TIP3    H150398   5.297   1.974   2.611  1.6163 -1.0250  1.2020
 9661TIP3    H250399   5.320   2.001   2.759 -0.1793  1.6888  1.0570
 9662TIP3   OH250400   5.424   6.634  13.435  0.4431  0.0377 -0.1131
 9662TIP3    H150401   5.429   6.729  13.427 -0.3959  0.0532 -0.5677
 9662TIP3    H250402   5.337   6.617  13.473  0.0754 -0.5953 -1.1857
 9663TIP3   OH250403   1.499   5.813  14.270 -1.3070 -0.4533  0.1133
 9663TIP3    H150404   1.466   5.859  14.193  1.1749 -1.5453 -1.7309
 9663TIP3    H250405   1.560   5.876  14.310 -0.3985 -0.9210 -0.5157
 9664TIP3   OH250406   0.979   3.313   3.765  0.1462 -0.0896  0.4852
 9664TIP3    H150407   0.916   3.300   3.694  0.5627 -2.2905  0.4297
 9664TIP3    H250408   0.925   3.333   3.841 -0.3849  1.1483 -0.1882
 9665TIP3   OH250409   0.830   3.109  14.540  0.4411  0.2888 -0.0423
 9665TIP3    H150410   0.776   3.178  14.578  0.4325  0.3189 -0.1100
 9665TIP3    H250411   0.918   3.126  14.575  0.6780  1.0029 -0.9418
 9666TIP3   OH250412   2.593   6.747   3.130 -0.2395 -0.1424  0.3167
 9666TIP3    H150413   2.571   6.840   3.144  1.8240  0.2865  1.0823
 9666TIP3    H250414   2.565   6.704   3.211  0.9263  0.2650  0.9675
 9667TIP3   OH250415   2.416   1.074   0.033 -0.2530  0.0493  0.2341
 9667TIP3    H150416   2.444   1.072  -0.059  1.0029  0.4285  0.5918
 9667TIP3    H250417   2.404   1.166   0.053 -0.2470 -0.0109  0.5247
 9668TIP3   OH250418   4.879   2.770   2.647 -0.4525 -0.3549 -0.0307
 9668TIP3    H150419   4.943   2.746   2.714 -1.1230  0.7515  1.0483
 9668TIP3    H250420   4.796   2.734   2.678 -0.5863 -0.7486 -0.8179
 9669TIP3   OH250421   1.899   0.389  15.960  0.3442  0.6558 -0.4293
 9669TIP3    H150422   1.887   0.475  16.000 -0.9945 -1.0319  3.2606
 9669TIP3    H250423   1.847   0.391  15.880  0.5318  3.2964 -0.5488
 9670TIP3   OH250424   6.642   5.143  15.163  0.1954 -0.0084  0.1972
 9670TIP3    H150425   6.581   5.087  15.210 -0.1361  0.9477  0.9303
 9670TIP3    H250426   6.719   5.149  15.220  0.2287  0.2890  0.1216
 9671TIP3   OH250427   6.648   4.868   5.983  0.1077  0.2461 -0.0102
 9671TIP3    H150428   6.688   4.839   6.065 -2.2240 -2.2495  0.4138
 9671TIP3    H250429   6.654   4.792   5.925 -1.7927  0.5703 -0.7135
 9672TIP3   OH250430   5.198   3.852   3.065 -0.6586  0.5560  0.5059
 9672TIP3    H150431   5.221   3.792   3.135  1.8854  2.1092  1.1779
 9672TIP3    H250432   5.193   3.798   2.987 -1.3234 -0.8939  1.5241
 9673TIP3   OH250433   0.409   1.844  15.429 -0.6508  0.1191  0.1403
 9673TIP3    H150434   0.382   1.829  15.520  0.0387 -1.9338  0.0634
 9673TIP3    H250435   0.335   1.890  15.389 -1.1598  0.6323  1.6106
 9674TIP3   OH250436   0.286   6.415   0.604 -0.0788 -0.0331  0.5012
 9674TIP3    H150437   0.284   6.327   0.567  0.5942 -0.0070  0.3946
 9674TIP3    H250438   0.211   6.417   0.664 -1.3929  0.0336 -1.0752
 9675TIP3   OH250439   6.486   3.660   6.074 -0.3992 -0.0937 -0.6866
 9675TIP3    H150440   6.561   3.666   6.016  0.8436 -1.2163  0.7073
 9675TIP3    H250441   6.513   3.705   6.154 -0.7991 -1.3092  0.1835
 9676TIP3   OH250442   0.314   3.890   6.592 -0.8006  0.3415 -0.3539
 9676TIP3    H150443   0.388   3.934   6.549 -1.0101  0.1550 -0.9249
 9676TIP3    H250444   0.259   3.961   6.624 -0.7097  0.4913 -0.5267
 9677TIP3   OH250445   2.886   5.270   2.106 -0.4223 -0.1129  0.0027
 9677TIP3    H150446   2.933   5.219   2.040  1.7543  1.2413  0.3881
 9677TIP3    H250447   2.929   5.249   2.188 -0.5872  1.0571  0.4080
 9678TIP3   OH250448   6.689   2.688   1.685 -0.6273  0.3838 -0.1621
 9678TIP3    H150449   6.603   2.727   1.693 -0.1008  1.5016  0.2231
 9678TIP3    H250450   6.719   2.713   1.597 -0.1559  1.1522  0.2077
 9679TIP3   OH250451   0.943   5.301   2.793 -0.0240 -0.4340 -0.0901
 9679TIP3    H150452   0.999   5.365   2.838 -0.2591 -0.0432 -0.3559
 9679TIP3    H250453   0.857   5.341   2.790 -0.1523 -0.7219 -0.3440
 9680TIP3   OH250454   6.714   0.750  12.190 -0.3021 -0.6669 -0.4783
 9680TIP3    H150455   6.762   0.776  12.111  4.5999 -2.1751  1.5657
 9680TIP3    H250456   6.702   0.655  12.181 -1.9821 -0.4735 -0.4470
 9681TIP3   OH250457   3.074   1.867  12.075  0.3247  0.2252  0.4130
 9681TIP3    H150458   3.131   1.831  12.143 -0.6537  1.5949  2.0223
 9681TIP3    H250459   3.050   1.791  12.022  3.8646 -0.3735 -0.5816
 9682TIP3   OH250460   3.888   4.874  17.129 -0.2048  0.4194  0.1010
 9682TIP3    H150461   3.904   4.787  17.167 -1.8918  0.9978  2.2719
 9682TIP3    H250462   3.801   4.868  17.091  0.0933  0.8799 -0.6715
 9683TIP3   OH250463   3.209   1.536  12.425  0.3467  0.4194  0.5452
 9683TIP3    H150464   3.291   1.551  12.377 -0.1355  1.9278  0.1062
 9683TIP3    H250465   3.141   1.539  12.357 -0.3018  2.0131  1.2036
 9684TIP3   OH250466   6.384   4.108   2.655 -0.3880 -0.1595  0.2196
 9684TIP3    H150467   6.430   4.032   2.619 -1.9340  0.4305 -3.4836
 9684TIP3    H250468   6.454   4.162   2.693  1.4815 -1.1240 -1.5941
 9685TIP3   OH250469   6.302   0.521   2.273 -0.1506 -0.0673 -0.4354
 9685TIP3    H150470   6.274   0.435   2.242  0.6470 -0.1524 -0.9640
 9685TIP3    H250471   6.288   0.579   2.198 -2.2196  0.6207  0.4303
 9686TIP3   OH250472   5.690   0.474   5.737 -0.1180 -0.2380  0.0020
 9686TIP3    H150473   5.719   0.562   5.712  1.7090 -0.5597  0.8719
 9686TIP3    H250474   5.770   0.428   5.762 -1.0361 -2.1869 -0.4865
 9687TIP3   OH250475   5.464   3.837  11.110 -0.4707  1.1850  0.2528
 9687TIP3    H150476   5.521   3.767  11.078 -0.4678  0.9290  0.8021
 9687TIP3    H250477   5.379   3.819  11.071 -0.4046  1.0231  0.1845
 9688TIP3   OH250478   5.066   0.601  13.469 -0.2854 -0.0041 -0.0514
 9688TIP3    H150479   5.145   0.634  13.511 -0.3190  1.8260 -1.3154
 9688TIP3    H250480   5.098   0.534  13.409 -0.1759 -2.2005  2.2524
 9689TIP3   OH250481   2.496   1.150  10.761  0.4112  0.0095  0.5385
 9689TIP3    H150482   2.465   1.068  10.798  2.0321 -1.0636 -0.3801
 9689TIP3    H250483   2.459   1.152  10.673  1.9428 -0.7138 -0.1425
 9690TIP3   OH250484   6.754   3.015   4.442 -0.2108  0.7990 -0.0777
 9690TIP3    H150485   6.695   2.972   4.379  0.8556  2.2967 -2.2562
 9690TIP3    H250486   6.696   3.054   4.507 -1.2767 -2.3525  1.0156
 9691TIP3   OH250487   4.945   2.074  11.688 -0.2056 -0.4036 -0.5875
 9691TIP3    H150488   4.991   2.024  11.755 -0.3373 -0.6468 -0.6781
 9691TIP3    H250489   4.872   2.115  11.734  0.8284  1.0481 -0.1572
 9692TIP3   OH250490   3.426   2.201   2.344 -0.1659  0.1946  0.8626
 9692TIP3    H150491   3.413   2.246   2.428 -0.5657 -0.2492  1.0439
 9692TIP3    H250492   3.369   2.124   2.349 -1.4477  0.9961 -0.4579
 9693TIP3   OH250493   4.680   0.937   5.204  0.3472  0.1401  0.3299
 9693TIP3    H150494   4.748   0.885   5.159 -0.5355 -0.3184 -0.5102
 9693TIP3    H250495   4.637   0.874   5.261  0.7550  0.4835  1.0307
 9694TIP3   OH250496   1.872   1.025  11.149 -0.0863 -0.1463 -0.9337
 9694TIP3    H150497   1.907   1.105  11.188 -1.4061 -0.5837  1.4008
 9694TIP3    H250498   1.931   1.003  11.078  1.9029  1.3751  0.1736
 9695TIP3   OH250499   5.801   2.172   3.661 -0.6352 -0.3872  0.0896
 9695TIP3    H150500   5.783   2.125   3.579 -0.5666  0.9424 -0.7144
 9695TIP3    H250501   5.734   2.141   3.722 -1.2901 -0.6849 -0.7569
 9696TIP3   OH250502   1.329   4.237  12.608 -0.4202  0.4161 -0.2875
 9696TIP3    H150503   1.352   4.294  12.534 -0.4663 -0.2888 -0.8587
 9696TIP3    H250504   1.362   4.151  12.582 -0.1688  0.2230  0.6559
 9697TIP3   OH250505   1.197   6.637   2.136 -0.2990 -0.1476  0.1537
 9697TIP3    H150506   1.114   6.591   2.155 -0.9254  0.7273 -0.4059
 9697TIP3    H250507   1.199   6.644   2.041  0.1566  0.3250  0.1967
 9698TIP3   OH250508   1.875   1.585   2.889  0.9205  0.0263  1.0342
 9698TIP3    H150509   1.962   1.572   2.926  1.2661 -2.7296 -0.4885
 9698TIP3    H250510   1.890   1.612   2.799  0.3285 -2.4599  0.1178
 9699TIP3   OH250511   4.461   1.778   3.024 -0.2964  0.0447  0.5364
 9699TIP3    H150512   4.422   1.708   3.076 -0.0023 -0.0364  0.6521
 9699TIP3    H250513   4.532   1.736   2.975 -1.7928 -0.2941 -1.4461
 9700TIP3   OH250514   0.004   2.644   5.605 -0.1544 -0.3755  0.2195
 9700TIP3    H150515  -0.006   2.574   5.540  0.4989  0.3624 -0.7232
 9700TIP3    H250516  -0.012   2.603   5.689 -1.1910 -1.3380 -0.4279
 9701TIP3   OH250517   2.440   4.095   1.987 -0.2270  0.7642 -0.6247
 9701TIP3    H150518   2.473   4.011   2.019  1.5374  1.3134 -0.9147
 9701TIP3    H250519   2.345   4.085   1.989 -0.1550 -0.1352  2.2640
 9702TIP3   OH250520   0.454   5.430  12.042 -0.7071 -0.2718 -0.2342
 9702TIP3    H150521   0.456   5.416  12.137  0.2031 -1.1449 -0.3646
 9702TIP3    H250522   0.360   5.432  12.021 -0.9212 -0.4751  0.6300
 9703TIP3   OH250523   3.199   2.952   1.937  0.0349  0.2756 -0.7884
 9703TIP3    H150524   3.168   3.010   1.867  0.4710  0.7510 -0.5922
 9703TIP3    H250525   3.217   3.010   2.010 -2.5638 -0.4170  0.5528
 9704TIP3   OH250526   2.221   4.669   3.278 -0.2765  0.2064 -0.3812
 9704TIP3    H150527   2.278   4.660   3.202  0.7403  0.6171  0.3084
 9704TIP3    H250528   2.141   4.708   3.244  0.2940  0.6956 -1.1813
 9705TIP3   OH250529   1.721   2.226   2.494 -0.2982 -0.1919 -0.4440
 9705TIP3    H150530   1.760   2.314   2.500 -1.3910  0.5481 -2.7302
 9705TIP3    H250531   1.794   2.170   2.468  0.9624 -0.5541  3.3672
 9706TIP3   OH250532   2.887   3.950  16.126  0.7934  0.1297 -0.6677
 9706TIP3    H150533   2.978   3.959  16.155  0.0595 -1.6244  2.8206
 9706TIP3    H250534   2.857   4.039  16.111  1.8443  1.2692  2.9308
 9707TIP3   OH250535   1.807   1.930   0.218 -0.9003  0.3082 -0.3161
 9707TIP3    H150536   1.899   1.914   0.195  0.4628  1.4576  3.5243
 9707TIP3    H250537   1.771   1.842   0.230  0.7758 -0.2201  1.4363
 9708TIP3   OH250538   3.949   5.783  10.593 -0.3909 -0.1055 -0.0892
 9708TIP3    H150539   3.898   5.731  10.530  0.6323  0.4975 -1.4698
 9708TIP3    H250540   3.895   5.861  10.608 -0.7630 -0.3737 -0.0075
 9709TIP3   OH250541   6.617   4.467  13.777  0.4278  0.1860 -0.2042
 9709TIP3    H150542   6.708   4.495  13.787  0.4573  0.3892 -0.9804
 9709TIP3    H250543   6.566   4.535  13.821  0.6540 -0.0736  0.4853
 9710TIP3   OH250544   4.461   4.050   2.978  0.3903 -0.4064  0.4049
 9710TIP3    H150545   4.523   3.986   2.942  0.8367  0.3183 -0.1368
 9710TIP3    H250546   4.395   3.996   3.021  2.2756 -1.1847  2.5520
 9711TIP3   OH250547   4.722   3.234  15.570 -0.2531  0.3176 -0.0277
 9711TIP3    H150548   4.773   3.264  15.494 -0.4526 -1.7227 -1.0219
 9711TIP3    H250549   4.657   3.303  15.584 -0.4301  0.5944 -1.9410
 9712TIP3   OH250550   5.016   6.397   1.729  0.2930  0.1690  0.1894
 9712TIP3    H150551   4.979   6.308   1.729  1.1306 -0.2345 -1.5283
 9712TIP3    H250552   4.991   6.432   1.643  1.6681  0.8396  0.0397
 9713TIP3   OH250553   3.130   6.146  14.393 -0.0788  0.3003  0.0018
 9713TIP3    H150554   3.053   6.103  14.356  1.0081  0.7654 -3.0655
 9713TIP3    H250555   3.189   6.074  14.415 -0.0712  0.0393 -0.8284
 9714TIP3   OH250556   3.121   0.391  17.108  0.4857  0.1459  0.6685
 9714TIP3    H150557   3.190   0.443  17.149 -0.6210  1.0123  1.5195
 9714TIP3    H250558   3.049   0.392  17.172 -1.7271  2.3742 -1.5928
 9715TIP3   OH250559   5.156   6.414  14.277  0.0632 -0.5053 -0.5783
 9715TIP3    H150560   5.212   6.471  14.329  1.3448 -1.4808 -0.8172
 9715TIP3    H250561   5.184   6.325  14.301 -2.9029 -1.1482  0.9415
 9716TIP3   OH250562   6.410   5.331   1.589  0.3642  0.1064 -0.3518
 9716TIP3    H150563   6.434   5.324   1.681 -2.9838 -1.5318  0.5317
 9716TIP3    H250564   6.331   5.384   1.588 -1.0644 -1.9060 -1.9327
 9717TIP3   OH250565   6.712   5.681  14.159  0.6103  0.1586 -0.0474
 9717TIP3    H150566   6.706   5.700  14.253 -1.5348  0.2389 -0.1424
 9717TIP3    H250567   6.794   5.633  14.149  0.0510 -1.4010  2.1539
 9718TIP3   OH250568   0.402   6.057  15.016  0.0099  0.3847 -0.2026
 9718TIP3    H150569   0.358   5.997  14.956  0.9188 -1.6513  1.0718
 9718TIP3    H250570   0.331   6.105  15.058 -0.7403  0.2063 -1.2172
 9719TIP3   OH250571   3.772   3.018   4.162 -0.3966 -0.1530 -0.1336
 9719TIP3    H150572   3.700   3.032   4.224  0.0234  0.6120  0.2059
 9719TIP3    H250573   3.749   3.072   4.087 -0.1039  0.2168  0.0411
 9720TIP3   OH250574   4.004   4.929   5.627  0.3983  0.0546 -0.5653
 9720TIP3    H150575   4.056   4.880   5.563 -1.0049 -0.9093 -1.0227
 9720TIP3    H250576   3.998   5.017   5.590 -0.0822 -0.3885 -1.5927
 9721TIP3   OH250577   5.390   4.455   4.514  0.3313  0.3701 -0.3412
 9721TIP3    H150578   5.461   4.469   4.452 -0.9564 -0.3693 -2.0675
 9721TIP3    H250579   5.315   4.499   4.475 -0.0679  1.6730  1.7463
 9722TIP3   OH250580   1.023   5.244  16.022  0.2708 -0.4386 -0.7408
 9722TIP3    H150581   0.974   5.270  16.101  0.2840 -2.2442 -0.0936
 9722TIP3    H250582   1.040   5.150  16.034  2.2079 -0.2901 -1.8605
 9723TIP3   OH250583   1.872   4.802   2.182  0.6380 -0.4025  0.2346
 9723TIP3    H150584   1.916   4.837   2.260  1.7463 -0.4175 -0.3713
 9723TIP3    H250585   1.819   4.730   2.216 -0.3943  0.7791  1.2467
 9724TIP3   OH250586   6.714   2.390  15.090  0.6463 -0.0862  0.2323
 9724TIP3    H150587   6.753   2.338  15.160  1.2203 -1.9845 -1.3937
 9724TIP3    H250588   6.722   2.481  15.120  0.4930 -0.8434  2.7613
 9725TIP3   OH250589   3.779   4.309  14.728  0.0972  0.1956 -0.4607
 9725TIP3    H150590   3.869   4.313  14.759  0.2675 -1.6458 -0.6084
 9725TIP3    H250591   3.781   4.247  14.655 -1.2323  0.3435 -0.6506
 9726TIP3   OH250592   3.378   1.815  12.941 -0.0412 -0.5007 -0.5125
 9726TIP3    H150593   3.328   1.753  12.994 -0.3668  1.9320  2.2904
 9726TIP3    H250594   3.469   1.801  12.965 -0.0300 -0.4885 -0.5473
 9727TIP3   OH250595   0.467   4.956  17.119  0.8916  0.2509  0.3205
 9727TIP3    H150596   0.501   5.045  17.113 -0.2612  0.6301 -1.0513
 9727TIP3    H250597   0.534   4.908  17.168  2.5814  1.3666 -0.7853
 9728TIP3   OH250598   4.739   4.380   6.469 -0.6176 -0.4416 -0.6891
 9728TIP3    H150599   4.652   4.338   6.472 -1.0929  0.3288 -2.5282
 9728TIP3    H250600   4.750   4.416   6.557 -2.5677  0.2233 -0.6580
 9729TIP3   OH250601   3.190   6.336   6.002 -0.4705  0.1884  0.5213
 9729TIP3    H150602   3.176   6.427   6.030  1.3126  0.3726  0.9146
 9729TIP3    H250603   3.208   6.289   6.084  0.1392 -0.2072  0.1643
 9730TIP3   OH250604   2.082   5.160   1.661  0.1925  0.6919  0.5891
 9730TIP3    H150605   2.102   5.252   1.648  1.2223  0.6180  1.4608
 9730TIP3    H250606   2.048   5.130   1.577 -0.3828  1.9106  0.3639
 9731TIP3   OH250607   5.459   0.411   1.005 -0.2460 -0.0719  0.0423
 9731TIP3    H150608   5.443   0.498   0.968  0.4620  0.6574  1.3739
 9731TIP3    H250609   5.469   0.354   0.929 -1.7909  0.7814 -0.8654
 9732TIP3   OH250610   0.934   0.411   4.645 -0.3755 -0.3598  0.9004
 9732TIP3    H150611   0.912   0.486   4.589  1.1736 -0.0884  0.6167
 9732TIP3    H250612   0.978   0.350   4.586  0.2546 -0.5649  1.5741
 9733TIP3   OH250613   5.554   0.819   2.368  0.1314 -0.1319 -0.0417
 9733TIP3    H150614   5.588   0.764   2.438 -0.2522 -0.9782 -0.5132
 9733TIP3    H250615   5.477   0.861   2.406  0.1052 -0.3457  0.1429
 9734TIP3   OH250616   5.715   1.394   0.357  0.1330  0.2045  0.2913
 9734TIP3    H150617   5.709   1.336   0.281 -0.1383  0.2846  0.2504
 9734TIP3    H250618   5.714   1.335   0.433  3.9137 -0.1889  0.2209
 9735TIP3   OH250619   3.324   6.111  16.139 -0.8210 -0.4265  0.0652
 9735TIP3    H150620   3.387   6.165  16.092  0.8008 -1.3466  1.0493
 9735TIP3    H250621   3.261   6.173  16.177  0.3509  0.6727  0.2717
 9736TIP3   OH250622   3.897   3.854   0.746 -0.5770 -0.4289 -0.4195
 9736TIP3    H150623   3.839   3.927   0.725  1.0407  0.9939 -0.1340
 9736TIP3    H250624   3.961   3.852   0.675  0.0110 -0.8849  0.1004
 9737TIP3   OH250625   1.866   4.751  13.347  0.2930 -0.6150  0.2042
 9737TIP3    H150626   1.903   4.810  13.281  1.7432 -0.6482  0.9332
 9737TIP3    H250627   1.824   4.808  13.411 -1.5454 -0.6041 -0.9396
 9738TIP3   OH250628   1.222   1.952  14.021  0.2946 -0.4322 -0.2506
 9738TIP3    H150629   1.261   2.040  14.015  1.4223 -0.9527 -0.8964
 9738TIP3    H250630   1.202   1.929  13.930  1.8136 -1.6029 -0.3364
 9739TIP3   OH250631   4.009   3.144  12.301  0.1055  0.0711 -0.3243
 9739TIP3    H150632   4.042   3.188  12.380 -0.6936 -0.0909  0.1156
 9739TIP3    H250633   3.989   3.215  12.240  0.4151  0.2166 -0.2576
 9740TIP3   OH250634   0.069   1.157   2.068  0.3318 -0.6416 -0.0041
 9740TIP3    H150635   0.016   1.099   2.013  0.1410  0.6182 -1.1955
 9740TIP3    H250636   0.017   1.237   2.075  1.0064 -0.2634  0.8310
 9741TIP3   OH250637   2.965   0.136   5.215  0.3662  0.5161 -0.3801
 9741TIP3    H150638   2.905   0.088   5.157  1.1720 -1.9904  0.7061
 9741TIP3    H250639   3.039   0.159   5.159  0.0921  0.2226 -0.8702
 9742TIP3   OH250640   4.279   2.784   3.829 -0.2385  0.7844 -0.1995
 9742TIP3    H150641   4.238   2.855   3.779 -0.2926  0.5367 -0.5089
 9742TIP3    H250642   4.237   2.788   3.915  0.0638  1.4021 -0.0722
 9743TIP3   OH250643   0.072   4.924  14.086 -0.3912 -0.4354 -0.1691
 9743TIP3    H150644   0.033   4.873  14.015  1.0974 -0.2652 -1.1616
 9743TIP3    H250645   0.081   4.862  14.158  2.1059 -1.9454 -1.5900
 9744TIP3   OH250646   5.727   6.345   2.541  0.2018 -0.5286 -0.1750
 9744TIP3    H150647   5.756   6.318   2.628 -0.6839 -0.5820  0.1086
 9744TIP3    H250648   5.716   6.263   2.493 -1.6637 -0.6811  0.4267
 9745TIP3   OH250649   1.509   4.513  14.016  0.0567 -0.2921 -0.0482
 9745TIP3    H150650   1.565   4.437  14.033 -0.4869 -0.5614  0.6159
 9745TIP3    H250651   1.562   4.571  13.961  1.4955  0.0433  1.5858
 9746TIP3   OH250652   5.187   4.273  11.578  0.3759 -0.4205  0.2516
 9746TIP3    H150653   5.119   4.235  11.633  0.1058  0.0163  0.2290
 9746TIP3    H250654   5.151   4.358  11.552  0.4053 -0.7202 -0.7901
 9747TIP3   OH250655   2.328   5.581   2.856  0.1944 -0.4476 -0.3519
 9747TIP3    H150656   2.406   5.593   2.802 -1.1144 -0.6717 -2.4168
 9747TIP3    H250657   2.259   5.556   2.793 -1.3980 -0.8358  1.4558
 9748TIP3   OH250658   4.285   5.212  14.541 -0.6925 -0.0106  0.3501
 9748TIP3    H150659   4.227   5.174  14.607  0.8408 -2.5488  0.3654
 9748TIP3    H250660   4.373   5.186  14.567  0.1976  1.0508 -1.3592
 9749TIP3   OH250661   2.253   2.249  11.096 -0.1406 -0.3128  0.1282
 9749TIP3    H150662   2.208   2.332  11.109  1.4762  0.6115  0.1820
 9749TIP3    H250663   2.323   2.249  11.161  0.4012 -1.3302 -0.4250
 9750TIP3   OH250664   2.199   3.300  15.984 -0.2929 -0.2675 -0.2452
 9750TIP3    H150665   2.176   3.332  15.897 -2.6752 -2.2784 -0.4580
 9750TIP3    H250666   2.227   3.210  15.970  0.5450 -0.2236  0.9598
 9751TIP3   OH250667   5.750   4.136   6.056 -0.1699 -0.2371  0.3052
 9751TIP3    H150668   5.692   4.207   6.081 -0.3459  0.1592 -1.1403
 9751TIP3    H250669   5.789   4.106   6.138 -3.1319 -1.2009  1.4815
 9752TIP3   OH250670   5.311   2.421  14.669 -0.3044 -0.0786 -0.2852
 9752TIP3    H150671   5.265   2.338  14.657 -1.2774  0.4452 -0.3368
 9752TIP3    H250672   5.319   2.457  14.581 -1.6403  0.7610 -0.0996
 9753TIP3   OH250673   0.517   2.639   5.299  0.0361 -0.7484  0.1615
 9753TIP3    H150674   0.428   2.652   5.267  0.4913 -0.4349 -1.0631
 9753TIP3    H250675   0.572   2.679   5.231  1.1253 -1.3833  0.6505
 9754TIP3   OH250676   5.917   2.893   3.252 -0.0106  0.2562 -0.3603
 9754TIP3    H150677   5.907   2.971   3.306  1.0646  0.6343 -0.6874
 9754TIP3    H250678   5.909   2.820   3.315 -2.3073  0.5258 -0.2421
 9755TIP3   OH250679   5.637   2.237  13.732  0.3348  0.2923  0.4959
 9755TIP3    H150680   5.686   2.156  13.722 -0.4123  0.0238 -1.4327
 9755TIP3    H250681   5.626   2.247  13.826 -2.0314 -3.3635  0.7983
 9756TIP3   OH250682   2.543   1.866  17.124 -0.7397 -0.4564 -0.2820
 9756TIP3    H150683   2.561   1.920  17.047 -1.4118  1.4428  0.8281
 9756TIP3    H250684   2.453   1.836  17.112 -1.3362  0.9715  0.3454
 9757TIP3   OH250685   5.723   1.126   6.087  0.0524 -0.5622  0.0075
 9757TIP3    H150686   5.779   1.195   6.051  0.5539 -1.0227 -0.1176
 9757TIP3    H250687   5.748   1.122   6.180 -1.7499  1.1196  0.6247
 9758TIP3   OH250688   4.230   6.412  14.306 -0.0553 -0.5010  0.2598
 9758TIP3    H150689   4.170   6.484  14.329  1.1622 -0.1099  2.4747
 9758TIP3    H250690   4.217   6.347  14.374  3.4999  0.5456  2.1760
 9759TIP3   OH250691   6.162   0.789   0.681 -0.6683  0.1853 -0.1341
 9759TIP3    H150692   6.083   0.736   0.679 -0.3789 -0.2708  0.2389
 9759TIP3    H250693   6.234   0.725   0.680 -0.2248  0.6076 -3.1153
 9760TIP3   OH250694   4.304   3.779   5.009  0.4520  0.1710 -0.2292
 9760TIP3    H150695   4.396   3.799   5.029  0.1558  0.4345  0.9523
 9760TIP3    H250696   4.268   3.747   5.091 -0.9245  1.5967 -0.2337
 9761TIP3   OH250697   2.257   1.398  11.429 -0.3000 -0.0292 -0.1024
 9761TIP3    H150698   2.256   1.472  11.490  0.5547  0.5969 -0.8217
 9761TIP3    H250699   2.190   1.421  11.363  0.8367  0.7453 -1.0298
 9762TIP3   OH250700   3.377   2.025   0.156 -0.2957  0.3490 -0.5296
 9762TIP3    H150701   3.390   2.072   0.074 -1.5955  1.2946 -0.2213
 9762TIP3    H250702   3.283   2.004   0.157 -0.0426 -0.8282  0.1018
 9763TIP3   OH250703   2.911   4.539   1.691 -0.2204  0.0948  0.0578
 9763TIP3    H150704   2.969   4.598   1.739  1.8223 -1.1121 -0.7845
 9763TIP3    H250705   2.840   4.595   1.659  1.7641  2.1776 -0.9136
 9764TIP3   OH250706   5.085   5.842  12.215 -0.4766 -0.0839  0.4704
 9764TIP3    H150707   5.027   5.907  12.174  0.9812  0.8107 -0.2829
 9764TIP3    H250708   5.046   5.825  12.300 -4.1484 -2.6965 -1.4929
 9765TIP3   OH250709   1.937   3.865  14.959 -1.0723 -0.1317 -0.2005
 9765TIP3    H150710   1.898   3.847  14.873 -1.7205 -0.0590  0.0746
 9765TIP3    H250711   1.965   3.780  14.990  0.9791  0.0632 -1.3250
 9766TIP3   OH250712   5.330   0.959   2.455 -0.7359 -0.2280  0.2630
 9766TIP3    H150713   5.339   1.030   2.519 -0.1645 -1.0602  1.1392
 9766TIP3    H250714   5.309   0.882   2.508  0.7953 -1.1530 -0.4292
 9767TIP3   OH250715   4.919   3.367   3.793 -0.3241 -0.7624 -0.0473
 9767TIP3    H150716   4.942   3.321   3.874  3.3159  0.1121 -0.4284
 9767TIP3    H250717   4.964   3.320   3.724 -1.2221  0.0544 -1.2383
 9768TIP3   OH250718   5.544   3.674   0.286  0.6163 -0.9175  0.1380
 9768TIP3    H150719   5.504   3.641   0.366  0.5359  0.5132  0.7194
 9768TIP3    H250720   5.596   3.601   0.252 -0.1594 -1.8573  0.9430
 9769TIP3   OH250721   2.825   0.589  14.945 -0.2784 -0.0303 -0.0708
 9769TIP3    H150722   2.774   0.594  14.864  0.3627  0.7162 -0.4479
 9769TIP3    H250723   2.841   0.496  14.958  0.2260 -0.1183 -1.2086
 9770TIP3   OH250724   2.323   0.801  11.946 -0.0449  0.1652  0.2046
 9770TIP3    H150725   2.292   0.722  11.900 -0.0341 -0.2539  0.8949
 9770TIP3    H250726   2.340   0.864  11.877  0.7050 -0.7062 -0.4386
 9771TIP3   OH250727   4.906   4.418  11.706 -0.0141 -0.2537  0.4248
 9771TIP3    H150728   4.971   4.443  11.640  0.4120  0.8386  1.2343
 9771TIP3    H250729   4.873   4.502  11.739 -0.4931 -0.7949  1.3337
 9772TIP3   OH250730   2.328   3.055  13.849  0.4487  0.7690  0.0117
 9772TIP3    H150731   2.411   3.066  13.802  0.8743  0.5594  0.6956
 9772TIP3    H250732   2.353   3.050  13.941 -0.2420 -0.1716  0.1664
 9773TIP3   OH250733   5.170   2.780  15.027 -0.2810 -0.4151 -0.1531
 9773TIP3    H150734   5.255   2.823  15.025 -0.0401 -0.8676  0.3741
 9773TIP3    H250735   5.168   2.726  14.948 -1.1476  1.6052 -1.6020
 9774TIP3   OH250736   0.683   6.028  10.960  0.3520  0.1819  0.1000
 9774TIP3    H150737   0.668   5.974  10.882  0.1471  1.0270 -0.4568
 9774TIP3    H250738   0.676   6.118  10.929 -1.5897  0.5637  1.4547
 9775TIP3   OH250739   5.402   0.995   1.985  0.1098 -0.4077  0.4105
 9775TIP3    H150740   5.423   0.913   2.032  0.7839 -0.3779  0.1730
 9775TIP3    H250741   5.484   1.019   1.943 -0.4854 -0.4203 -0.7822
 9776TIP3   OH250742   1.186   3.288  17.181 -0.3069  0.2400 -0.2633
 9776TIP3    H150743   1.200   3.198  17.152  0.6235 -0.0521  1.0019
 9776TIP3    H250744   1.208   3.341  17.105 -0.8081 -0.5908 -1.0066
 9777TIP3   OH250745   6.573   0.493   0.868 -0.0915 -0.5413  0.1623
 9777TIP3    H150746   6.607   0.425   0.811  1.5002  0.9642 -0.7967
 9777TIP3    H250747   6.649   0.523   0.918 -1.0580 -0.4852  1.6657
 9778TIP3   OH250748   1.157   6.531   2.467 -0.1407  0.0995  0.1718
 9778TIP3    H150749   1.109   6.565   2.391 -0.7836 -0.0336  0.5178
 9778TIP3    H250750   1.237   6.494   2.429 -0.6498 -0.3470 -0.4978
 9779TIP3   OH250751   2.079   5.573   2.655 -0.0557 -0.1809  0.9653
 9779TIP3    H150752   2.077   5.479   2.638 -1.5181 -0.1406  0.8342
 9779TIP3    H250753   2.071   5.614   2.569  0.1608  0.0709  1.0609
 9780TIP3   OH250754   3.049   2.091  12.253  0.4825  0.1986 -0.3055
 9780TIP3    H150755   3.032   2.017  12.311 -4.0101 -0.3077 -1.8356
 9780TIP3    H250756   3.049   2.052  12.165 -1.1357  1.7934 -1.0772
 9781TIP3   OH250757   4.242   0.835   3.935 -0.0744 -0.4833 -0.0953
 9781TIP3    H150758   4.177   0.765   3.925 -1.4011  0.5347  0.9702
 9781TIP3    H250759   4.309   0.797   3.992  0.1161 -1.4287 -0.9120
 9782TIP3   OH250760   0.054   1.687  12.795  0.0747  0.0272  0.5266
 9782TIP3    H150761   0.067   1.607  12.845 -0.4176  0.4931  1.4229
 9782TIP3    H250762   0.070   1.758  12.857  0.7458  0.6333 -0.3167
 9783TIP3   OH250763   6.317   2.903   5.187 -0.2166 -0.5336  0.0391
 9783TIP3    H150764   6.316   2.981   5.132  0.3214 -0.9404 -0.5687
 9783TIP3    H250765   6.404   2.865   5.172 -0.3615 -1.0806  0.5637
 9784TIP3   OH250766   5.897   4.730  16.400 -0.2461  0.2709  0.4233
 9784TIP3    H150767   5.840   4.739  16.476 -0.7751  0.4293  0.0117
 9784TIP3    H250768   5.986   4.738  16.436 -0.4387 -0.8165  1.1910
 9785TIP3   OH250769   5.796   3.262   0.593  0.1519  0.2395 -0.0630
 9785TIP3    H150770   5.783   3.196   0.661  1.2630  0.5374  0.4636
 9785TIP3    H250771   5.858   3.221   0.532  0.2122  0.4902 -0.1707
 9786TIP3   OH250772   3.071   4.969   0.209  0.2201  0.0959 -0.6026
 9786TIP3    H150773   2.992   5.023   0.200  0.2591  0.1786 -0.4667
 9786TIP3    H250774   3.085   4.964   0.304 -0.9353 -1.8426 -0.4922
 9787TIP3   OH250775   3.101   4.711  15.594 -0.4006 -0.0178  0.1654
 9787TIP3    H150776   3.043   4.689  15.521 -1.7056 -2.5418  1.8083
 9787TIP3    H250777   3.181   4.663  15.576  0.7418  2.2672 -1.3348
 9788TIP3   OH250778   3.126   0.092   1.312  0.1446 -0.3596  0.8093
 9788TIP3    H150779   3.121   0.185   1.335 -0.0548 -0.2679  0.4038
 9788TIP3    H250780   3.118   0.046   1.396  0.9964  0.0048  1.1042
 9789TIP3   OH250781   4.321   3.429  14.880 -0.4469 -0.1358 -0.1964
 9789TIP3    H150782   4.241   3.417  14.828 -0.7844 -1.3553  0.5601
 9789TIP3    H250783   4.389   3.383  14.831  0.3223  2.5708 -1.8886
 9790TIP3   OH250784   0.148   3.064  13.365 -0.1627 -0.1251 -0.5819
 9790TIP3    H150785   0.226   3.098  13.320 -0.9433  0.0838 -1.8371
 9790TIP3    H250786   0.159   2.969  13.362  0.5818 -0.0753  0.2618
 9791TIP3   OH250787   2.073   3.854  14.459 -0.4538 -0.0062 -0.1054
 9791TIP3    H150788   2.057   3.764  14.431 -0.1202 -0.0352 -0.2002
 9791TIP3    H250789   2.007   3.906  14.413 -0.0340 -0.0756 -0.7925
 9792TIP3   OH250790   0.713   2.268  10.476  0.6702 -0.1706  0.0537
 9792TIP3    H150791   0.672   2.349  10.446  0.0818 -0.6798 -0.5689
 9792TIP3    H250792   0.640   2.205  10.479  0.8397 -0.3324  1.8688
 9793TIP3   OH250793   5.678   5.445  14.138 -0.1917 -0.1517  0.1289
 9793TIP3    H150794   5.654   5.445  14.231  0.9295 -0.1781  0.4419
 9793TIP3    H250795   5.650   5.360  14.105  1.2420 -0.9912  0.9711
 9794TIP3   OH250796   6.600   1.046   1.961 -0.3098 -0.2896  0.3834
 9794TIP3    H150797   6.606   0.973   1.900 -0.6828 -0.1535  0.1778
 9794TIP3    H250798   6.531   1.020   2.023 -1.4868  0.4829 -0.5411
 9795TIP3   OH250799   6.661   1.919   0.371  0.1943 -0.5769 -0.6710
 9795TIP3    H150800   6.702   1.999   0.406 -0.3433  0.5925 -2.5444
 9795TIP3    H250801   6.567   1.937   0.373  0.1055 -0.8881 -1.7261
 9796TIP3   OH250802   1.709   0.788   4.465  0.7397  0.5070  0.3363
 9796TIP3    H150803   1.653   0.716   4.436 -2.8503  1.8088  3.1971
 9796TIP3    H250804   1.722   0.841   4.387 -0.7564 -0.6939 -0.7897
 9797TIP3   OH250805   3.960   2.404  12.038  0.2801  0.0122  0.2861
 9797TIP3    H150806   4.001   2.339  12.096  0.2948 -2.5012 -2.3249
 9797TIP3    H250807   3.867   2.399  12.059  0.2780 -0.9055  0.0847
 9798TIP3   OH250808   2.818   6.462   5.809 -0.3573 -0.0704 -0.1117
 9798TIP3    H150809   2.909   6.463   5.839 -0.5803 -1.6584  0.7328
 9798TIP3    H250810   2.774   6.524   5.866 -0.2438 -1.0805  1.1227
 9799TIP3   OH250811   4.865   3.860   0.646  0.2467 -0.3760 -0.4715
 9799TIP3    H150812   4.863   3.784   0.588 -1.3967 -0.3714 -0.4621
 9799TIP3    H250813   4.885   3.823   0.732  0.2803 -0.6947 -0.6150
 9800TIP3   OH250814   5.685   3.769  14.012 -0.0863  0.1763  0.3541
 9800TIP3    H150815   5.779   3.757  13.996  0.2448 -0.8398  2.7057
 9800TIP3    H250816   5.662   3.698  14.072 -2.1623  0.9899  0.5904
 9801TIP3   OH250817   0.219   4.182  12.770 -0.1256 -0.0071 -0.3219
 9801TIP3    H150818   0.192   4.257  12.824 -2.4255  0.7268 -2.3366
 9801TIP3    H250819   0.291   4.216  12.716  1.4500 -0.4402  1.3952
 9802TIP3   OH250820   2.463   4.854   1.115 -0.2605  0.5322  0.4307
 9802TIP3    H150821   2.466   4.846   1.020  0.8001 -0.3193  0.5136
 9802TIP3    H250822   2.552   4.836   1.143 -0.3613  1.6316  1.5415
 9803TIP3   OH250823   1.687   6.652   4.566  0.4721  0.0086 -0.3331
 9803TIP3    H150824   1.681   6.686   4.477  1.0479  0.5365 -0.1787
 9803TIP3    H250825   1.774   6.679   4.596  0.5578 -0.7664  0.1423
 9804TIP3   OH250826   1.751   2.637  13.707  0.0545  0.0313  0.1641
 9804TIP3    H150827   1.790   2.562  13.660 -0.3715  0.7803 -1.4513
 9804TIP3    H250828   1.797   2.713  13.673  0.4668  0.5424  1.7827
 9805TIP3   OH250829   6.330   4.583  15.494  0.1401 -0.5046  0.8168
 9805TIP3    H150830   6.426   4.588  15.494  0.2099 -1.5679  0.9082
 9805TIP3    H250831   6.310   4.500  15.450 -0.8063  0.4556 -0.6540
 9806TIP3   OH250832   5.427   0.402  16.410 -0.0797 -0.3409  0.6281
 9806TIP3    H150833   5.441   0.387  16.504 -0.8690 -1.9824  0.5233
 9806TIP3    H250834   5.339   0.369  16.394 -0.1681  0.4625 -0.5901
 9807TIP3   OH250835   2.592   5.131   1.098 -0.6793 -0.0503  0.3488
 9807TIP3    H150836   2.535   5.057   1.118 -0.0463 -0.1047  2.1664
 9807TIP3    H250837   2.596   5.182   1.180 -0.2261  1.3951 -0.5246
 9808TIP3   OH250838   0.138   2.800   1.861 -0.1130 -0.5357  0.2867
 9808TIP3    H150839   0.073   2.768   1.798  0.7860 -0.6984 -0.5723
 9808TIP3    H250840   0.093   2.870   1.908 -0.5953  0.0477 -0.9973
 9809TIP3   OH250841   1.412   2.183   4.313 -0.5017 -0.3946 -0.0356
 9809TIP3    H150842   1.490   2.161   4.262 -0.6380  0.7097 -0.7347
 9809TIP3    H250843   1.339   2.145   4.263 -0.4751 -0.9040  0.3048
 9810TIP3   OH250844   1.402   2.045  11.784 -0.3045 -0.1480 -0.5347
 9810TIP3    H150845   1.448   2.065  11.866 -1.8953  2.1330 -0.0847
 9810TIP3    H250846   1.461   1.986  11.737  1.5412  0.0170  1.3991
 9811TIP3   OH250847   1.297   2.253  13.172  0.5651  0.0175  0.1843
 9811TIP3    H150848   1.389   2.235  13.186  0.5331 -1.0585 -0.8051
 9811TIP3    H250849   1.295   2.343  13.138  1.1133  0.4963  1.3630
 9812TIP3   OH250850   3.984   4.223   3.071  0.2981 -0.3285  0.3669
 9812TIP3    H150851   4.028   4.303   3.044 -1.2266 -0.1174 -1.7500
 9812TIP3    H250852   3.896   4.253   3.097 -0.3376 -1.2842 -0.5957
 9813TIP3   OH250853   6.224   3.418  13.321  0.1238  0.3498  0.0574
 9813TIP3    H150854   6.219   3.407  13.416  1.2653 -2.0554 -0.0877
 9813TIP3    H250855   6.181   3.502  13.304 -2.0786 -0.1777  2.4571
 9814TIP3   OH250856   0.032   0.095  13.061  0.0633  0.2923  0.4680
 9814TIP3    H150857   0.050   0.175  13.111 -0.0978  0.4438  0.2857
 9814TIP3    H250858   0.118   0.068  13.029 -0.1964  2.1914 -2.1715
 9815TIP3   OH250859   6.149   5.927   6.038  0.0228  0.0963 -0.7809
 9815TIP3    H150860   6.128   6.020   6.038 -2.9236 -0.4520  0.8337
 9815TIP3    H250861   6.228   5.920   6.091 -0.3268  1.5914 -0.0119
 9816TIP3   OH250862   0.463   1.731  15.797 -0.2150  0.2616  0.0597
 9816TIP3    H150863   0.435   1.720  15.888 -0.3776 -0.6342 -0.0849
 9816TIP3    H250864   0.490   1.822  15.791 -1.0907  0.5838  0.7653
 9817TIP3   OH250865   5.913   2.397  14.038  0.2523 -0.5921  0.0169
 9817TIP3    H150866   5.842   2.387  14.101  0.2183  2.7151  0.6754
 9817TIP3    H250867   5.980   2.335  14.067 -0.1982  0.0347  2.6846
 9818TIP3   OH250868   1.327   5.888   0.643  0.3292  0.1594 -0.3845
 9818TIP3    H150869   1.247   5.924   0.680  0.4809 -0.2731  0.3752
 9818TIP3    H250870   1.317   5.900   0.548 -0.9944 -0.6175 -0.3664
 9819TIP3   OH250871   5.126   1.821   3.494 -1.6352 -0.3320 -0.1603
 9819TIP3    H150872   5.097   1.759   3.561  0.0003  0.0465  0.9723
 9819TIP3    H250873   5.191   1.773   3.444  0.2890  0.6361  1.2748
 9820TIP3   OH250874   2.925   1.526  15.146 -0.7367 -0.1886 -0.4200
 9820TIP3    H150875   2.894   1.454  15.090 -0.3255 -0.2096 -0.6316
 9820TIP3    H250876   2.918   1.604  15.091 -0.7865 -0.1330 -0.3347
 9821TIP3   OH250877   2.722   5.924  12.499  0.1509 -0.6276 -0.2692
 9821TIP3    H150878   2.729   6.000  12.556  0.0768 -1.1739  0.4762
 9821TIP3    H250879   2.679   5.958  12.420 -0.2915  0.0097  0.2288
 9822TIP3   OH250880   5.175   0.842   6.588  0.2215 -0.2069  0.5844
 9822TIP3    H150881   5.152   0.865   6.498  0.9637 -0.7455  0.2497
 9822TIP3    H250882   5.130   0.908   6.641  0.2990  0.5064 -0.2104
 9823TIP3   OH250883   5.177   2.436  17.298 -0.1466  0.4685 -0.4154
 9823TIP3    H150884   5.204   2.430  17.206 -1.2025 -0.7664 -0.6809
 9823TIP3    H250885   5.158   2.345  17.323  0.4710  0.7292  1.1564
 9824TIP3   OH250886   2.208   6.339   3.098 -0.2709  0.3911  0.0178
 9824TIP3    H150887   2.244   6.269   3.152 -1.3638  1.1059  1.7540
 9824TIP3    H250888   2.174   6.295   3.020  1.0706 -0.7030  0.0277
 9825TIP3   OH250889   5.639   5.661   5.035  0.4034  0.1566  0.0648
 9825TIP3    H150890   5.612   5.581   4.989  2.7944 -0.5764 -0.2160
 9825TIP3    H250891   5.589   5.660   5.116 -3.2479  0.9778 -1.9425
 9826TIP3   OH250892   5.268   2.033   5.811 -0.5900 -0.2199  1.0551
 9826TIP3    H150893   5.346   1.997   5.770 -0.6390 -0.5928  1.2804
 9826TIP3    H250894   5.270   2.126   5.790 -0.6509 -0.4114  0.1556
 9827TIP3   OH250895   4.007   3.170  16.916 -0.5263 -0.5724 -0.0970
 9827TIP3    H150896   4.083   3.152  16.971 -0.5809  0.4445  0.3400
 9827TIP3    H250897   4.028   3.131  16.832 -0.2474 -1.7726  0.5049
 9828TIP3   OH250898   2.126   3.545   5.778  0.8123 -0.0470 -0.0636
 9828TIP3    H150899   2.093   3.628   5.813 -0.4974  1.0089 -3.4325
 9828TIP3    H250900   2.221   3.556   5.774  0.8354  0.4581  1.3390
 9829TIP3   OH250901   0.894   1.474  11.881 -0.0034 -0.0005 -0.2752
 9829TIP3    H150902   0.839   1.522  11.819  0.7327  1.8447  0.4308
 9829TIP3    H250903   0.983   1.503  11.861  0.4105 -0.6392  0.5883
 9830TIP3   OH250904   5.549   0.509  11.177  0.0789 -0.2223 -0.1417
 9830TIP3    H150905   5.505   0.429  11.203  0.6703 -0.4016  0.3193
 9830TIP3    H250906   5.542   0.566  11.253 -0.9082  0.4229 -0.6856
 9831TIP3   OH250907   2.357   3.782   5.819 -0.5473 -0.4304  0.4367
 9831TIP3    H150908   2.385   3.874   5.814 -0.4685 -0.3370  2.1090
 9831TIP3    H250909   2.361   3.751   5.728 -0.5929  1.2160 -0.1637
 9832TIP3   OH250910   3.073   1.274   2.422 -0.2857  0.5485  0.1266
 9832TIP3    H150911   3.052   1.312   2.507  3.0887  2.8303  0.1571
 9832TIP3    H250912   3.141   1.209   2.440  0.1734  0.7711 -0.7096
 9833TIP3   OH250913   3.983   5.160   3.100 -0.4257 -0.7788  0.3544
 9833TIP3    H150914   3.970   5.094   3.168 -2.0872  0.9397  1.8264
 9833TIP3    H250915   3.894   5.182   3.071  0.1277  0.3924 -0.5228
 9834TIP3   OH250916   4.818   3.949   5.453 -0.3860  0.0457  0.0451
 9834TIP3    H150917   4.835   3.880   5.517  0.1117  1.2126  1.2237
 9834TIP3    H250918   4.900   3.999   5.450 -0.3152 -0.0992 -1.6952
 9835TIP3   OH250919   0.533   1.850  16.460  0.4829  0.6056 -0.0845
 9835TIP3    H150920   0.598   1.780  16.468 -0.3310 -0.2163 -0.4599
 9835TIP3    H250921   0.574   1.926  16.501  0.1400 -0.9235  3.4958
 9836TIP3   OH250922   3.125   1.324  17.172  0.2703  0.2872 -1.0788
 9836TIP3    H150923   3.184   1.357  17.104  1.8630 -0.3762 -0.0875
 9836TIP3    H250924   3.154   1.369  17.252  0.6791 -1.3999 -0.2325
 9837TIP3   OH250925   4.307   0.390   4.509  0.1392 -0.0027 -0.3660
 9837TIP3    H150926   4.227   0.379   4.459 -0.5390 -0.8591  0.8562
 9837TIP3    H250927   4.315   0.485   4.522  0.3449  0.2451 -2.0418
 9838TIP3   OH250928   6.738   1.450  16.409 -0.1405  0.3102  0.4575
 9838TIP3    H150929   6.714   1.358  16.411 -1.7321  0.5100 -2.6217
 9838TIP3    H250930   6.831   1.449  16.386 -0.2782 -0.5592 -0.1318
 9839TIP3   OH250931   0.397   6.298  16.816 -0.4920 -0.3123 -0.0541
 9839TIP3    H150932   0.325   6.360  16.810  0.1285  0.3826 -0.5286
 9839TIP3    H250933   0.360   6.223  16.862 -1.4506  0.1193 -0.0882
 9840TIP3   OH250934   2.108   1.927   4.892 -0.2372  0.1164 -0.2782
 9840TIP3    H150935   2.082   1.961   4.978  2.8216  0.8646  0.4763
 9840TIP3    H250936   2.068   1.988   4.829  0.6817  1.9551  0.8366
 9841TIP3   OH250937   5.001   3.476   2.797 -0.0296 -0.4772 -0.6738
 9841TIP3    H150938   5.070   3.423   2.757  1.2307 -0.0213  0.8349
 9841TIP3    H250939   4.959   3.520   2.723  1.9378 -0.0127 -1.5759
 9842TIP3   OH250940   2.509   4.112   5.009  0.2453  0.3319  0.4082
 9842TIP3    H150941   2.534   4.119   5.101  2.6805 -1.6336  0.0133
 9842TIP3    H250942   2.523   4.019   4.988  0.9850  0.9627 -2.2360
 9843TIP3   OH250943   4.087   1.743   5.103  0.0594  0.2772  0.2777
 9843TIP3    H150944   4.158   1.744   5.039 -0.8854  0.3103 -0.8034
 9843TIP3    H250945   4.102   1.664   5.155  0.0455 -0.5394 -0.9296
 9844TIP3   OH250946   3.463   1.107   4.390 -0.4389 -0.0134  0.3912
 9844TIP3    H150947   3.392   1.170   4.380 -0.8830 -0.2229  2.0611
 9844TIP3    H250948   3.451   1.046   4.318  0.1567  1.8999 -1.4579
 9845TIP3   OH250949   4.834   6.079   6.553 -0.0292 -0.0655  0.3660
 9845TIP3    H150950   4.910   6.138   6.557  0.0134 -0.1175  0.3185
 9845TIP3    H250951   4.842   6.036   6.468 -0.0100 -0.2094  0.4415
 9846TIP3   OH250952   1.758   4.674   3.653 -0.1417  0.2200  0.0192
 9846TIP3    H150953   1.759   4.729   3.732  0.8890  0.0790  0.1211
 9846TIP3    H250954   1.851   4.664   3.630 -0.3222 -1.2458 -0.1491
 9847TIP3   OH250955   0.699   5.758   0.024  0.5039 -0.0693 -0.0132
 9847TIP3    H150956   0.696   5.686  -0.039 -0.5594 -0.1078  0.0676
 9847TIP3    H250957   0.625   5.742   0.083 -1.2496  2.3410 -1.3766
 9848TIP3   OH250958   6.260   0.728   4.562  0.2713  0.5809  0.2188
 9848TIP3    H150959   6.170   0.708   4.588  0.5405  1.0002  1.5262
 9848TIP3    H250960   6.291   0.648   4.520  0.2819 -0.7011  2.5187
 9849TIP3   OH250961   4.545   5.389  15.713 -0.2433 -0.0143  0.3590
 9849TIP3    H150962   4.491   5.369  15.636 -0.9538 -0.6680  1.0175
 9849TIP3    H250963   4.491   5.364  15.788  0.7648 -0.1628  1.0550
 9850TIP3   OH250964   2.043   1.410   3.804 -0.2603  0.0761 -0.0659
 9850TIP3    H150965   2.113   1.428   3.741 -0.4632  0.0847 -0.2901
 9850TIP3    H250966   1.977   1.363   3.753  0.1280 -1.0589  0.4405
 9851TIP3   OH250967   5.813   2.290  11.171  0.4521  0.1489  0.4719
 9851TIP3    H150968   5.738   2.275  11.114  1.6572  0.6855 -1.3339
 9851TIP3    H250969   5.888   2.295  11.112  1.9106 -0.1774  2.1927
 9852TIP3   OH250970   2.089   0.049  16.868 -0.5986  0.0654 -0.3279
 9852TIP3    H150971   2.059   0.077  16.955 -0.5794  0.8879 -0.5755
 9852TIP3    H250972   2.018   0.074  16.809 -0.2831  0.2130 -0.6479
 9853TIP3   OH250973   2.689   3.090   2.518  0.8534 -0.0862  0.2506
 9853TIP3    H150974   2.757   3.044   2.566 -0.2704 -0.2964  1.7323
 9853TIP3    H250975   2.632   3.021   2.484  0.1685  0.1274  0.9294
 9854TIP3   OH250976   1.784   0.823  12.579  0.5040 -0.2991 -0.3654
 9854TIP3    H150977   1.750   0.748  12.530 -0.8657 -1.8352  2.6451
 9854TIP3    H250978   1.848   0.786  12.640  0.8924  1.2028  0.2059
 9855TIP3   OH250979   1.347   4.410  10.655  0.4768  0.4203  0.3087
 9855TIP3    H150980   1.400   4.362  10.591 -0.9576 -0.3740 -0.3300
 9855TIP3    H250981   1.380   4.382  10.740  0.6646 -0.5569 -0.0753
 9856TIP3   OH250982   5.761   0.216   1.855  0.3746 -0.8478  0.2572
 9856TIP3    H150983   5.793   0.182   1.938  2.2049  0.7307  0.2497
 9856TIP3    H250984   5.698   0.284   1.879 -1.3200 -2.3471  0.2779
 9857TIP3   OH250985   2.017   4.445  12.567  0.1997  0.0092  0.3889
 9857TIP3    H150986   1.942   4.496  12.539 -0.2379 -0.7404  0.1617
 9857TIP3    H250987   2.010   4.440  12.662 -0.8579 -1.2570  0.2764
 9858TIP3   OH250988   4.338   3.805  11.760  0.5257 -0.2786 -0.0923
 9858TIP3    H150989   4.281   3.730  11.746 -0.1909  0.3281 -0.5298
 9858TIP3    H250990   4.306   3.871  11.699  1.8036  0.0329 -0.4538
 9859TIP3   OH250991   4.677   2.786  15.463 -0.2068 -0.7133 -0.2398
 9859TIP3    H150992   4.658   2.723  15.394 -1.7076 -3.8455  2.6908
 9859TIP3    H250993   4.766   2.765  15.492 -0.5495 -1.2302  0.4634
 9860TIP3   OH250994   5.885   1.604   0.310  0.5080 -0.6163 -0.4225
 9860TIP3    H150995   5.956   1.560   0.264  1.0997  1.1924 -1.3657
 9860TIP3    H250996   5.828   1.534   0.341  1.5988 -2.0146 -1.4856
 9861TIP3   OH250997   4.587   4.508   0.294  0.0126 -0.1403  0.2747
 9861TIP3    H150998   4.575   4.563   0.372 -1.7693  1.8092 -1.2629
 9861TIP3    H250999   4.677   4.524   0.266 -0.0420  0.9244  0.6650
 9862TIP3   OH251000   6.126   6.597  16.346  0.2603  0.1605  0.7680
 9862TIP3    H151001   6.158   6.521  16.297 -0.8669 -0.7054  1.3219
 9862TIP3    H251002   6.176   6.595  16.428  0.0358 -0.1564  0.8985
 9863TIP3   OH251003   1.779   2.575   4.818 -0.0462  0.1596  0.0216
 9863TIP3    H151004   1.693   2.584   4.861 -0.7161 -1.3169 -0.9474
 9863TIP3    H251005   1.762   2.598   4.727  0.0489 -2.2361 -0.6686
 9864TIP3   OH251006   2.465   3.021  13.193 -0.2673 -0.2675  0.8638
 9864TIP3    H151007   2.527   2.959  13.232 -0.1287  0.2060  1.4167
 9864TIP3    H251008   2.513   3.105  13.192 -0.5287 -0.1198  0.3300
 9865TIP3   OH251009   6.556   0.933  13.017  0.9439  0.0880 -0.3583
 9865TIP3    H151010   6.633   0.978  13.051  1.7788 -0.1122 -1.9139
 9865TIP3    H251011   6.586   0.844  12.998  0.4837  0.1481 -1.4594
 9866TIP3   OH251012   6.440   5.010   3.475 -0.2248  0.1652 -0.1064
 9866TIP3    H151013   6.354   5.050   3.458  1.0782  2.3342 -2.2087
 9866TIP3    H251014   6.476   5.060   3.548 -0.2197  0.1793 -0.1183
 9867TIP3   OH251015   1.945   2.498   5.422 -0.4774 -0.1124 -0.3100
 9867TIP3    H151016   1.912   2.439   5.355 -1.0745 -0.4823  0.3006
 9867TIP3    H251017   1.867   2.538   5.459 -0.3367 -1.5710  1.6931
 9868TIP3   OH251018   1.212   3.791  14.649  0.0670 -0.2212  0.6024
 9868TIP3    H151019   1.164   3.750  14.721 -0.6776 -0.7160 -0.1604
 9868TIP3    H251020   1.232   3.719  14.589 -1.9050  0.5563 -1.1311
 9869TIP3   OH251021   4.923   4.051  17.246  0.6894 -0.7000  0.1288
 9869TIP3    H151022   4.909   3.991  17.172 -2.1205  0.1488 -0.1518
 9869TIP3    H251023   4.965   4.127  17.207  0.5757 -0.8617 -0.3243
 9870TIP3   OH251024   6.638   6.670  12.423  0.0406 -0.5271 -0.3062
 9870TIP3    H151025   6.713   6.708  12.378  1.5018 -1.1508  1.4683
 9870TIP3    H251026   6.563   6.694  12.369  1.1366  2.6929 -0.6303
 9871TIP3   OH251027   0.543   6.033   0.531  0.2221  0.0013 -0.6430
 9871TIP3    H151028   0.616   6.028   0.470  1.2014  0.1230  0.4805
 9871TIP3    H251029   0.522   5.941   0.550  0.1909 -0.0330 -0.8439
 9872TIP3   OH251030   4.729   4.059   5.050 -0.9252 -0.0696  0.0939
 9872TIP3    H151031   4.798   3.994   5.068 -0.3816  0.8294  1.4080
 9872TIP3    H251032   4.691   4.077   5.136 -3.5735 -1.3220 -0.7147
 9873TIP3   OH251033   1.547   5.078   0.128 -0.5364 -0.5782 -0.1755
 9873TIP3    H151034   1.489   5.154   0.134 -0.3618 -0.5202  0.9849
 9873TIP3    H251035   1.549   5.057   0.035 -0.8669  0.6156 -0.4688
 9874TIP3   OH251036   0.096   3.144   5.218 -0.0313 -0.2933 -0.1577
 9874TIP3    H151037   0.188   3.122   5.235 -0.1182 -0.1106  0.6215
 9874TIP3    H251038   0.098   3.238   5.199 -0.2591  0.1923  1.9012
 9875TIP3   OH251039   1.642   6.117   0.807  0.2784 -0.4394  0.4214
 9875TIP3    H151040   1.586   6.117   0.884 -1.0338 -1.6586 -0.4757
 9875TIP3    H251041   1.662   6.025   0.791  0.0226 -0.2765 -1.0244
 9876TIP3   OH251042   1.326   0.497  11.088  0.2281 -0.4918 -0.0301
 9876TIP3    H151043   1.344   0.403  11.091  0.5194 -0.4103  1.1854
 9876TIP3    H251044   1.326   0.524  11.180 -0.2752  0.6192 -0.3473
 9877TIP3   OH251045   3.611   2.098  11.638  0.3807 -0.3475 -0.2178
 9877TIP3    H151046   3.548   2.075  11.570 -0.0100 -0.8244  0.3020
 9877TIP3    H251047   3.649   2.181  11.608 -1.5311  0.7123  0.1779
 9878TIP3   OH251048   3.480   3.377  14.478  0.0063  0.1856 -0.1246
 9878TIP3    H151049   3.464   3.469  14.455  1.5587  0.3781 -0.5093
 9878TIP3    H251050   3.471   3.374  14.573 -4.5793 -0.2346 -0.3376
 9879TIP3   OH251051   3.613   0.035   2.475  0.0405 -0.3059 -0.6521
 9879TIP3    H151052   3.578   0.108   2.526  2.4656 -0.7668  1.9184
 9879TIP3    H251053   3.550  -0.036   2.487 -0.6022  0.3246 -0.2614
 9880TIP3   OH251054   4.700   1.806   3.476 -0.3126  0.4501 -0.3580
 9880TIP3    H151055   4.611   1.839   3.469 -0.8046  0.0228  2.7547
 9880TIP3    H251056   4.754   1.885   3.479 -0.8757  0.8192  0.5431
 9881TIP3   OH251057   5.227   3.470  11.728 -0.1997  0.0618  0.4966
 9881TIP3    H151058   5.224   3.376  11.711 -2.2635  0.0096  0.8155
 9881TIP3    H251059   5.255   3.509  11.645 -0.4435 -0.7721  0.0096
 9882TIP3   OH251060   2.245   5.755  13.292  0.6958 -0.2078 -0.2987
 9882TIP3    H151061   2.269   5.665  13.273  0.4831  0.0043 -1.6557
 9882TIP3    H251062   2.188   5.749  13.369 -0.7112 -1.4178 -1.3746
 9883TIP3   OH251063   2.876   5.693  12.519 -0.1988  0.4800 -0.1028
 9883TIP3    H151064   2.950   5.690  12.458  0.7436 -2.6660  1.0016
 9883TIP3    H251065   2.851   5.785  12.522  1.5841  1.1721 -2.9663
 9884TIP3   OH251066   4.859   5.124   4.184  0.1297 -0.0047  0.3881
 9884TIP3    H151067   4.792   5.185   4.216  0.6206 -0.0012  1.4542
 9884TIP3    H251068   4.865   5.142   4.090 -0.2068  1.1422  0.5680
 9885TIP3   OH251069   1.221   3.920  16.171  0.2461  0.1732 -0.0404
 9885TIP3    H151070   1.274   3.960  16.241  0.5084 -0.4479  0.1199
 9885TIP3    H251071   1.252   3.830  16.166 -1.9623 -0.7354  1.2497
 9886TIP3   OH251072   0.774   5.121   5.348 -0.0666 -0.1184 -0.8147
 9886TIP3    H151073   0.761   5.177   5.424  0.4992  0.4861 -1.1542
 9886TIP3    H251074   0.809   5.039   5.384 -1.9139 -0.6908 -0.2061
 9887TIP3   OH251075   1.895   2.248  16.119  0.3745 -0.5256 -0.1544
 9887TIP3    H151076   1.872   2.178  16.180  0.8887 -0.6884 -0.1421
 9887TIP3    H251077   1.815   2.300  16.110  0.2499 -0.5894  0.5393
 9888TIP3   OH251078   1.968   0.289  13.724 -0.6040  0.1129 -0.0562
 9888TIP3    H151079   1.936   0.376  13.748 -0.9483  0.0422 -0.2620
 9888TIP3    H251080   2.040   0.273  13.785  0.8451  1.4049 -1.3532
 9889TIP3   OH251081   4.286   5.651   0.720 -0.0088  0.2399  0.0391
 9889TIP3    H151082   4.209   5.680   0.671 -0.5490  0.9035  1.2311
 9889TIP3    H251083   4.267   5.676   0.811  1.7825  0.7840  0.3014
 9890TIP3   OH251084   0.811   5.658   4.786  0.3181  0.1442  0.2578
 9890TIP3    H151085   0.818   5.745   4.825  1.9073  0.1632  0.0105
 9890TIP3    H251086   0.837   5.670   4.695  2.7989 -0.8960  0.7337
 9891TIP3   OH251087   5.882   2.114  16.824  0.7502 -0.6009 -0.3986
 9891TIP3    H151088   5.800   2.078  16.859  1.0077 -0.1464  0.6987
 9891TIP3    H251089   5.854   2.178  16.758  0.2703 -1.9486 -1.5729
 9892TIP3   OH251090   5.387   0.507  14.269  0.0645  0.7236  0.2267
 9892TIP3    H151091   5.458   0.520  14.331 -0.3483  0.6807  0.7180
 9892TIP3    H251092   5.429   0.471  14.192  0.4870  0.0319  0.7663
 9893TIP3   OH251093   5.929   3.548   4.131  0.7494 -0.0982 -0.3776
 9893TIP3    H151094   5.893   3.478   4.184  1.3843  0.8629  1.4101
 9893TIP3    H251095   6.019   3.558   4.162  0.6647  1.5026 -0.5600
 9894TIP3   OH251096   1.913   5.567   5.312 -0.3908  0.4574 -0.8539
 9894TIP3    H151097   1.992   5.619   5.295  1.8057 -2.2701  0.2909
 9894TIP3    H251098   1.917   5.550   5.406 -1.1549 -1.5170 -1.1508
 9895TIP3   OH251099   5.262   6.328  17.254  0.1528  0.0902  0.2073
 9895TIP3    H151100   5.278   6.391  17.324  0.2837 -0.8917  1.0772
 9895TIP3    H251101   5.317   6.253  17.276 -0.9855 -0.8568 -0.0870
 9896TIP3   OH251102   6.072   0.198   4.830 -0.2150 -0.4683  0.3495
 9896TIP3    H151103   5.999   0.171   4.774 -2.2079 -0.8832  2.9709
 9896TIP3    H251104   6.061   0.292   4.838  0.5436 -0.2926 -0.5299
 9897TIP3   OH251105   5.961   2.292  17.206 -1.0387 -0.5345  0.2703
 9897TIP3    H151106   5.887   2.293  17.146 -0.5935 -0.8360 -0.3024
 9897TIP3    H251107   5.922   2.289  17.293 -1.6973  0.5635  0.0240
 9898TIP3   OH251108   2.323   1.933  15.667  0.3709 -0.5228  0.1516
 9898TIP3    H151109   2.278   1.877  15.603  0.0777  0.0327 -0.1345
 9898TIP3    H251110   2.397   1.880  15.698 -0.3003 -1.3296  0.3973
 9899TIP3   OH251111   5.974   0.257   2.286 -0.2797  0.1943 -0.0790
 9899TIP3    H151112   5.959   0.345   2.251 -1.1864  0.0343 -0.1131
 9899TIP3    H251113   5.890   0.231   2.322  0.1051 -0.4792  0.3569
 9900TIP3   OH251114   0.482   6.238   2.331 -0.4976 -0.4290 -0.5204
 9900TIP3    H151115   0.531   6.187   2.267  0.8717  0.1677  0.0181
 9900TIP3    H251116   0.470   6.178   2.405  2.1446  0.2733  0.6061
 9901TIP3   OH251117   1.719   3.073   3.910 -0.0268 -0.0810  0.4483
 9901TIP3    H151118   1.791   3.109   3.963 -1.2222  1.2424  1.2549
 9901TIP3    H251119   1.732   3.111   3.823 -0.6855  1.5716  1.0298
 9902TIP3   OH251120   0.908   3.779  17.100 -0.3053  0.1145  0.4759
 9902TIP3    H151121   0.871   3.695  17.126  0.0650 -0.2078 -0.0073
 9902TIP3    H251122   0.894   3.836  17.176 -0.0278 -0.5495  1.0384
 9903TIP3   OH251123   4.246   0.725  14.405 -0.5449 -0.6801 -0.0610
 9903TIP3    H151124   4.159   0.751  14.435 -0.4033  0.5570 -0.6756
 9903TIP3    H251125   4.232   0.690  14.317 -0.5361 -1.3379  0.1952
 9904TIP3   OH251126   3.269   5.593  12.635  0.0431  0.2336 -0.0136
 9904TIP3    H151127   3.364   5.607  12.637  0.1511 -0.3613 -0.6436
 9904TIP3    H251128   3.258   5.499  12.648 -0.5092  0.4126  0.8953
 9905TIP3   OH251129   3.991   5.500  15.173 -0.6146  0.1530 -0.2860
 9905TIP3    H151130   4.071   5.475  15.219  0.0458 -0.7196 -1.8454
 9905TIP3    H251131   4.019   5.565  15.108 -1.0757 -0.4538 -1.1147
 9906TIP3   OH251132   3.136   1.047  14.530  0.0418 -0.5800  0.3117
 9906TIP3    H151133   3.095   1.128  14.561 -2.1194 -1.4407 -0.1082
 9906TIP3    H251134   3.063   0.985  14.521  1.3854 -2.0680 -1.0149
 9907TIP3   OH251135   3.004   4.993   6.247 -0.3853 -0.0418  0.5162
 9907TIP3    H151136   2.955   5.053   6.302 -1.8682 -0.2503 -0.5169
 9907TIP3    H251137   2.995   4.908   6.289 -0.6198 -0.0149  0.5220
 9908TIP3   OH251138   6.481   0.013  13.625  0.0844 -0.0894 -0.0162
 9908TIP3    H151139   6.568   0.032  13.658 -0.2626 -0.5103  1.1808
 9908TIP3    H251140   6.470  -0.082  13.637 -0.4715 -0.0701 -0.3146
 9909TIP3   OH251141   1.566   4.011  11.213 -0.1314  0.3324  0.4369
 9909TIP3    H151142   1.607   4.064  11.281 -0.6579 -0.6043  1.5262
 9909TIP3    H251143   1.633   3.948  11.187  0.5870  1.6498 -1.0553
 9910TIP3   OH251144   0.812   2.281  11.182  0.1173 -0.0791  0.5710
 9910TIP3    H151145   0.819   2.206  11.122 -0.0404 -1.2317  1.9365
 9910TIP3    H251146   0.788   2.354  11.126 -2.3463 -1.5788 -0.5121
 9911TIP3   OH251147   0.955   0.977   0.665 -0.2888  0.0760  0.5639
 9911TIP3    H151148   1.004   0.896   0.674 -0.3901 -0.1248 -0.5283
 9911TIP3    H251149   1.013   1.045   0.699  0.1759 -0.3416  0.6013
 9912TIP3   OH251150   6.613   1.850   5.498 -0.2970  0.5156  0.5089
 9912TIP3    H151151   6.590   1.941   5.518 -1.2197  0.5452 -0.5917
 9912TIP3    H251152   6.709   1.847   5.507  0.0333  2.1900 -1.6639
 9913TIP3   OH251153   5.356   5.048   4.649  0.5983  0.0818  0.1098
 9913TIP3    H151154   5.374   5.139   4.622  0.3051 -0.4722 -2.1225
 9913TIP3    H251155   5.271   5.053   4.692 -0.2044  0.6638 -1.4508
 9914TIP3   OH251156   3.697   1.857  17.002 -0.0833 -0.5968 -0.3282
 9914TIP3    H151157   3.696   1.891  16.912  0.1258 -1.4882 -0.6820
 9914TIP3    H251158   3.649   1.922  17.053 -0.6123 -0.3065 -1.1699
 9915TIP3   OH251159   6.358   2.928   4.508  0.8524  0.0776  0.4779
 9915TIP3    H151160   6.454   2.934   4.512  0.9939 -0.7499 -0.9288
 9915TIP3    H251161   6.330   3.018   4.490  1.4684  0.1431 -0.2394
 9916TIP3   OH251162   0.216   2.869  11.324 -0.0873  0.0300  0.0173
 9916TIP3    H151163   0.213   2.888  11.230  1.4216 -0.8295 -0.2315
 9916TIP3    H251164   0.298   2.907  11.354 -0.0276 -0.6601  0.7653
 9917TIP3   OH251165   1.271   3.031   4.927  0.4171 -0.6426 -0.3936
 9917TIP3    H151166   1.225   2.964   4.978 -1.4540  0.0641 -1.0709
 9917TIP3    H251167   1.219   3.040   4.847  1.5803  0.4295 -1.0611
 9918TIP3   OH251168   6.171   2.296   4.414  0.4739  0.0842 -0.5367
 9918TIP3    H151169   6.219   2.272   4.334  0.5842 -1.4963 -0.0123
 9918TIP3    H251170   6.220   2.371   4.448  0.0894  1.1797 -2.2405
 9919TIP3   OH251171   2.104   4.711  16.566  0.2167 -0.3201 -0.6470
 9919TIP3    H151172   2.010   4.722  16.575  0.3331  0.5743 -0.3682
 9919TIP3    H251173   2.116   4.623  16.531 -0.6875 -0.6828 -0.0647
 9920TIP3   OH251174   4.843   6.530   4.196  0.1900 -0.4423  0.2577
 9920TIP3    H151175   4.809   6.618   4.180 -2.5872 -1.4448  0.2160
 9920TIP3    H251176   4.902   6.513   4.122  0.4350  1.1899  0.0522
 9921TIP3   OH251177   4.085   3.780   2.572 -0.5339  0.1633  0.6749
 9921TIP3    H151178   4.031   3.829   2.510  1.5304  1.4470 -0.2352
 9921TIP3    H251179   4.175   3.804   2.550  0.4593 -1.9676  2.0179
 9922TIP3   OH251180   5.702   1.762   4.257  0.4944 -0.0155 -0.1102
 9922TIP3    H151181   5.779   1.735   4.208  0.3904 -3.3481  1.2969
 9922TIP3    H251182   5.669   1.681   4.297 -1.2643  1.9324  2.8036
 9923TIP3   OH251183   1.261   4.745   2.956 -0.1870 -0.3174 -0.4750
 9923TIP3    H151184   1.218   4.750   3.041  1.4367  0.1853  0.3659
 9923TIP3    H251185   1.222   4.815   2.904 -0.2351  0.2587  0.3238
 9924TIP3   OH251186   0.726   0.117  16.527 -0.0837 -0.1948  0.4982
 9924TIP3    H151187   0.704   0.046  16.587  0.2044 -1.7703 -1.1626
 9924TIP3    H251188   0.643   0.142  16.488 -0.1498  0.1822  0.8856
 9925TIP3   OH251189   1.253   1.461  11.842  0.7430  0.7199 -0.6452
 9925TIP3    H151190   1.286   1.540  11.799  0.9672  0.0271 -1.8017
 9925TIP3    H251191   1.211   1.411  11.772 -0.5788  0.4142  0.3242
 9926TIP3   OH251192   1.607   0.522  15.331  0.2576  1.0282 -0.0887
 9926TIP3    H151193   1.533   0.581  15.325 -0.2243  0.5891  1.1124
 9926TIP3    H251194   1.673   0.558  15.272 -0.4069  2.1798 -0.1386
 9927TIP3   OH251195   3.524   5.456   4.005 -0.0860 -0.6368 -0.1838
 9927TIP3    H151196   3.599   5.428   3.953 -0.2607 -0.0655 -0.7602
 9927TIP3    H251197   3.536   5.551   4.014  0.6804 -0.8890  2.0150
 9928TIP3   OH251198   2.514   6.669   0.531  0.3479  0.9277  0.3471
 9928TIP3    H151199   2.540   6.693   0.442 -0.8910 -0.5992 -0.4575
 9928TIP3    H251200   2.450   6.736   0.556 -1.4778 -0.2017 -1.0597
 9929TIP3   OH251201   1.915   3.305   1.933  0.3442  0.3128  0.0480
 9929TIP3    H151202   1.836   3.315   1.879  1.3969  1.2422 -1.3910
 9929TIP3    H251203   1.988   3.311   1.871  1.5925 -3.7437  0.8086
 9930TIP3   OH251204   0.139   5.958   3.826  0.1463 -0.0821  0.5703
 9930TIP3    H151205   0.128   5.863   3.830 -1.5313 -0.0431 -1.4553
 9930TIP3    H251206   0.073   5.993   3.886 -1.8976 -0.1759 -1.5023
 9931TIP3   OH251207   2.575   3.276  15.920 -0.5421 -0.2331 -0.1643
 9931TIP3    H151208   2.506   3.341  15.902 -0.3337 -0.5221 -2.1940
 9931TIP3    H251209   2.644   3.326  15.964 -1.3513  0.4028  0.4212
 9932TIP3   OH251210   5.387   0.917   5.763  0.2474 -0.3903 -0.2361
 9932TIP3    H151211   5.343   1.001   5.749  0.1624 -0.6585 -1.7411
 9932TIP3    H251212   5.321   0.863   5.807 -0.7608 -0.5730 -1.8768
 9933TIP3   OH251213   1.185   3.270   3.477 -0.1796  0.0194 -0.2344
 9933TIP3    H151214   1.219   3.244   3.562 -0.4916  1.0584  0.2128
 9933TIP3    H251215   1.260   3.263   3.418  1.1333  3.0997  0.8811
 9934TIP3   OH251216   3.029   3.976  15.482  0.2677 -0.6684  0.3338
 9934TIP3    H151217   2.971   3.966  15.558 -1.7484  0.4068 -0.9690
 9934TIP3    H251218   2.994   3.914  15.418  1.0840 -0.5832 -0.2002
 9935TIP3   OH251219   1.130   1.123  13.923 -0.0231 -0.3516  0.0080
 9935TIP3    H151220   1.186   1.047  13.907  0.5002 -0.8681  3.4627
 9935TIP3    H251221   1.071   1.096  13.993 -0.1403  2.2549  1.0587
 9936TIP3   OH251222   4.480   6.590   2.231  0.5303 -0.2947 -0.9417
 9936TIP3    H151223   4.464   6.519   2.170  0.2964  0.1517 -1.4080
 9936TIP3    H251224   4.464   6.670   2.181 -0.4148  0.0708 -0.0984
 9937TIP3   OH251225   0.625   5.779  14.076  0.2374 -0.3072 -0.3154
 9937TIP3    H151226   0.666   5.781  14.163 -0.1613  0.6200 -0.1244
 9937TIP3    H251227   0.599   5.870  14.061 -0.8143 -0.6871 -0.8691
 9938TIP3   OH251228   1.326   1.329  15.387  0.4324  0.5362  0.2103
 9938TIP3    H151229   1.365   1.332  15.299  0.1413  0.0239  0.0585
 9938TIP3    H251230   1.232   1.342  15.372  0.4077  0.6622  0.4693
 9939TIP3   OH251231   1.533   2.473   4.093 -0.0541  0.3942 -0.2317
 9939TIP3    H151232   1.481   2.548   4.065  1.1300  1.1480 -0.4609
 9939TIP3    H251233   1.529   2.475   4.189  2.8066  2.8826 -0.0435
 9940TIP3   OH251234   2.780   0.121   1.841  0.6456  0.8228  0.2631
 9940TIP3    H151235   2.722   0.190   1.873 -1.0788 -1.0439  1.3556
 9940TIP3    H251236   2.865   0.141   1.881 -0.0883  1.7021  1.4516
 9941TIP3   OH251237   1.282   4.596  12.250 -0.5285  0.4926 -0.0694
 9941TIP3    H151238   1.215   4.662  12.269 -0.2128  1.0047 -0.6897
 9941TIP3    H251239   1.263   4.566  12.162 -0.8646 -0.5002  0.3266
 9942TIP3   OH251240   6.299   3.635   3.952 -0.4476 -0.6098  0.0569
 9942TIP3    H151241   6.328   3.713   3.904 -0.4929 -2.2923 -2.9431
 9942TIP3    H251242   6.204   3.635   3.941 -1.1804  1.4377  4.3702
 9943TIP3   OH251243   2.521   6.490  12.486 -0.2008  0.2845  0.3769
 9943TIP3    H151244   2.440   6.446  12.463 -0.1840 -0.6033  1.8773
 9943TIP3    H251245   2.573   6.488  12.405 -1.1608 -0.2868 -0.2487
 9944TIP3   OH251246   0.191   0.008   6.226  0.2228 -0.1116 -0.3989
 9944TIP3    H151247   0.214   0.051   6.308  2.1306 -1.8751  0.0939
 9944TIP3    H251248   0.136  -0.065   6.251 -0.5613  0.2969 -0.8940
 9945TIP3   OH251249   2.527   6.074   2.486 -0.1508  0.1863  0.1974
 9945TIP3    H151250   2.555   5.990   2.449 -0.1758 -0.0456  0.7002
 9945TIP3    H251251   2.446   6.054   2.533  0.1477  0.3712  0.8045
 9946TIP3   OH251252   5.394   0.482   1.794 -0.3644  0.2314 -0.1117
 9946TIP3    H151253   5.352   0.469   1.709  2.0254  1.4397 -1.5628
 9946TIP3    H251254   5.390   0.576   1.809 -2.9041 -0.1315  2.3906
 9947TIP3   OH251255   2.549   5.495  13.081  0.4463  0.6664 -0.0249
 9947TIP3    H151256   2.469   5.471  13.126  1.6307 -1.1725  1.2454
 9947TIP3    H251257   2.583   5.413  13.046  2.0053  1.2921 -0.0940
 9948TIP3   OH251258   1.834   3.890   4.766 -0.2345 -0.3593  0.4606
 9948TIP3    H151259   1.800   3.901   4.854 -1.4554  3.1399 -0.3086
 9948TIP3    H251260   1.757   3.872   4.712  0.0379  0.7304 -0.3163
 9949TIP3   OH251261   2.837   3.742  10.791  0.3138 -0.2335  0.2413
 9949TIP3    H151262   2.825   3.832  10.820 -1.0048 -0.5400  0.7028
 9949TIP3    H251263   2.932   3.730  10.790  0.4760  0.6881  1.6724
 9950TIP3   OH251264   5.095   4.351  12.558 -0.0154  0.5221 -0.0567
 9950TIP3    H151265   5.094   4.341  12.653  0.1635  0.4194 -0.0664
 9950TIP3    H251266   5.068   4.265  12.525 -1.0707  0.8479 -0.0767
 9951TIP3   OH251267   4.686   2.193  14.587  0.1299  0.1420  0.3173
 9951TIP3    H151268   4.756   2.184  14.522  1.3057  0.3896  1.4951
 9951TIP3    H251269   4.712   2.132  14.657 -1.1361 -0.1648  0.5409
 9952TIP3   OH251270   0.289   1.677   0.096  0.3614 -1.0028  0.0997
 9952TIP3    H151271   0.207   1.694   0.141  1.1101  1.0940  0.7837
 9952TIP3    H251272   0.270   1.691   0.003  0.5519  2.5531  0.4750
 9953TIP3   OH251273   2.236   4.597  16.197 -0.9133 -0.3857  0.1615
 9953TIP3    H151274   2.211   4.688  16.183 -0.5089 -0.2088  0.5450
 9953TIP3    H251275   2.313   4.602  16.255  0.1557 -0.8792 -1.1509
 9954TIP3   OH251276   5.431   1.625   4.913 -0.7551  0.3227 -0.0420
 9954TIP3    H151277   5.444   1.702   4.968  2.0037 -0.2880  0.3021
 9954TIP3    H251278   5.455   1.654   4.825 -0.6118  0.1131 -0.0744
 9955TIP3   OH251279   0.877   5.771  12.444  0.1882 -0.2165  0.4527
 9955TIP3    H151280   0.877   5.865  12.461  1.2765 -0.0761 -0.2106
 9955TIP3    H251281   0.945   5.759  12.377 -0.0301 -1.4533  0.4326
 9956TIP3   OH251282   2.666   1.476   2.125 -0.1179  0.5520 -0.2322
 9956TIP3    H151283   2.592   1.518   2.169 -1.4272 -0.9986 -0.8531
 9956TIP3    H251284   2.732   1.545   2.119 -0.9462  1.5787  1.6355
 9957TIP3   OH251285   4.786   1.046   1.593 -0.0296  0.0192 -0.0964
 9957TIP3    H151286   4.783   1.140   1.575 -0.0561 -0.3586 -2.5100
 9957TIP3    H251287   4.696   1.016   1.579  0.2720 -0.5678 -0.8667
 9958TIP3   OH251288   0.830   2.127  14.399 -0.1078 -0.5905  0.0098
 9958TIP3    H151289   0.920   2.117  14.366  0.1573 -2.2868  1.1244
 9958TIP3    H251290   0.775   2.117  14.322  0.6387  1.8188 -0.9450
 9959TIP3   OH251291   1.875   2.379  13.121  0.0560 -0.1707  0.1012
 9959TIP3    H151292   1.865   2.326  13.201  2.6875  0.4094  0.9059
 9959TIP3    H251293   1.934   2.327  13.066 -0.1862  0.3377 -0.6449
 9960TIP3   OH251294   3.113   4.083  15.848 -0.2664  0.0062 -0.5328
 9960TIP3    H151295   3.027   4.057  15.880 -0.1048 -0.5498 -0.5360
 9960TIP3    H251296   3.170   4.074  15.925 -0.5888  2.4764  0.0807
 9961TIP3   OH251297   1.707   2.053   3.894  0.4863  0.8134 -0.0163
 9961TIP3    H151298   1.738   2.110   3.824  0.7869  1.2104  0.4332
 9961TIP3    H251299   1.747   1.968   3.875 -0.0727  0.7159 -0.7609
 9962TIP3   OH251300   4.727   2.827   5.779  0.0593  0.7899 -0.3266
 9962TIP3    H151301   4.732   2.742   5.824  1.2114 -0.1612 -2.1165
 9962TIP3    H251302   4.645   2.824   5.730  1.2624 -0.4708 -2.4373
 9963TIP3   OH251303   3.166   5.777  13.287  1.0234 -0.3311  0.3267
 9963TIP3    H151304   3.253   5.794  13.251  0.1001  0.4802 -1.7205
 9963TIP3    H251305   3.108   5.832  13.235 -0.9547 -2.3292  0.2562
 9964TIP3   OH251306   1.801   0.254   3.139 -0.6800 -0.8934 -0.2832
 9964TIP3    H151307   1.893   0.281   3.140 -0.7550 -0.6428  0.2560
 9964TIP3    H251308   1.785   0.223   3.228 -1.3775 -0.0449 -0.1093
 9965TIP3   OH251309   5.402   6.015  15.838 -0.7353 -0.1146 -0.6689
 9965TIP3    H151310   5.406   6.089  15.900 -2.9213 -0.5346  0.0885
 9965TIP3    H251311   5.446   6.047  15.760 -1.2353  1.8705 -0.2150
 9966TIP3   OH251312   1.465   4.637   4.945 -0.1778  0.0088 -0.2267
 9966TIP3    H151313   1.455   4.571   5.013  1.0381  1.1272  1.1214
 9966TIP3    H251314   1.547   4.681   4.968 -1.1995  2.3136 -0.7485
 9967TIP3   OH251315   5.309   2.046  15.428 -0.0648  0.1582  0.5061
 9967TIP3    H151316   5.218   2.047  15.458  0.8213 -0.9020  3.6248
 9967TIP3    H251317   5.312   1.974  15.365 -1.1829 -0.5044  1.1658
 9968TIP3   OH251318   1.267   4.605  15.497  0.1559  0.5435  0.4367
 9968TIP3    H151319   1.357   4.606  15.529 -0.1161  1.1850  1.1937
 9968TIP3    H251320   1.269   4.658  15.417  0.4983  0.3238  0.2987
 9969TIP3   OH251321   3.143   5.712   5.830  0.2504 -0.0669 -0.0421
 9969TIP3    H151322   3.197   5.633   5.837  0.2109 -0.1659 -0.8501
 9969TIP3    H251323   3.205   5.780   5.804 -0.0533 -0.2496 -1.3084
 9970TIP3   OH251324   2.316   0.358   0.530 -0.2694  0.0490 -0.8065
 9970TIP3    H151325   2.287   0.398   0.448  0.3849 -0.4493 -1.2808
 9970TIP3    H251326   2.301   0.427   0.596 -2.0568 -0.0079 -1.0937
 9971TIP3   OH251327   0.683   5.045   6.097 -0.2472 -0.0828  0.1081
 9971TIP3    H151328   0.656   5.130   6.133 -1.5237 -0.4592  0.0886
 9971TIP3    H251329   0.774   5.035   6.126 -0.4793  0.7167  1.2040
 9972TIP3   OH251330   1.223   5.588  14.611  0.1117 -0.0426  0.1166
 9972TIP3    H151331   1.274   5.569  14.533 -0.2115 -2.4506  0.4187
 9972TIP3    H251332   1.269   5.661  14.653  1.5635 -0.1784 -1.1618
 9973TIP3   OH251333   6.042   4.637   6.225 -0.1492 -0.2988  1.1333
 9973TIP3    H151334   6.045   4.593   6.310  1.4890  1.4228  2.0609
 9973TIP3    H251335   6.080   4.724   6.242 -0.9219  0.5544 -1.1062
 9974TIP3   OH251336   1.133   6.734  11.475  0.0294  0.0777  0.0055
 9974TIP3    H151337   1.084   6.801  11.426  0.1533  0.0590 -0.1425
 9974TIP3    H251338   1.173   6.783  11.547  0.3332  0.2084 -0.2524
 9975TIP3   OH251339   0.961   4.559   5.820  0.0665  0.3714 -0.1878
 9975TIP3    H151340   0.977   4.549   5.914 -0.8109 -2.0246 -0.2141
 9975TIP3    H251341   1.029   4.620   5.790  0.6738  0.7984  1.9049
 9976TIP3   OH251342   6.055   3.111   1.391 -0.5724  0.2925  0.3825
 9976TIP3    H151343   6.038   3.189   1.443 -0.4779  0.7255 -0.2200
 9976TIP3    H251344   6.127   3.068   1.435 -0.7535  0.4450  0.8309
 9977TIP3   OH251345   1.423   4.265   4.619  0.1662  0.6185 -0.3281
 9977TIP3    H151346   1.432   4.360   4.622  1.9396  0.5749 -2.0686
 9977TIP3    H251347   1.438   4.242   4.527 -3.0006 -1.1620 -0.5799
 9978TIP3   OH251348   6.091   3.063  14.347 -0.2701  0.1559  0.2226
 9978TIP3    H151349   6.054   3.025  14.427  0.9831 -2.2022 -0.2199
 9978TIP3    H251350   6.173   3.103  14.375  0.7071 -1.6112  0.0207
 9979TIP3   OH251351   0.728   2.571  14.940 -0.0310  0.2221  0.0601
 9979TIP3    H151352   0.724   2.657  14.898 -1.3684 -0.0990 -0.5292
 9979TIP3    H251353   0.637   2.542  14.944  0.2655 -0.6401  1.3872
 9980TIP3   OH251354   2.183   0.597  11.801 -0.4388 -0.0519 -0.0473
 9980TIP3    H151355   2.103   0.636  11.836 -0.3261  1.1567 -1.0572
 9980TIP3    H251356   2.152   0.526  11.744 -0.8597  0.8912 -1.0278
 9981TIP3   OH251357   6.666   5.952   4.427 -0.4708  0.5389 -0.6234
 9981TIP3    H151358   6.643   6.012   4.356  0.8570  1.6658 -0.1434
 9981TIP3    H251359   6.586   5.902   4.443 -1.4492  1.7758 -1.4358
 9982TIP3   OH251360   5.701   3.664  11.311  0.2169 -0.0794  0.1980
 9982TIP3    H151361   5.783   3.642  11.268  0.1442 -2.2511  1.0716
 9982TIP3    H251362   5.635   3.611  11.267 -0.5059  0.5613  0.4694
 9983TIP3   OH251363   1.021   6.164   4.365  0.6073  0.3034  0.2448
 9983TIP3    H151364   0.940   6.205   4.397  0.0706 -1.5164  1.4187
 9983TIP3    H251365   0.990   6.097   4.303  1.4138  1.2745 -1.2531
 9984TIP3   OH251366   2.495   2.369  16.417 -0.0619  0.0559  0.4899
 9984TIP3    H151367   2.524   2.438  16.357 -1.2927  1.1370  1.0798
 9984TIP3    H251368   2.408   2.346  16.385 -0.1086 -0.4271  0.9684
 9985TIP3   OH251369   1.875   3.373  15.380 -0.1249 -0.3887 -0.2682
 9985TIP3    H151370   1.807   3.439  15.388 -0.6652 -0.8315 -1.0802
 9985TIP3    H251371   1.865   3.338  15.292  0.6777 -0.9838 -0.1391
 9986TIP3   OH251372   2.080   0.006  16.300 -0.2048 -0.2280 -0.0757
 9986TIP3    H151373   2.088   0.007  16.396 -1.0103 -2.1603  0.0581
 9986TIP3    H251374   1.986   0.016  16.284 -0.2512 -1.3662 -0.5837
 9987TIP3   OH251375   2.129   5.472  17.231 -0.7247  0.0053  0.0449
 9987TIP3    H151376   2.102   5.381  17.220 -1.1557  0.4189 -3.3720
 9987TIP3    H251377   2.054   5.524  17.203 -0.5331  1.4915  2.0466
 9988TIP3   OH251378   1.513   4.439  11.776 -0.1824 -0.2106 -0.4404
 9988TIP3    H151379   1.581   4.466  11.714  1.2422 -1.7357  0.3626
 9988TIP3    H251380   1.439   4.414  11.722  1.8223 -3.8576 -1.8453
 9989TIP3   OH251381   3.657   1.958   0.696 -0.1942 -0.3342 -0.2844
 9989TIP3    H151382   3.599   1.890   0.732  0.9906 -1.4156 -0.3396
 9989TIP3    H251383   3.728   1.909   0.654 -0.5362  0.9083 -2.4841
 9990TIP3   OH251384   0.089   6.441  14.970  0.0092  0.5624 -0.2794
 9990TIP3    H151385   0.056   6.502  14.904 -1.5844  0.2413  0.1792
 9990TIP3    H251386   0.144   6.495  15.027  1.6624  0.7835 -2.0040
 9991TIP3   OH251387   1.717   1.111   2.383 -0.0264  0.4141  0.4100
 9991TIP3    H151388   1.650   1.160   2.431 -0.1991  0.0570  0.5361
 9991TIP3    H251389   1.800   1.146   2.415 -0.1491  0.9976  0.1109
 9992TIP3   OH251390   6.502   4.224   6.980  0.1833  0.0836  0.0689
 9992TIP3    H151391   6.515   4.139   6.939  0.3211 -0.3912  1.0793
 9992TIP3    H251392   6.408   4.231   6.993 -0.0951  1.0453 -1.9776
 9993TIP3   OH251393   1.298   3.452   5.079  0.0258 -0.1847 -0.3675
 9993TIP3    H151394   1.278   3.465   5.172 -0.3625  1.2992 -0.6361
 9993TIP3    H251395   1.257   3.526   5.035  0.3866 -0.7558 -1.7093
 9994TIP3   OH251396   3.392   0.143  15.820  0.5531  0.8823 -0.0683
 9994TIP3    H151397   3.374   0.083  15.748  1.6912  0.2726  0.1297
 9994TIP3    H251398   3.336   0.114  15.891 -0.5532  1.4663 -0.6735
 9995TIP3   OH251399   4.097   1.251  12.769  0.2008 -0.2784  1.0585
 9995TIP3    H151400   4.011   1.247  12.811 -1.0214  0.8961 -1.1883
 9995TIP3    H251401   4.138   1.329  12.807 -1.6186  1.8438 -1.0600
 9996TIP3   OH251402   6.739   2.951  14.231 -0.7072  0.0843  0.8574
 9996TIP3    H151403   6.687   2.926  14.308  0.6525 -0.4391  1.6321
 9996TIP3    H251404   6.749   3.046  14.240 -2.2854  0.3493  0.1873
 9997TIP3   OH251405   6.575   3.975  12.815 -0.0523 -0.0375 -0.0540
 9997TIP3    H151406   6.575   3.922  12.735 -0.4730  0.1931 -0.2101
 9997TIP3    H251407   6.593   4.064  12.785  0.5210 -0.0668  0.1936
 9998TIP3   OH251408   0.798   5.591   6.083  0.2511  0.1083  0.6043
 9998TIP3    H151409   0.814   5.603   6.177 -0.0979 -1.4001  0.8776
 9998TIP3    H251410   0.884   5.602   6.043  0.5218  0.1484  1.1788
 9999TIP3   OH251411   3.872   2.394   4.602  0.0027 -0.2750  0.1449
 9999TIP3    H151412   3.955   2.429   4.635  0.7300  0.1211 -1.9993
 9999TIP3    H251413   3.884   2.299   4.605 -0.5299 -0.3414  2.3265
10000TIP3   OH251414   1.184   6.015   1.062 -0.5955  0.5054  0.3654
10000TIP3    H151415   1.257   6.057   1.017 -0.8009 -1.1008 -1.6448
10000TIP3    H251416   1.124   5.989   0.991 -1.0464 -2.0011  1.5461
10001TIP3   OH251417   6.064   6.650  13.736 -0.6007 -0.5280  0.0633
10001TIP3    H151418   6.000   6.622  13.802  0.1615  0.8198  1.4460
10001TIP3    H251419   6.031   6.734  13.706 -0.0698 -0.3648 -0.0621
10002TIP3   OH251420   2.496   3.466   0.841  0.2600  0.1671  0.0909
10002TIP3    H151421   2.495   3.472   0.745  0.0395 -1.4840 -0.0257
10002TIP3    H251422   2.566   3.403   0.860  2.5141  2.7833  1.2068
10003TIP3   OH251423   1.865   3.245  16.690 -0.6451  0.1787 -0.9342
10003TIP3    H151424   1.956   3.217  16.697 -0.3634  1.1770 -0.4772
10003TIP3    H251425   1.817   3.184  16.746 -0.0187  0.7238  0.2283
10004TIP3   OH251426   0.606   4.024  12.021 -0.1091 -0.8517  0.2133
10004TIP3    H151427   0.689   4.072  12.016 -0.2663 -0.2553  2.6005
10004TIP3    H251428   0.548   4.070  11.960  0.4502  0.5373  0.7015
10005TIP3   OH251429   4.980   3.684  17.070  0.0809  0.7156 -0.1617
10005TIP3    H151430   4.970   3.604  17.123 -1.3736  2.5775  2.5765
10005TIP3    H251431   5.040   3.738  17.120 -0.5533  2.1761 -0.9313
10006TIP3   OH251432   6.480   0.681  11.909  0.0345  0.3845 -0.0511
10006TIP3    H151433   6.501   0.760  11.958 -0.2969 -0.7652  2.1178
10006TIP3    H251434   6.468   0.614  11.977 -1.1185 -1.1861 -1.7021
10007TIP3   OH251435   5.363   6.199  11.730 -0.4314  0.5495  0.1972
10007TIP3    H151436   5.293   6.249  11.772  0.7051  1.4735  1.0498
10007TIP3    H251437   5.381   6.127  11.791  0.1757  1.0129  0.5759
10008TIP3   OH251438   6.288   4.097  16.036  0.6830 -0.1638 -0.3253
10008TIP3    H151439   6.381   4.077  16.045  0.4883 -0.5781  0.8705
10008TIP3    H251440   6.248   4.014  16.009  0.7481  0.1943 -1.5926
10009TIP3   OH251441   0.883   4.848   4.410 -0.2492  0.9298 -0.4802
10009TIP3    H151442   0.815   4.809   4.356 -1.6108  0.3552  1.5364
10009TIP3    H251443   0.857   4.829   4.500  1.6900  2.1892  0.4356
10010TIP3   OH251444   4.093   6.772   5.350  0.4417 -0.8348  0.0708
10010TIP3    H151445   4.047   6.808   5.274  0.8846 -1.9489 -0.7520
10010TIP3    H251446   4.092   6.843   5.414 -2.6909 -0.8854  0.2472
10011TIP3   OH251447   2.412   2.909  16.111  0.1591  0.0267  0.0555
10011TIP3    H151448   2.333   2.959  16.132 -0.3464 -1.3458  1.6414
10011TIP3    H251449   2.379   2.829  16.070  0.8051 -0.1162 -0.1904
10012TIP3   OH251450   3.047   4.776   3.032  0.2212  0.1927 -0.3646
10012TIP3    H151451   3.136   4.753   3.058  0.5807  2.0611  0.1485
10012TIP3    H251452   3.017   4.836   3.099 -0.5981  1.3712 -1.7358
10013TIP3   OH251453   2.372   0.877   2.722 -0.3036  0.0964  0.3591
10013TIP3    H151454   2.434   0.941   2.759 -0.8000  0.1391  1.1424
10013TIP3    H251455   2.324   0.927   2.655  0.5628  0.0348 -0.3289
10014TIP3   OH251456   2.689   2.720  13.979  0.5816  0.1556 -0.0960
10014TIP3    H151457   2.696   2.797  13.924  1.4288  0.9540  1.0777
10014TIP3    H251458   2.737   2.743  14.059 -2.2281 -0.1663  1.8401
10015TIP3   OH251459   6.148   1.528  11.688  0.8844 -0.4810  0.2661
10015TIP3    H151460   6.217   1.527  11.622 -0.1488 -0.1881 -0.8556
10015TIP3    H251461   6.137   1.621  11.709  1.2873 -0.5829  0.9407
10016TIP3   OH251462   0.625   6.714  17.135 -0.2162  0.1234 -0.2354
10016TIP3    H151463   0.570   6.636  17.142  0.0081 -0.1496 -1.2789
10016TIP3    H251464   0.589   6.775  17.199 -0.4478 -0.8023  0.5262
10017TIP3   OH251465   4.055   6.700   2.620  0.4084  0.1378  0.6735
10017TIP3    H151466   4.135   6.713   2.570  0.7395  1.1428  1.4215
10017TIP3    H251467   3.985   6.695   2.554  1.2242 -2.2738 -0.0839
10018TIP3   OH251468   6.142   2.164   1.045  0.3932 -0.2550  0.0831
10018TIP3    H151469   6.167   2.137   1.133  0.8467 -1.0566 -0.2713
10018TIP3    H251470   6.059   2.120   1.029 -0.1330  0.6010  0.4313
10019TIP3   OH251471   5.501   0.641  14.485 -0.0688  0.8567  0.3844
10019TIP3    H151472   5.585   0.623  14.443 -0.5724  2.5424 -1.5164
10019TIP3    H251473   5.519   0.636  14.579  1.7343 -0.4564  0.0261
10020TIP3   OH251474   1.965   3.589  16.264  0.0717 -0.0266  0.2327
10020TIP3    H151475   1.959   3.674  16.308  2.8026 -0.2446  1.1913
10020TIP3    H251476   1.997   3.529  16.330  0.1876 -1.3572 -0.9780
10021TIP3   OH251477   0.398   5.472   1.344 -0.2398 -0.1248 -0.3482
10021TIP3    H151478   0.365   5.531   1.412 -0.0490 -0.7480  0.3013
10021TIP3    H251479   0.477   5.514   1.312  0.6363 -0.6512  1.0506
10022TIP3   OH251480   2.603   0.298  11.288 -0.1986  0.3095 -0.8480
10022TIP3    H151481   2.667   0.275  11.221  1.4044  0.9057  0.4196
10022TIP3    H251482   2.633   0.383  11.322 -1.8839  0.7959 -0.4785
10023TIP3   OH251483   0.046   5.808   1.982 -0.0631 -0.0250 -0.5184
10023TIP3    H151484   0.114   5.765   1.931  0.1298  0.1768 -0.4343
10023TIP3    H251485  -0.001   5.863   1.919  0.0904  0.1221 -0.5061
10024TIP3   OH251486   0.034   5.308  12.446  0.5355  0.0728 -0.1623
10024TIP3    H151487   0.002   5.225  12.411  1.1151 -0.2448  0.0411
10024TIP3    H251488   0.128   5.293  12.461  0.3548  0.2487  1.3325
10025TIP3   OH251489   0.169   2.476  14.468  0.2948  0.2602  0.0861
10025TIP3    H151490   0.168   2.381  14.465  0.0902  0.2652 -0.0423
10025TIP3    H251491   0.208   2.502  14.385 -1.0664  0.3129 -0.5646
10026TIP3   OH251492   4.240   0.930  11.247 -0.0749 -0.0674 -0.1969
10026TIP3    H151493   4.201   0.896  11.328 -0.8319  1.3063  0.0487
10026TIP3    H251494   4.250   0.853  11.191  0.9398 -1.1425  1.3676
10027TIP3   OH251495   4.823   6.155  16.479 -0.2102 -0.3003 -0.8682
10027TIP3    H151496   4.731   6.140  16.456 -1.0253  2.5641  0.0130
10027TIP3    H251497   4.819   6.199  16.564  2.0270 -0.4298 -0.6480
10028TIP3   OH251498   0.344   6.405  12.799 -0.1917  0.3977  0.3291
10028TIP3    H151499   0.344   6.338  12.868 -1.1692 -0.7730 -0.7803
10028TIP3    H251500   0.291   6.368  12.729  1.3719  1.2361 -1.3899
10029TIP3   OH251501   5.895   4.904  13.989  0.4961 -0.0333 -0.5339
10029TIP3    H151502   5.801   4.905  14.008  0.4776 -0.1490 -0.6178
10029TIP3    H251503   5.930   4.838  14.047  0.5216 -0.0107 -0.5234
10030TIP3   OH251504   4.452   6.530  12.448 -0.1728 -0.4689  0.4368
10030TIP3    H151505   4.407   6.614  12.443  1.2128  0.2545 -0.3631
10030TIP3    H251506   4.408   6.476  12.383  0.5867  0.4805 -0.9097
10031TIP3   OH251507   1.848   1.325   4.265 -0.4434  0.0881  0.3465
10031TIP3    H151508   1.878   1.414   4.284  0.7264 -0.1850 -0.1460
10031TIP3    H251509   1.879   1.308   4.176 -2.3937 -0.1038 -0.3442
10032TIP3   OH251510   5.285   4.414  13.466 -0.2107 -0.1543 -0.2046
10032TIP3    H151511   5.375   4.405  13.496 -0.4407 -0.1723  0.5075
10032TIP3    H251512   5.261   4.327  13.435 -0.7867 -0.8548  1.9670
10033TIP3   OH251513   1.598   4.977   4.718  0.0964  0.1837 -0.4855
10033TIP3    H151514   1.636   5.043   4.660 -0.2121  0.0968 -0.7921
10033TIP3    H251515   1.557   4.914   4.658  0.3541 -0.2642 -0.1958
10034TIP3   OH251516   3.378   4.898  17.213 -0.1673 -0.2080 -0.1401
10034TIP3    H151517   3.322   4.919  17.139 -0.0415 -0.3884 -0.2868
10034TIP3    H251518   3.467   4.899  17.178  0.1157  1.9185  0.4828
10035TIP3   OH251519   3.758   0.665   4.412  0.1892 -0.0083 -0.0079
10035TIP3    H151520   3.744   0.680   4.505  2.5741 -0.2574  0.4586
10035TIP3    H251521   3.717   0.740   4.369  0.7392  1.1348  1.3902
10036TIP3   OH251522   4.558   1.140   6.023 -0.0017 -0.1488  0.4746
10036TIP3    H151523   4.633   1.173   5.975 -0.2930 -1.2961 -0.8603
10036TIP3    H251524   4.490   1.206   6.010 -0.2973 -0.7424 -1.3789
10037TIP3   OH251525   4.501   0.948  12.792 -0.0674 -0.2971 -0.1704
10037TIP3    H151526   4.446   1.004  12.737  1.0602 -0.5792 -1.6799
10037TIP3    H251527   4.525   1.003  12.866 -0.9659  0.3837 -0.3682
10038TIP3   OH251528   6.224   3.686  14.822 -0.5265 -0.2691 -0.1910
10038TIP3    H151529   6.304   3.739  14.816 -0.2404 -0.6646  0.0555
10038TIP3    H251530   6.154   3.743  14.790  0.0593 -0.3631 -1.7542
10039TIP3   OH251531   2.892   1.959   0.956 -0.1825 -0.3890  0.1466
10039TIP3    H151532   2.983   1.987   0.949 -0.1772  0.0132  1.5592
10039TIP3    H251533   2.867   1.935   0.867  1.7087 -1.8431 -0.0392
10040TIP3   OH251534   5.343   0.213   0.823 -0.2238 -0.3887  0.3210
10040TIP3    H151535   5.371   0.172   0.905  0.8398 -0.8761 -0.2692
10040TIP3    H251536   5.402   0.178   0.757  0.4200  1.6996 -0.3014
10041TIP3   OH251537   6.725   4.774  13.868  0.2657  0.0445 -0.0635
10041TIP3    H151538   6.768   4.732  13.794 -0.2467  1.5490 -1.2519
10041TIP3    H251539   6.638   4.797  13.837  0.0871  0.8325  0.9551
10042TIP3   OH251540   3.051   5.154   6.020 -0.1730  0.6323 -0.0077
10042TIP3    H151541   3.058   5.107   6.103  2.4286 -0.6827 -0.8592
10042TIP3    H251542   2.957   5.165   6.006 -0.6994  0.0186  2.5937
10043TIP3   OH251543   5.980   0.636   3.413 -0.2215 -0.2655  0.3691
10043TIP3    H151544   6.040   0.641   3.487  2.9487  0.2297 -1.9941
10043TIP3    H251545   5.985   0.544   3.384 -0.7862 -0.2693  0.2761
10044TIP3   OH251546   0.877   5.334   2.393  0.7105  0.5620  0.5546
10044TIP3    H151547   0.790   5.374   2.388  0.1272 -0.7560 -0.1799
10044TIP3    H251548   0.863   5.242   2.369  2.3111  0.3412  0.3686
10045TIP3   OH251549   2.625   3.934   1.707  1.2342 -0.0943 -0.2600
10045TIP3    H151550   2.610   4.028   1.719 -0.0973 -0.5072  1.6381
10045TIP3    H251551   2.547   3.902   1.662  0.4654 -0.6854  1.4047
10046TIP3   OH251552   1.442   3.409   4.675 -0.1697 -0.3163  0.3848
10046TIP3    H151553   1.456   3.360   4.756 -1.2002 -0.7881  0.3061
10046TIP3    H251554   1.424   3.341   4.610  1.0345  0.0377 -0.3381
10047TIP3   OH251555   6.772   1.567   0.890  0.1207  0.0612 -0.0782
10047TIP3    H151556   6.755   1.583   0.983  2.2845 -1.1165  0.6072
10047TIP3    H251557   6.751   1.650   0.847 -2.7126  0.0761  1.1439
10048TIP3   OH251558   1.610   2.131   0.302  0.6704  0.0181  0.0283
10048TIP3    H151559   1.700   2.102   0.286  0.8647  1.4444 -1.9419
10048TIP3    H251560   1.556   2.067   0.255  0.8747  0.8264 -1.3475
10049TIP3   OH251561   2.712   2.286  11.852  0.6926 -0.2278 -0.2933
10049TIP3    H151562   2.731   2.257  11.763 -1.4116 -1.8543 -0.2960
10049TIP3    H251563   2.701   2.206  11.903  0.2605  0.6370  1.0652
10050TIP3   OH251564   0.112   3.780   2.683 -0.0869  0.1286  0.2534
10050TIP3    H151565   0.077   3.777   2.772 -0.7221  1.3316  0.0572
10050TIP3    H251566   0.198   3.822   2.693 -0.4932  0.9938  0.2158
10051TIP3   OH251567   2.527   4.470   2.890 -0.1256  0.2315 -0.3107
10051TIP3    H151568   2.546   4.425   2.808  1.2312 -1.9639  1.1214
10051TIP3    H251569   2.611   4.475   2.936 -0.9191  0.9763  1.1686
10052TIP3   OH251570   4.419   2.243   0.707  0.3118 -0.1564  0.4902
10052TIP3    H151571   4.344   2.302   0.721 -0.3433 -0.4383 -1.4898
10052TIP3    H251572   4.400   2.200   0.623  2.4849 -0.5854  0.1642
10053TIP3   OH251573   3.383   0.898  12.703 -0.2257 -0.1130 -0.0331
10053TIP3    H151574   3.405   0.864  12.616  0.3380  3.0678 -1.2595
10053TIP3    H251575   3.414   0.830  12.764  2.1840 -1.1120 -2.1814
10054TIP3   OH251576   5.253   5.570  14.886  0.1823  0.4790  0.6504
10054TIP3    H151577   5.324   5.612  14.838  0.6382 -0.3387  0.5793
10054TIP3    H251578   5.282   5.479  14.895 -0.3726  0.3880  1.5665
10055TIP3   OH251579   2.166   0.081   4.102 -0.1519  0.2013 -0.3472
10055TIP3    H151580   2.214  -0.002   4.100  0.6881  0.4058  3.6024
10055TIP3    H251581   2.210   0.133   4.170 -2.1357  2.9656 -0.9842
10056TIP3   OH251582   5.416   1.241  10.446 -0.3472  0.1475  0.1338
10056TIP3    H151583   5.441   1.330  10.422  0.5018  0.0620  0.6506
10056TIP3    H251584   5.498   1.200  10.473 -0.4773 -1.2232 -1.3962
10057TIP3   OH251585   1.182   6.071  11.418  0.3934  0.4668  0.2604
10057TIP3    H151586   1.094   6.037  11.402  0.1656  0.3684  1.5958
10057TIP3    H251587   1.202   6.123  11.341  0.0516 -1.2634 -1.0453
10058TIP3   OH251588   4.010   4.725  13.546 -0.2279 -0.1153  0.0176
10058TIP3    H151589   4.005   4.816  13.520  0.1372  0.7432  2.6483
10058TIP3    H251590   4.014   4.676  13.464  0.7560  2.2815 -1.4609
10059TIP3   OH251591   4.192   0.397  11.588 -0.4125 -0.0965 -0.1610
10059TIP3    H151592   4.105   0.361  11.600  0.0389 -2.3298 -2.5561
10059TIP3    H251593   4.249   0.345  11.645 -0.4401  0.3471  0.2743
10060TIP3   OH251594   6.768   4.892  15.392 -0.4737 -0.0381  0.3648
10060TIP3    H151595   6.804   4.979  15.409  1.4952 -1.0652  1.9798
10060TIP3    H251596   6.694   4.907  15.333 -0.4737  2.7432  0.9453
10061TIP3   OH251597   2.967   5.176   6.486 -0.1067  0.0886  0.0979
10061TIP3    H151598   2.876   5.154   6.468 -0.4924  1.2743  0.5462
10061TIP3    H251599   3.001   5.101   6.535 -0.7167 -0.5265 -0.4045
10062TIP3   OH251600   5.745   2.686  15.705  0.4578  0.6673  0.0017
10062TIP3    H151601   5.772   2.741  15.779  0.1189 -0.1934  0.7846
10062TIP3    H251602   5.723   2.601  15.745  1.9394 -0.3740 -1.2856
10063TIP3   OH251603   5.544   6.225   6.793  0.7465  0.3286  0.8566
10063TIP3    H151604   5.450   6.208   6.793  0.8799 -1.3846 -2.7038
10063TIP3    H251605   5.579   6.173   6.865 -0.8425 -0.4584  1.0927
10064TIP3   OH251606   3.866   1.201   1.103 -0.1522  0.2019 -0.0552
10064TIP3    H151607   3.821   1.221   1.185 -1.4535 -1.3512 -0.3403
10064TIP3    H251608   3.818   1.250   1.037 -1.0557 -0.9338 -0.2694
10065TIP3   OH251609   6.487   0.631   5.079  0.1966  0.6519  0.3914
10065TIP3    H151610   6.410   0.641   5.135 -0.1343  1.9221 -0.2618
10065TIP3    H251611   6.561   0.647   5.138  0.0021 -0.8721  1.0890
10066TIP3   OH251612   3.402   6.096  15.015  0.3270 -0.3578 -0.2736
10066TIP3    H151613   3.371   6.008  14.992 -0.0224 -0.1880 -0.4718
10066TIP3    H251614   3.453   6.125  14.940  1.5001 -0.8736  0.2984
10067TIP3   OH251615   5.939   2.221  14.720  0.4641  0.9398  0.1836
10067TIP3    H151616   5.979   2.308  14.717  0.2627  1.0162 -0.7692
10067TIP3    H251617   5.852   2.234  14.683  0.5372  0.2797 -0.2323
10068TIP3   OH251618   0.815   3.901  12.200  0.4289  0.0785  0.6411
10068TIP3    H151619   0.860   3.895  12.115  0.0595 -1.5439  0.5208
10068TIP3    H251620   0.726   3.869  12.181  0.2703 -0.0523  1.5943
10069TIP3   OH251621   4.914   5.825  11.043 -0.1469 -0.1341  0.3977
10069TIP3    H151622   4.952   5.909  11.069  2.1372 -1.1853  0.7647
10069TIP3    H251623   4.908   5.775  11.125  0.2677 -0.9572 -0.0592
10070TIP3   OH251624   5.359   5.088   1.571  0.3633 -0.3661  0.2028
10070TIP3    H151625   5.317   5.011   1.609  0.2375 -0.3469  0.1062
10070TIP3    H251626   5.452   5.076   1.588  0.2605 -0.0978  0.9835
10071TIP3   OH251627   1.153   4.090   5.561 -0.0012 -0.4876 -0.1506
10071TIP3    H151628   1.199   4.014   5.525 -1.0459 -0.9004 -0.6350
10071TIP3    H251629   1.189   4.164   5.512 -0.8544 -0.9647 -1.5608
10072TIP3   OH251630   0.374   1.134   3.535  0.1147 -0.2914  0.1707
10072TIP3    H151631   0.395   1.194   3.463  1.3115  0.4609  1.1175
10072TIP3    H251632   0.290   1.166   3.568 -0.4883 -0.6943 -0.9241
10073TIP3   OH251633   2.637   6.318  16.144 -0.1282  0.0315 -0.2002
10073TIP3    H151634   2.571   6.309  16.076 -2.0257 -2.9833  1.7841
10073TIP3    H251635   2.609   6.394  16.195 -1.9464 -0.9954  0.4067
10074TIP3   OH251636   6.320   5.096   2.225 -0.3824 -0.3725  0.0405
10074TIP3    H151637   6.246   5.038   2.241 -0.2633 -0.6242 -0.3050
10074TIP3    H251638   6.395   5.038   2.215 -0.4013 -0.2294 -1.1387
10075TIP3   OH251639   0.596   0.163  15.408 -0.3058  0.2665 -0.5318
10075TIP3    H151640   0.580   0.168  15.314  0.2285  0.6451 -0.6108
10075TIP3    H251641   0.688   0.189  15.418 -0.7844  1.7394  0.2458
10076TIP3   OH251642   6.485   3.496  15.837 -0.3608  0.0522  0.4150
10076TIP3    H151643   6.391   3.487  15.848 -0.5214  1.1653  0.1202
10076TIP3    H251644   6.496   3.521  15.745  0.1495  0.6121  0.6149
10077TIP3   OH251645   1.310   0.898  13.883  0.2295  0.0934 -0.3557
10077TIP3    H151646   1.330   0.806  13.863 -0.1129  0.1903 -1.1710
10077TIP3    H251647   1.293   0.938  13.798 -0.5866  0.6877  0.0732
10078TIP3   OH251648   4.313   4.105  13.968 -0.4804 -0.1454 -0.2794
10078TIP3    H151649   4.334   4.097  13.875 -0.2119  1.2302 -0.3583
10078TIP3    H251650   4.355   4.029  14.009  0.9178  0.1804 -1.0415
10079TIP3   OH251651   0.603   5.210  17.087 -0.0644 -0.7235  0.2468
10079TIP3    H151652   0.626   5.251  17.170 -0.6503  1.8236 -0.7670
10079TIP3    H251653   0.685   5.203  17.039 -0.0722  0.2185  0.0691
10080TIP3   OH251654   4.813   4.635  16.616  0.3504 -0.0713 -0.2813
10080TIP3    H151655   4.725   4.655  16.649  0.1418  0.2461 -1.0112
10080TIP3    H251656   4.830   4.546  16.648  0.3540  0.3810  1.0652
10081TIP3   OH251657   3.153   4.521  13.297 -0.5063 -0.0901 -0.3323
10081TIP3    H151658   3.115   4.500  13.383 -1.2945  0.2363 -0.5908
10081TIP3    H251659   3.082   4.503  13.235 -0.1238  0.2219 -0.8629
10082TIP3   OH251660   4.631   3.634  15.805  0.4081 -0.5398  0.5793
10082TIP3    H151661   4.553   3.620  15.750 -0.6678 -0.0736  1.9369
10082TIP3    H251662   4.695   3.675  15.746 -0.8257  0.2727 -0.2421
10083TIP3   OH251663   5.937   2.337   2.330 -0.0138 -0.2058 -0.3544
10083TIP3    H151664   5.921   2.431   2.327 -0.5270 -0.2753  0.0870
10083TIP3    H251665   5.877   2.300   2.265  0.1305 -0.2381 -0.4699
10084TIP3   OH251666   3.047   2.784   0.153 -0.2394  0.1998 -0.4640
10084TIP3    H151667   3.133   2.818   0.130 -0.9850  2.0914 -0.6748
10084TIP3    H251668   3.016   2.742   0.073  0.5054 -0.5452 -0.3645
10085TIP3   OH251669   3.151   1.087   4.388 -0.0131  0.4852  0.3239
10085TIP3    H151670   3.085   1.136   4.338  0.3991  2.1134  1.2959
10085TIP3    H251671   3.197   1.035   4.322 -0.0914  1.8674 -0.8743
10086TIP3   OH251672   1.410   3.624  15.652  0.5082  0.2697 -0.2167
10086TIP3    H151673   1.393   3.531  15.637 -2.6428  0.9716 -1.7561
10086TIP3    H251674   1.435   3.629  15.745  1.5833 -2.1407 -0.3107
10087TIP3   OH251675   1.450   4.789   1.761 -0.5353  0.4752 -0.0676
10087TIP3    H151676   1.437   4.694   1.771 -0.0885  0.4102 -0.0977
10087TIP3    H251677   1.473   4.818   1.849 -2.7383  0.9058  0.4371
10088TIP3   OH251678   6.576   4.802   3.023 -0.3267 -0.2606 -0.2784
10088TIP3    H151679   6.499   4.834   3.069  0.4065  1.0728  0.0853
10088TIP3    H251680   6.601   4.722   3.071  0.0114  0.7115  1.2419
10089TIP3   OH251681   0.607   3.902   6.751 -0.0930  0.5392 -0.7267
10089TIP3    H151682   0.537   3.844   6.780 -0.3776  0.2601 -1.9111
10089TIP3    H251683   0.609   3.891   6.656  2.5936 -0.6215 -0.6182
10090TIP3   OH251684   2.224   3.242  12.529 -0.1070 -0.3667  0.0007
10090TIP3    H151685   2.159   3.252  12.599 -0.0991 -2.8909  0.4771
10090TIP3    H251686   2.245   3.331  12.503 -0.0601  0.7055  3.2481
10091TIP3   OH251687   5.292   1.157  14.299 -0.2285  0.7734  0.1885
10091TIP3    H151688   5.263   1.095  14.232  0.1674  0.6895  0.0952
10091TIP3    H251689   5.228   1.147  14.370  0.3293 -0.3723  0.5463
10092TIP3   OH251690   6.353   4.758  16.389 -0.8297 -0.1562 -0.0396
10092TIP3    H151691   6.368   4.683  16.331  0.1967  0.4902 -0.6484
10092TIP3    H251692   6.279   4.804  16.350 -1.0533 -0.4923 -0.0205
10093TIP3   OH251693   0.016   1.179  13.817  0.4094 -0.4003  0.5384
10093TIP3    H151694  -0.004   1.212  13.905 -0.9790 -0.1129  0.1413
10093TIP3    H251695  -0.013   1.088  13.819  0.7987 -0.5269  0.5065
10094TIP3   OH251696   5.178   6.274  11.153  0.5531  0.1673 -0.3942
10094TIP3    H151697   5.214   6.327  11.082 -1.4346  1.8875 -0.1878
10094TIP3    H251698   5.122   6.210  11.109 -2.5527  2.6748 -0.4722
10095TIP3   OH251699   4.417   0.474   0.609  0.0216 -0.3144  0.1510
10095TIP3    H151700   4.362   0.460   0.686  2.1810 -0.7218  1.7239
10095TIP3    H251701   4.406   0.567   0.588 -1.4110 -0.4458  0.2627
10096TIP3   OH251702   1.724   2.831   0.069 -0.0767 -0.2652 -0.2176
10096TIP3    H151703   1.748   2.825  -0.024 -0.7828  1.4474 -0.5421
10096TIP3    H251704   1.679   2.915   0.077 -0.2877 -0.5147  1.6333
10097TIP3   OH251705   2.916   1.451  16.625  0.0919  0.2843 -0.2806
10097TIP3    H151706   2.893   1.395  16.699  0.4465 -1.6144 -1.5398
10097TIP3    H251707   2.982   1.511  16.661  1.1936 -1.4014  0.6926
10098TIP3   OH251708   5.977   2.921   2.208  0.5472  0.4240 -0.0915
10098TIP3    H151709   5.900   2.948   2.158  0.2659 -0.6868 -0.2929
10098TIP3    H251710   6.051   2.945   2.153  0.2410 -0.7735 -1.0569
10099TIP3   OH251711   0.727   1.725   4.227 -0.6098  0.0380 -0.6449
10099TIP3    H151712   0.781   1.787   4.178 -0.1002 -0.8117 -1.1934
10099TIP3    H251713   0.691   1.776   4.299  0.1993  0.8466 -0.7975
10100TIP3   OH251714   5.723   0.376   0.419  0.2332  0.1505 -0.0734
10100TIP3    H151715   5.709   0.282   0.433  0.5952 -0.1300 -1.4897
10100TIP3    H251716   5.817   0.386   0.409  0.1891  0.6664 -0.0203
10101TIP3   OH251717   4.500   4.614  12.369 -0.8169  0.2025  0.9541
10101TIP3    H151718   4.519   4.526  12.337 -1.1074  0.4625  0.0443
10101TIP3    H251719   4.518   4.671  12.294 -2.9694  0.6807  0.7508
10102TIP3   OH251720   0.357   0.951  11.774  0.2196  0.1062  0.1451
10102TIP3    H151721   0.435   0.909  11.739 -0.1729 -0.3292 -0.2186
10102TIP3    H251722   0.374   1.045  11.765  0.4123  0.0082 -0.5717
10103TIP3   OH251723   5.729   4.979   0.298  0.4277  0.0394  0.1265
10103TIP3    H151724   5.735   5.009   0.389  1.7286  0.2019  0.0123
10103TIP3    H251725   5.640   5.000   0.272  0.1806  0.4326  1.2165
10104TIP3   OH251726   0.966   1.900   2.498 -0.0594 -0.1711 -0.2036
10104TIP3    H151727   1.034   1.878   2.562  0.0169 -1.0727 -0.5823
10104TIP3    H251728   0.993   1.856   2.418 -1.0084 -0.4037 -0.4054
10105TIP3   OH251729   5.150   0.811   1.910  0.3149  0.2348 -0.0140
10105TIP3    H151730   5.165   0.751   1.983  0.4665 -0.2047 -0.4032
10105TIP3    H251731   5.235   0.849   1.892  0.4199 -0.1852 -0.4180
10106TIP3   OH251732   5.967   5.070   1.825 -0.0580  0.3235 -0.3099
10106TIP3    H151733   5.912   5.144   1.848  1.3378  1.3103  0.0021
10106TIP3    H251734   6.055   5.095   1.854  0.8123 -0.6403 -1.9407
10107TIP3   OH251735   6.360   5.076   3.193  0.8325 -0.3076  0.2615
10107TIP3    H151736   6.410   5.104   3.117 -0.7480  0.9724 -0.3588
10107TIP3    H251737   6.323   4.991   3.168  0.3911  0.0675 -0.3839
10108TIP3   OH251738   4.489   6.489  16.791 -0.3178  0.6157 -0.0905
10108TIP3    H151739   4.496   6.553  16.863 -0.4705  1.4376 -0.7952
10108TIP3    H251740   4.545   6.525  16.722 -2.7048  1.6025 -1.6559
10109TIP3   OH251741   3.100   4.028   1.495  0.8509  0.4352 -0.6055
10109TIP3    H151742   3.085   4.061   1.583 -3.4682  0.2218 -1.0603
10109TIP3    H251743   3.140   3.942   1.507 -0.7554 -0.1142  1.2710
10110TIP3   OH251744   5.459   1.379   0.931 -0.0910 -0.6480  0.0243
10110TIP3    H151745   5.536   1.340   0.889  2.4332  1.7195  2.0184
10110TIP3    H251746   5.448   1.463   0.886 -0.3539 -0.1832  0.9430
10111TIP3   OH251747   5.560   1.455  11.039 -0.5060 -0.0890  0.2416
10111TIP3    H151748   5.601   1.368  11.043 -0.6584 -0.1362  2.6445
10111TIP3    H251749   5.482   1.442  10.985  1.3963 -0.4898 -2.6365
10112TIP3   OH251750   3.154   5.926   2.064 -0.0455 -0.2116 -0.2557
10112TIP3    H151751   3.115   5.990   2.124  2.2101  0.8578  0.1788
10112TIP3    H251752   3.242   5.960   2.046  0.4809 -2.1395 -1.6917
10113TIP3   OH251753   3.500   4.345   5.035  0.7737 -0.6831 -0.6958
10113TIP3    H151754   3.536   4.257   5.046 -0.8373 -1.2094  0.8772
10113TIP3    H251755   3.456   4.363   5.118 -1.0617  0.6061 -1.8772
10114TIP3   OH251756   0.210   3.929   0.239 -0.3599  0.4220 -0.1712
10114TIP3    H151757   0.228   4.020   0.214 -0.4572  0.7631  0.9523
10114TIP3    H251758   0.121   3.931   0.273  0.3151  0.3143  1.7075
10115TIP3   OH251759   5.104   3.312  16.834 -0.0417  0.0117  0.2813
10115TIP3    H151760   5.034   3.254  16.863 -1.5949  1.4906 -0.3317
10115TIP3    H251761   5.146   3.264  16.762 -3.1576  0.6857 -2.2032
10116TIP3   OH251762   4.658   0.279  15.113  0.5071 -0.8081 -0.5710
10116TIP3    H151763   4.669   0.184  15.106  1.6015 -0.6338 -1.6028
10116TIP3    H251764   4.602   0.303  15.040  0.5741 -0.6087 -0.5574
10117TIP3   OH251765   1.485   2.909   4.243 -0.3995  0.1526 -0.1487
10117TIP3    H151766   1.395   2.937   4.225  0.8060  2.7919 -3.1528
10117TIP3    H251767   1.527   2.908   4.157  3.2525  2.3843  1.3772
10118TIP3   OH251768   5.902   1.776  15.828  0.1712  0.4203  0.3553
10118TIP3    H151769   5.980   1.744  15.783 -0.2858 -1.8740  1.0654
10118TIP3    H251770   5.845   1.807  15.758 -0.3873 -2.7662 -0.7876
10119TIP3   OH251771   0.103   5.609  16.167 -0.2242  0.5452 -0.0198
10119TIP3    H151772   0.059   5.540  16.215 -0.8301  1.1529  0.3184
10119TIP3    H251773   0.051   5.688  16.185 -0.5929  0.7600 -1.8063
10120TIP3   OH251774   5.808   1.035  13.695  0.3520  0.0706  0.3031
10120TIP3    H151775   5.712   1.039  13.693  0.3850  0.5621 -1.0107
10120TIP3    H251776   5.827   0.968  13.761 -0.8916  0.0575  0.6767
10121TIP3   OH251777   6.715   6.679   5.071 -0.0240 -0.0974 -0.3320
10121TIP3    H151778   6.756   6.626   5.003  1.0634  0.7751 -0.3701
10121TIP3    H251779   6.722   6.626   5.151  0.4217 -0.3149 -0.5143
10122TIP3   OH251780   5.046   3.587   0.690 -0.1721  0.5091  0.0743
10122TIP3    H151781   5.094   3.510   0.718  1.1199  1.1690 -0.2510
10122TIP3    H251782   4.996   3.614   0.768 -0.5854 -0.5912  0.2034
10123TIP3   OH251783   1.081   2.120  15.875 -0.0054 -0.2714 -0.1604
10123TIP3    H151784   1.126   2.198  15.843  0.2581  0.2718  1.4302
10123TIP3    H251785   1.062   2.069  15.796  3.3675 -0.5645 -0.9293
10124TIP3   OH251786   1.381   1.346  14.107  0.2276 -0.4744 -0.1010
10124TIP3    H151787   1.354   1.265  14.150  2.2700 -0.3454  1.6321
10124TIP3    H251788   1.443   1.318  14.039 -0.5562 -0.4647 -0.8342
10125TIP3   OH251789   0.889   4.415   3.785 -0.7851 -0.6751  0.2736
10125TIP3    H151790   0.884   4.506   3.756 -2.0056 -0.8965 -0.2710
10125TIP3    H251791   0.935   4.370   3.715 -0.7166 -0.5849  0.2604
10126TIP3   OH251792   3.201   4.183   1.866  0.5618 -0.3572 -0.3997
10126TIP3    H151793   3.289   4.147   1.854  1.2454  1.4660 -1.1220
10126TIP3    H251794   3.215   4.271   1.900 -1.0417 -0.4343  0.5636
10127TIP3   OH251795   3.672   1.447   2.340 -0.7849  0.4939  0.0767
10127TIP3    H151796   3.588   1.472   2.379 -0.9937 -0.1840  0.0820
10127TIP3    H251797   3.736   1.460   2.410 -1.1409 -0.6179  0.6257
10128TIP3   OH251798   2.139   4.626   5.433 -0.3418  0.6350  0.2709
10128TIP3    H151799   2.154   4.720   5.435  0.9504  0.4782 -0.5424
10128TIP3    H251800   2.160   4.600   5.343  0.7719 -0.6168  0.8467
10129TIP3   OH251801   0.756   2.795   3.763  0.1851 -0.5706  0.5741
10129TIP3    H151802   0.736   2.739   3.838 -0.4469 -2.1106 -0.6693
10129TIP3    H251803   0.805   2.738   3.703  2.5065  1.2091  0.6512
10130TIP3   OH251804   4.942   0.920   0.656  0.0295 -0.1437 -0.4283
10130TIP3    H151805   4.927   0.988   0.721  0.7364 -0.9537  0.6159
10130TIP3    H251806   4.856   0.880   0.643  0.3527 -2.1043  2.4943
10131TIP3   OH251807   5.177   1.079  10.460 -0.6496 -0.0049 -0.0190
10131TIP3    H151808   5.145   1.112  10.545  0.5974  1.1256  0.0532
10131TIP3    H251809   5.246   1.141  10.436  0.5473 -1.5797 -0.7905
10132TIP3   OH251810   0.524   6.598  11.826  0.6742  0.1307 -0.3185
10132TIP3    H151811   0.476   6.617  11.745  0.6738 -1.6106 -0.7703
10132TIP3    H251812   0.512   6.503  11.839  2.3936  0.0065  0.5970
10133TIP3   OH251813   1.643   0.754  11.837 -0.3080 -0.2199  0.2034
10133TIP3    H151814   1.671   0.819  11.901  2.2023  0.2469 -1.2087
10133TIP3    H251815   1.552   0.778  11.816  0.0590  1.9213  0.8327
10134TIP3   OH251816   4.218   0.166  13.039 -0.0902 -0.9121 -0.8114
10134TIP3    H151817   4.197   0.096  12.976 -1.7046 -2.8048  1.6085
10134TIP3    H251818   4.132   0.202  13.063  0.5071 -0.0379  0.0686
10135TIP3   OH251819   6.456   3.503  15.317  0.4022  0.0796  0.9855
10135TIP3    H151820   6.430   3.546  15.235  1.3844 -0.6663  0.2447
10135TIP3    H251821   6.394   3.431  15.327 -0.9946  1.3564  2.0144
10136TIP3   OH251822   0.967   4.335  15.790 -0.1679 -0.0948  0.0337
10136TIP3    H151823   1.035   4.339  15.723 -0.1569 -0.3076  0.0297
10136TIP3    H251824   0.981   4.251  15.833 -0.2218  0.0080  0.2540
10137TIP3   OH251825   1.600   1.717  15.664 -0.6187 -0.7965 -0.2099
10137TIP3    H151826   1.687   1.743  15.694 -1.1715  1.0658 -0.1014
10137TIP3    H251827   1.604   1.621  15.658  0.9205 -0.8766  1.3708
10138TIP3   OH251828   0.323   2.005  13.806  0.6762  0.6315  0.5131
10138TIP3    H151829   0.408   2.049  13.801  1.0844 -0.2732 -1.5540
10138TIP3    H251830   0.342   1.914  13.784 -0.9557  0.6296 -1.0559
10139TIP3   OH251831   6.676   3.173  13.839 -0.1305  0.4372  0.4409
10139TIP3    H151832   6.724   3.255  13.855  0.4430  0.0459  0.7702
10139TIP3    H251833   6.597   3.200  13.793  1.4660  0.9211 -2.2801
10140TIP3   OH251834   3.929   0.311  16.078 -0.2721  0.6044 -0.3177
10140TIP3    H151835   3.935   0.348  15.990 -1.9883 -0.5995 -0.9910
10140TIP3    H251836   3.964   0.222  16.070  0.5785  0.8475  0.4913
10141TIP3   OH251837   6.332   0.244  16.021 -0.0591  0.5125  0.0213
10141TIP3    H151838   6.333   0.242  16.116 -2.6198  0.7106  0.1241
10141TIP3    H251839   6.344   0.336  15.998  3.5060  0.1512 -0.0513
10142TIP3   OH251840   3.692   5.129   4.471 -0.1340  0.2827 -0.2153
10142TIP3    H151841   3.747   5.162   4.400  2.8214  3.0862  3.0193
10142TIP3    H251842   3.706   5.034   4.469  0.7113  0.3870 -2.6331
10143TIP3   OH251843   0.427   4.667  14.749  0.3510 -0.0903  0.2384
10143TIP3    H151844   0.383   4.600  14.698 -1.3367  1.6564 -0.7628
10143TIP3    H251845   0.520   4.643  14.747  0.0000 -1.4752 -1.4411
10144TIP3   OH251846   5.653   0.751  14.087  0.2694  0.6008  0.1458
10144TIP3    H151847   5.618   0.662  14.076  0.6770  0.7152 -3.0334
10144TIP3    H251848   5.598   0.805  14.031 -0.7850  2.7034  3.0053
10145TIP3   OH251849   6.475   3.149  15.305  0.3441 -0.0481 -0.4149
10145TIP3    H151850   6.443   3.077  15.359  0.5583 -0.3655 -0.7090
10145TIP3    H251851   6.423   3.225  15.333  0.0357 -0.3400 -0.1875
10146TIP3   OH251852   1.564   2.216  14.107 -0.2525  0.5740 -0.4589
10146TIP3    H151853   1.608   2.188  14.026  0.7731  0.2092  0.2016
10146TIP3    H251854   1.617   2.177  14.177 -2.5797 -1.3617  0.3752
10147TIP3   OH251855   5.105   4.493  12.047  0.3525 -0.0574 -0.0916
10147TIP3    H151856   5.076   4.449  12.127 -2.1850 -0.8764 -1.3549
10147TIP3    H251857   5.123   4.422  11.985 -0.2055  0.6016 -1.0395
10148TIP3   OH251858   4.956   1.036   4.456  0.3615 -0.3550  0.0093
10148TIP3    H151859   5.049   1.030   4.475  0.1463  0.0050  1.2568
10148TIP3    H251860   4.947   1.114   4.402  0.6549  0.2734  0.8465
10149TIP3   OH251861   3.678   2.887   5.625  0.0663 -0.1366  0.1995
10149TIP3    H151862   3.587   2.882   5.653  0.5381 -2.6456  1.4870
10149TIP3    H251863   3.718   2.950   5.684 -0.8772  1.3591 -0.6842
10150TIP3   OH251864   5.970   3.986   2.518 -0.2096  0.2962  0.3849
10150TIP3    H151865   5.991   4.076   2.544 -1.2666  0.5761  0.3226
10150TIP3    H251866   6.009   3.977   2.431 -1.0574  1.0936 -0.1028
10151TIP3   OH251867   3.397   2.288  11.597 -0.2026 -0.2410 -0.0560
10151TIP3    H151868   3.338   2.274  11.671 -1.2017 -2.1293 -1.1280
10151TIP3    H251869   3.379   2.215  11.537  0.8709  0.9648 -1.9728
10152TIP3   OH251870   1.051   3.565   4.027  0.1506 -0.5910 -0.0804
10152TIP3    H151871   0.966   3.607   4.016  1.1120  1.7653  0.8437
10152TIP3    H251872   1.108   3.611   3.965  0.8573 -1.8688 -0.4066
10153TIP3   OH251873   0.109   3.617  15.777  0.0379  0.3482 -0.4198
10153TIP3    H151874   0.179   3.599  15.839  0.2665 -1.1745 -1.0840
10153TIP3    H251875   0.029   3.590  15.823  0.1333 -0.1034 -0.5147
10154TIP3   OH251876   3.358   6.535  11.646  0.5946  0.4088  0.1797
10154TIP3    H151877   3.414   6.467  11.684 -0.2766  0.3302  1.3939
10154TIP3    H251878   3.383   6.537  11.553  0.0785 -2.1744 -0.1086
10155TIP3   OH251879   2.705   1.893  10.900  0.0682 -0.1040 -0.2053
10155TIP3    H151880   2.698   1.875  10.806  1.3521  0.9127 -0.5283
10155TIP3    H251881   2.738   1.983  10.905  3.3852 -1.2532  1.1091
10156TIP3   OH251882   6.575   2.442   0.878  0.3229  0.5941 -0.1465
10156TIP3    H151883   6.532   2.432   0.963 -0.1200  1.1160 -0.3011
10156TIP3    H251884   6.668   2.432   0.896  0.4844  3.0129  0.8322
10157TIP3   OH251885   3.721   0.828   0.455 -0.2326  0.1392 -0.0243
10157TIP3    H151886   3.725   0.733   0.457 -0.6313  0.1275  0.6880
10157TIP3    H251887   3.737   0.854   0.546 -0.7567  0.7207 -0.0933
10158TIP3   OH251888   1.197   3.045  13.610 -0.5450  0.3125  0.1642
10158TIP3    H151889   1.167   3.122  13.561  0.8194  2.0056  1.8092
10158TIP3    H251890   1.243   2.992  13.546 -1.9671  0.5797 -1.1297
10159TIP3   OH251891   3.304   4.839  13.802 -0.0191  0.5136  0.1227
10159TIP3    H151892   3.340   4.928  13.805 -0.7651  0.8180  0.2103
10159TIP3    H251893   3.372   4.785  13.843  1.1380  0.7926 -1.3493
10160TIP3   OH251894   0.224   1.306  15.678  0.3333  0.1259  0.1538
10160TIP3    H151895   0.319   1.314  15.682  0.2957  0.1617  1.2439
10160TIP3    H251896   0.206   1.214  15.696  0.1425  0.2121  0.4160
10161TIP3   OH251897   6.575   4.756  14.761 -0.0060 -0.0843 -0.1174
10161TIP3    H151898   6.643   4.741  14.827 -0.7614 -1.3765  0.4218
10161TIP3    H251899   6.569   4.851  14.753  0.7775  0.0796  0.9721
10162TIP3   OH251900   4.894   0.973  11.259  0.0197 -0.6832 -0.4549
10162TIP3    H151901   4.985   1.003  11.255 -0.3944  1.0044  1.3958
10162TIP3    H251902   4.896   0.887  11.218  2.6673 -1.1768  0.4964
10163TIP3   OH251903   5.385   5.762  12.999  0.2283 -0.3910 -0.8119
10163TIP3    H151904   5.433   5.703  13.057 -0.1766  0.0129 -0.0607
10163TIP3    H251905   5.446   5.778  12.926  0.2438 -1.9470 -1.1801
10164TIP3   OH251906   4.986   4.763   0.106 -0.4074  0.0130  0.3578
10164TIP3    H151907   5.043   4.838   0.089 -1.6935  1.0632  0.5360
10164TIP3    H251908   4.903   4.785   0.062 -0.5816 -1.6564 -0.2457
10165TIP3   OH251909   5.956   1.275  15.280  0.1575  0.8914  0.4018
10165TIP3    H151910   5.943   1.227  15.199 -1.1976  1.1127  0.4726
10165TIP3    H251911   6.003   1.214  15.337  1.6227  0.9235 -0.6937
10166TIP3   OH251912   0.194   1.941   4.374  0.0826 -0.4898  0.1528
10166TIP3    H151913   0.104   1.930   4.343 -0.0243  0.9444 -0.1201
10166TIP3    H251914   0.190   2.020   4.428  0.7187 -1.6733  2.0434
10167TIP3   OH251915   2.221   1.688  11.915 -0.9721 -0.0656  0.7482
10167TIP3    H151916   2.219   1.633  11.837 -0.3896 -0.7057  1.1754
10167TIP3    H251917   2.314   1.694  11.938 -1.0769  0.6301  1.0413
10168TIP3   OH251918   4.758   5.283   1.501 -0.1790  0.1610 -0.0820
10168TIP3    H151919   4.826   5.247   1.558  0.1488  1.9038  0.7104
10168TIP3    H251920   4.701   5.333   1.560 -0.1916  1.4945 -1.1694
10169TIP3   OH251921   3.863   3.574   0.680  0.6013  0.2824 -0.2835
10169TIP3    H151922   3.866   3.670   0.674  1.5392  0.4139  1.5390
10169TIP3    H251923   3.928   3.543   0.618  0.7464  0.8619 -0.4240
10170TIP3   OH251924   6.213   0.884   1.195 -0.4395  0.1036 -0.3917
10170TIP3    H151925   6.201   0.975   1.169 -0.5954 -0.1014 -1.0694
10170TIP3    H251926   6.211   0.835   1.113  0.8488 -0.3882 -0.1480
10171TIP3   OH251927   0.556   5.019   1.193  0.0664  0.5490 -0.4974
10171TIP3    H151928   0.515   5.080   1.254 -1.3488  1.1213 -1.9535
10171TIP3    H251929   0.483   4.978   1.147  0.9711 -2.2612  0.3778
10172TIP3   OH251930   1.488   0.735   1.225  0.0622 -0.4347 -0.0751
10172TIP3    H151931   1.421   0.721   1.158 -0.5208 -0.1544  0.4339
10172TIP3    H251932   1.523   0.822   1.205 -0.5959 -0.0531  0.3801
10173TIP3   OH251933   2.240   1.944   4.134 -0.3798 -0.1167 -0.1223
10173TIP3    H151934   2.219   1.924   4.225  2.2892  0.1750  0.6303
10173TIP3    H251935   2.224   1.862   4.087 -2.5239 -0.0622  0.3930
10174TIP3   OH251936   2.854   6.160  14.304 -0.5050 -0.8130  0.4960
10174TIP3    H151937   2.823   6.175  14.394  1.5191  0.3995  1.0698
10174TIP3    H251938   2.814   6.230  14.253 -0.9380 -0.9613  0.6247
10175TIP3   OH251939   0.257   3.188  13.713  0.1183 -0.6478  0.4178
10175TIP3    H151940   0.219   3.120  13.768 -0.4280 -0.8910 -0.2480
10175TIP3    H251941   0.344   3.154  13.690  0.7177 -0.1368  1.8566
10176TIP3   OH251942   2.398   5.305  11.991  0.0226 -0.2536  0.0507
10176TIP3    H151943   2.380   5.213  11.971 -0.6198 -0.4469  1.4329
10176TIP3    H251944   2.348   5.323  12.071 -0.5693  1.5591 -0.6820
10177TIP3   OH251945   4.506   4.002  14.735 -0.8933 -0.6178  0.7038
10177TIP3    H151946   4.589   4.025  14.693 -2.3633  1.0973 -1.4989
10177TIP3    H251947   4.478   3.921  14.692 -0.6616 -0.8712  1.0241
10178TIP3   OH251948   5.378   4.202  16.722  0.0537 -0.2356  0.1002
10178TIP3    H151949   5.410   4.129  16.774  0.4083  0.3864  0.7857
10178TIP3    H251950   5.451   4.264  16.722 -0.0735 -0.0718 -0.8448
10179TIP3   OH251951   3.331   6.551   4.528 -0.1099  0.0371  0.5695
10179TIP3    H151952   3.379   6.546   4.611  1.0968  0.6093 -0.0675
10179TIP3    H251953   3.266   6.621   4.542 -1.1746 -1.1195  1.6198
10180TIP3   OH251954   3.750   1.235   0.641  0.5501 -0.4898  0.1694
10180TIP3    H151955   3.728   1.275   0.726 -0.6238 -0.2526 -0.2228
10180TIP3    H251956   3.740   1.141   0.655  0.6211 -0.4690  0.3625
10181TIP3   OH251957   0.480   2.956  13.067  0.5329 -0.2711  0.4029
10181TIP3    H151958   0.455   2.991  12.982  0.3029 -0.6699  0.3062
10181TIP3    H251959   0.472   2.861  13.058 -0.3247 -0.2820  1.1271
10182TIP3   OH251960   2.205   3.998  12.329  0.5716  0.2484  0.6895
10182TIP3    H151961   2.273   3.991  12.396 -0.2995 -0.0940  1.5737
10182TIP3    H251962   2.165   3.911  12.326  0.2750  0.3968  0.0664
10183TIP3   OH251963   1.170   1.132   3.915 -0.5944 -0.3269  0.6868
10183TIP3    H151964   1.241   1.136   3.851 -1.1981 -0.3507  0.0093
10183TIP3    H251965   1.179   1.046   3.955 -0.6995 -0.6361  0.0583
10184TIP3   OH251966   6.088   4.913   3.290  0.4723  0.2724 -0.4285
10184TIP3    H151967   6.138   4.984   3.250  0.3345  0.2796 -0.5876
10184TIP3    H251968   6.003   4.916   3.247  0.5848 -0.2211 -0.6934
10185TIP3   OH251969   5.665   6.113  16.715  0.6426  0.1583  0.2547
10185TIP3    H151970   5.625   6.103  16.629  0.6827  1.2201  0.1011
10185TIP3    H251971   5.677   6.207  16.725 -0.1158  0.1203  1.7685
10186TIP3   OH251972   3.881   3.565   3.464  0.1702  0.3111 -0.7868
10186TIP3    H151973   3.794   3.526   3.454 -0.5727  1.4933  0.7146
10186TIP3    H251974   3.939   3.507   3.414 -1.2594 -1.2645 -0.7022
10187TIP3   OH251975   0.694   6.030  15.656 -0.1945 -0.7681  0.1589
10187TIP3    H151976   0.719   5.938  15.659  1.7079 -0.3251 -0.4961
10187TIP3    H251977   0.665   6.051  15.745  0.9895 -1.5846  0.7572
10188TIP3   OH251978   4.908   3.308   2.495  0.1671  0.2256  0.4867
10188TIP3    H151979   4.855   3.346   2.565 -0.4819 -1.5265  0.9909
10188TIP3    H251980   4.962   3.242   2.539 -0.3823 -1.0431 -0.6537
10189TIP3   OH251981   5.654   1.393   6.248 -0.0843 -0.5696 -0.1940
10189TIP3    H151982   5.595   1.321   6.224  0.7628 -1.5999  0.7047
10189TIP3    H251983   5.596   1.460   6.284 -0.6438 -2.1149  1.9888
10190TIP3   OH251984   6.379   1.097   5.025  0.5892 -0.1439  0.5484
10190TIP3    H151985   6.354   1.006   5.009 -0.3875  0.3521 -0.9863
10190TIP3    H251986   6.359   1.111   5.117  2.5133 -1.9828  1.3169
10191TIP3   OH251987   3.331   6.514  13.605  0.4839  0.2651  0.1378
10191TIP3    H151988   3.281   6.472  13.675 -1.3666  1.1105 -0.6122
10191TIP3    H251989   3.423   6.502  13.630 -0.0837 -1.1908  1.6591
10192TIP3   OH251990   3.680   0.389   1.893 -0.0431 -0.1292  0.0716
10192TIP3    H151991   3.603   0.382   1.948  0.1119 -2.1678  0.1049
10192TIP3    H251992   3.645   0.403   1.805 -0.5826 -2.3611 -0.1347
10193TIP3   OH251993   2.748   2.686   6.120 -0.2496  0.1042  0.1030
10193TIP3    H151994   2.717   2.659   6.034 -1.2224  1.4837 -0.0028
10193TIP3    H251995   2.841   2.661   6.121 -0.8138 -2.2353 -0.3437
10194TIP3   OH251996   1.208   0.979   1.520 -0.1432  0.3797  0.5790
10194TIP3    H151997   1.194   1.071   1.496  1.1228  0.6471  0.7996
10194TIP3    H251998   1.239   0.982   1.610  2.0337 -0.0702 -0.0887
10195TIP3   OH251999   6.015   1.748   2.830 -0.1990  0.1486 -0.7874
10195TIP3    H152000   5.998   1.812   2.761 -2.2011  0.9113  0.3125
10195TIP3    H252001   6.026   1.801   2.909  0.1229 -0.7836 -0.1906
10196TIP3   OH252002   0.390   3.304  15.547 -0.0026  0.5113 -0.3086
10196TIP3    H152003   0.309   3.328  15.591 -0.7478 -2.0447 -0.1145
10196TIP3    H252004   0.376   3.331  15.456 -1.2458 -0.2441 -0.3603
10197TIP3   OH252005   6.617   0.812  10.927  0.2408  0.5465  0.2371
10197TIP3    H152006   6.610   0.791  10.834  0.2349 -2.5318  0.8340
10197TIP3    H252007   6.711   0.816  10.944  0.2455  1.4719  0.0827
10198TIP3   OH252008   6.249   1.847  13.463 -0.0840 -0.7494  0.8566
10198TIP3    H152009   6.161   1.861  13.497 -0.6292  0.4252 -0.9070
10198TIP3    H252010   6.236   1.808  13.377  1.0030  1.0774 -0.2033
10199TIP3   OH252011   4.547   6.531  15.878  0.7048  0.2709  0.6909
10199TIP3    H152012   4.523   6.485  15.797 -1.2873 -0.4953  1.6572
10199TIP3    H252013   4.614   6.594  15.850 -1.2962  1.4203 -1.9585
10200TIP3   OH252014   3.915   1.685   1.221  0.6399  0.5429 -0.3447
10200TIP3    H152015   3.865   1.627   1.163  0.7781 -1.3700  1.3453
10200TIP3    H252016   3.849   1.743   1.259  0.3598  0.9075 -1.3390
10201TIP3   OH252017   1.082   1.321   2.918 -0.6860  0.0694  0.8557
10201TIP3    H152018   1.145   1.386   2.886 -0.3490 -0.2950  0.7846
10201TIP3    H252019   1.106   1.240   2.874 -1.8391  0.1521  0.0290
10202TIP3   OH252020   6.776   5.987  13.008 -0.1733 -0.1641 -0.5742
10202TIP3    H152021   6.764   5.987  12.913  1.7850  0.2966 -0.8634
10202TIP3    H252022   6.840   5.917  13.024  1.2627  1.2358  0.1049
10203TIP3   OH252023   2.077   5.119   2.147 -0.2755  0.0012 -0.0057
10203TIP3    H152024   2.089   5.027   2.170 -0.1225  0.1319  0.4615
10203TIP3    H252025   2.064   5.163   2.232 -0.3775  0.4022 -0.2263
10204TIP3   OH252026   0.375   6.633  11.590 -0.1444 -0.1566  0.2281
10204TIP3    H152027   0.421   6.577  11.527 -0.0006  0.0711  0.1287
10204TIP3    H252028   0.287   6.595  11.596 -0.0116 -0.4668  0.2545
10205TIP3   OH252029   1.986   0.113  14.962 -0.2064  0.0178  0.8820
10205TIP3    H152030   1.925   0.116  15.036  1.3643  0.1674  2.2483
10205TIP3    H252031   1.956   0.181  14.903 -4.0412 -2.7716 -0.8013
10206TIP3   OH252032   4.256   6.587   1.100 -0.4101 -0.3021 -0.1421
10206TIP3    H152033   4.298   6.606   1.016  0.9065 -1.6171  0.1897
10206TIP3    H252034   4.312   6.630   1.165 -2.9972  3.2979 -0.0029
10207TIP3   OH252035   1.171   5.995   5.608 -0.1294  0.4403 -0.0102
10207TIP3    H152036   1.093   5.996   5.664  0.4492 -0.1354  0.8342
10207TIP3    H252037   1.244   6.000   5.670  0.5130  1.9903 -0.8179
10208TIP3   OH252038   1.751   3.681  16.619  0.1433  0.1483 -0.1050
10208TIP3    H152039   1.846   3.677  16.631  0.3029  0.5466 -1.1152
10208TIP3    H252040   1.728   3.595  16.583  0.6487  1.1348 -3.0374
10209TIP3   OH252041   5.841   3.479   0.272 -0.2244 -0.1079  0.1611
10209TIP3    H152042   5.807   3.530   0.199 -0.8584  1.5641  1.5661
10209TIP3    H252043   5.884   3.543   0.329  0.3795 -1.3821  1.2031
10210TIP3   OH252044   1.622   1.377   3.837 -0.7732  0.4055  0.6766
10210TIP3    H152045   1.645   1.306   3.899 -1.1405 -1.0823 -0.8196
10210TIP3    H252046   1.539   1.349   3.799  0.4117  0.2090 -1.9669
10211TIP3   OH252047   5.321   6.473   1.107 -0.4047  0.1457 -0.2023
10211TIP3    H152048   5.325   6.565   1.078 -1.2480 -0.0322 -0.9334
10211TIP3    H252049   5.367   6.425   1.038 -1.5442 -0.1716 -0.7648
10212TIP3   OH252050   0.015   1.004  16.689 -0.8698 -0.1606  0.5917
10212TIP3    H152051  -0.021   1.030  16.604  0.0548 -0.4682  0.0868
10212TIP3    H252052   0.095   1.056  16.698 -1.7838  1.0941  2.0509
10213TIP3   OH252053   0.713   6.410  11.656  0.2495  0.4407  0.3030
10213TIP3    H152054   0.630   6.402  11.610  0.3120  2.3264 -0.2138
10213TIP3    H252055   0.778   6.376  11.595  0.1153  1.1329 -0.2297
10214TIP3   OH252056   2.863   4.511   1.268 -0.2030 -0.1073  0.3205
10214TIP3    H152057   2.919   4.451   1.318 -0.9228 -0.6888  0.4431
10214TIP3    H252058   2.774   4.483   1.289 -0.5247 -0.3942 -1.3161
10215TIP3   OH252059   6.743   5.069  12.336 -0.1051  0.0775  0.3058
10215TIP3    H152060   6.681   5.035  12.272  1.1167 -1.5630 -0.0861
10215TIP3    H252061   6.807   4.998  12.346 -0.0096  0.4445  3.0107
10216TIP3   OH252062   5.915   0.907  13.473  0.3792 -0.2534 -0.1041
10216TIP3    H152063   5.980   0.977  13.466  0.1681 -0.1622 -1.4517
10216TIP3    H252064   5.860   0.932  13.547 -1.2821  2.4054 -2.0198
10217TIP3   OH252065   4.012   5.330   3.910  0.3591 -0.1433  0.2831
10217TIP3    H152066   4.003   5.404   3.849  0.0744  0.2148  0.7506
10217TIP3    H252067   4.054   5.262   3.859 -1.8270 -0.6350 -0.9796
10218TIP3   OH252068   0.400   0.491   0.852  0.7772  0.2380  0.1364
10218TIP3    H152069   0.398   0.439   0.771  1.1267 -0.5394  0.6160
10218TIP3    H252070   0.312   0.483   0.888  0.6379  0.5365 -0.1318
10219TIP3   OH252071   6.109   5.280   0.079  0.0699  0.0935 -0.6390
10219TIP3    H152072   6.142   5.192   0.093  1.5522  0.7737  0.4867
10219TIP3    H252073   6.035   5.288   0.139  0.0139 -0.3591 -0.6488
10220TIP3   OH252074   2.617   5.207   4.773 -0.6323 -0.0704  0.0924
10220TIP3    H152075   2.585   5.220   4.683  0.1481 -1.0124 -0.3398
10220TIP3    H252076   2.541   5.225   4.828 -1.2972 -0.0899 -0.7895
10221TIP3   OH252077   1.792   0.720  11.549  0.4216  0.4615  0.4769
10221TIP3    H152078   1.736   0.795  11.528 -0.9566 -0.6489  0.0088
10221TIP3    H252079   1.794   0.718  11.645  0.6524  1.2060  0.4948
10222TIP3   OH252080   4.583   1.520  16.854 -0.4481  0.2373 -0.6797
10222TIP3    H152081   4.641   1.536  16.780  1.5588  0.7872  0.9228
10222TIP3    H252082   4.501   1.562  16.829  0.3041  0.8109 -2.3770
10223TIP3   OH252083   1.248   4.021  12.827  0.0689  0.6143  0.2292
10223TIP3    H152084   1.206   3.948  12.782  0.9072  1.3603 -1.8909
10223TIP3    H252085   1.181   4.089  12.829  0.3978  1.0014 -1.0564
10224TIP3   OH252086   6.600   4.088   0.668  0.0253  0.5656 -0.1875
10224TIP3    H152087   6.616   4.179   0.641 -0.8276  0.6990 -0.2620
10224TIP3    H252088   6.688   4.052   0.682  0.3986  1.1816 -0.8766
10225TIP3   OH252089   6.261   4.849  15.991  0.4626 -0.0424 -0.6169
10225TIP3    H152090   6.282   4.797  15.913  2.6111 -0.0850 -0.0795
10225TIP3    H252091   6.333   4.912  15.998 -0.4541  0.9289  0.5224
10226TIP3   OH252092   0.521   3.870  16.366 -0.5568 -0.6350 -0.0163
10226TIP3    H152093   0.580   3.941  16.392  0.3124 -0.7865 -1.4331
10226TIP3    H252094   0.433   3.905  16.378 -0.1688 -0.0161  1.1281
10227TIP3   OH252095   5.642   6.517   6.449  0.2627  0.1662  0.2524
10227TIP3    H152096   5.604   6.555   6.529  0.1062  1.8558 -0.5751
10227TIP3    H252097   5.732   6.549   6.448  1.2209 -2.3274  1.2579
10228TIP3   OH252098   2.352   4.286  16.147  0.3509  0.0777  0.1923
10228TIP3    H152099   2.304   4.340  16.085  0.2308  0.2981  0.4757
10228TIP3    H252100   2.438   4.273  16.106  0.0575 -0.3201 -0.3171
10229TIP3   OH252101   2.520   1.411  11.888 -0.4505 -0.2723 -0.1952
10229TIP3    H152102   2.493   1.420  11.796 -0.0402  0.4088 -0.2556
10229TIP3    H252103   2.536   1.501  11.917 -0.9640 -0.4449  0.6669
10230TIP3   OH252104   4.870   1.728  14.671  0.2842 -0.7060 -0.0055
10230TIP3    H152105   4.855   1.777  14.590  0.5153  0.2624  0.5296
10230TIP3    H252106   4.829   1.643  14.654 -0.5604 -0.1761 -0.7748
10231TIP3   OH252107   5.830   2.617  16.112  0.2885 -0.0965 -0.1523
10231TIP3    H152108   5.768   2.547  16.131 -0.3489  0.6361  0.5633
10231TIP3    H252109   5.839   2.665  16.194 -0.7917  1.8115 -1.0713
10232TIP3   OH252110   4.655   3.544  12.798 -0.0036 -0.2809 -0.0764
10232TIP3    H152111   4.657   3.475  12.864 -2.1661  0.9584  1.3994
10232TIP3    H252112   4.589   3.515  12.735  1.1230 -0.8405 -1.0441
10233TIP3   OH252113   5.729   3.037   0.752  0.1192  0.3523 -0.4433
10233TIP3    H152114   5.678   3.069   0.827  0.3056  0.9035 -0.5521
10233TIP3    H252115   5.714   2.942   0.753 -0.3149  0.4180 -0.0324
10234TIP3   OH252116   6.564   3.587  13.211 -0.2175  0.1296 -0.2873
10234TIP3    H152117   6.593   3.618  13.125  1.2671 -0.9511 -0.2224
10234TIP3    H252118   6.543   3.494  13.197 -0.8045  0.1619  0.3414
10235TIP3   OH252119   6.225   3.468   0.277  0.2304 -0.3907  0.1182
10235TIP3    H152120   6.229   3.560   0.302  1.2833 -0.3070 -0.3173
10235TIP3    H252121   6.310   3.450   0.238 -0.7611 -0.9522 -1.8788
10236TIP3   OH252122   5.065   5.234  14.226  0.7219 -0.0777  0.0678
10236TIP3    H152123   5.110   5.197  14.302 -0.1975  1.7572  1.6056
10236TIP3    H252124   5.131   5.288  14.183  0.7554  0.4119  0.7151
10237TIP3   OH252125   5.909   2.122   2.954  0.0084  0.5724  0.1267
10237TIP3    H152126   5.958   2.204   2.961 -1.4384  1.3191  2.2911
10237TIP3    H252127   5.842   2.140   2.888 -0.3023  1.1419  0.5911
10238TIP3   OH252128   4.562   2.960  14.148 -0.0811  0.1166  0.5138
10238TIP3    H152129   4.553   2.916  14.232 -0.0783  0.0167  0.4610
10238TIP3    H252130   4.548   3.053  14.168  2.5509  0.4680  1.0753
10239TIP3   OH252131   2.352   5.685  15.135 -0.4337  0.7157  0.2157
10239TIP3    H152132   2.357   5.705  15.229 -0.8388  0.4651  0.2942
10239TIP3    H252133   2.264   5.649  15.124  0.0581 -0.4241 -0.0349
10240TIP3   OH252134   6.313   2.291   0.445 -0.2963 -0.9475  0.5084
10240TIP3    H152135   6.231   2.295   0.495 -0.8651  0.5987 -0.4831
10240TIP3    H252136   6.379   2.327   0.505 -0.5107 -1.2584  0.9440
10241TIP3   OH252137   6.519   4.807  13.192  0.0729 -0.3190  0.0735
10241TIP3    H152138   6.541   4.882  13.248  1.5763  0.5178 -1.5275
10241TIP3    H252139   6.586   4.741  13.214  0.4871 -0.0987 -0.5010
10242TIP3   OH252140   5.720   6.726   1.842 -0.6021  0.4671 -1.0736
10242TIP3    H152141   5.630   6.730   1.810 -1.5277  0.2118  1.2530
10242TIP3    H252142   5.752   6.816   1.838 -1.5449  0.8414 -0.4834
10243TIP3   OH252143   5.057   0.711  15.716 -0.5011 -0.0013 -0.0390
10243TIP3    H152144   5.073   0.791  15.666  0.0017  0.4936  0.8853
10243TIP3    H252145   5.022   0.742  15.799 -1.6500 -0.8337 -0.1947
10244TIP3   OH252146   2.766   5.808  16.300 -0.6210  0.1921  0.1762
10244TIP3    H152147   2.764   5.901  16.281  0.6121  0.0555 -0.7236
10244TIP3    H252148   2.679   5.789  16.336 -1.8508  1.1510 -2.1154
10245TIP3   OH252149   5.331   6.619   5.632  0.0530  0.7534 -0.9585
10245TIP3    H152150   5.239   6.591   5.638 -0.6416  2.8181 -1.2320
10245TIP3    H252151   5.337   6.666   5.549  1.2801  0.9290 -0.7898
10246TIP3   OH252152   0.185   3.734  13.646 -0.4708  0.7387 -0.0395
10246TIP3    H152153   0.142   3.672  13.587  0.6770 -1.0683  0.9209
10246TIP3    H252154   0.199   3.812  13.593 -2.5146  0.4378 -1.1312
10247TIP3   OH252155   4.039   0.389   3.719 -0.3393  0.4260  0.1491
10247TIP3    H152156   4.088   0.352   3.793  0.4768  0.2832 -0.4466
10247TIP3    H252157   4.002   0.313   3.675  0.5859  0.3717 -0.5555
10248TIP3   OH252158   0.655   6.003   3.550  0.1955  0.2421 -0.3625
10248TIP3    H152159   0.599   6.059   3.496 -3.2058 -2.1089  0.3602
10248TIP3    H252160   0.595   5.963   3.613  3.0654 -1.2548  1.6691
10249TIP3   OH252161   3.246   0.243  16.211  0.3427 -0.3423 -0.1895
10249TIP3    H152162   3.333   0.229  16.248  1.0701  0.2363 -1.6137
10249TIP3    H252163   3.248   0.197  16.127 -0.8742 -0.6664 -0.0640
10250TIP3   OH252164   1.569   2.813  16.945  0.7490 -0.2936  0.5055
10250TIP3    H152165   1.580   2.720  16.964 -2.1297 -0.7827  0.3166
10250TIP3    H252166   1.534   2.850  17.027 -2.4164 -0.4145 -0.6323
10251TIP3   OH252167   2.173   1.617   2.644 -0.1236  0.8830  0.4590
10251TIP3    H152168   2.188   1.699   2.690 -0.7537  1.8680 -1.0151
10251TIP3    H252169   2.080   1.617   2.624  0.1117  0.4554 -0.7327
10252TIP3   OH252170   3.797   5.509  13.654  0.4229 -0.4964  0.5447
10252TIP3    H152171   3.848   5.590  13.661 -0.2021  0.1138 -1.3996
10252TIP3    H252172   3.727   5.518  13.718 -0.1596  0.9238 -0.2612
10253TIP3   OH252173   1.605   4.980   5.778 -0.3981 -0.6511  0.1984
10253TIP3    H152174   1.683   4.963   5.724  0.8532  1.4515  1.2291
10253TIP3    H252175   1.637   5.037   5.848 -2.5884 -0.9704  1.5234
10254TIP3   OH252176   5.201   1.245   0.117  0.2104  0.3753  0.2478
10254TIP3    H152177   5.252   1.182   0.066 -0.2048 -0.0374  0.3349
10254TIP3    H252178   5.189   1.203   0.202 -1.9299 -0.4148 -0.3916
10255TIP3   OH252179   1.789   4.830   6.053  0.0980  0.4725  0.3282
10255TIP3    H152180   1.877   4.834   6.091 -0.9156 -1.6210  3.2722
10255TIP3    H252181   1.758   4.921   6.056  1.5008  0.9674  0.9145
10256TIP3   OH252182   0.599   1.107  11.155 -0.0151  0.0228  0.3256
10256TIP3    H152183   0.554   1.025  11.177  0.7079 -0.3779  0.3253
10256TIP3    H252184   0.622   1.145  11.240  0.6724 -0.3502  0.3112
10257TIP3   OH252185   3.814   1.136  11.754 -0.3108  0.4105  0.2824
10257TIP3    H152186   3.762   1.169  11.680  0.2771  0.2360 -0.2186
10257TIP3    H252187   3.905   1.146  11.725 -0.0438  1.0566  1.2880
10258TIP3   OH252188   3.301   1.173   5.855  0.1337  0.2151  0.5468
10258TIP3    H152189   3.325   1.084   5.879 -1.4253 -0.4650 -0.2867
10258TIP3    H252190   3.384   1.214   5.827  0.6030 -1.5732 -0.8865
10259TIP3   OH252191   0.779   6.253   5.446 -0.3295 -0.3224  0.7853
10259TIP3    H152192   0.791   6.207   5.363 -0.2857  0.1723  0.5150
10259TIP3    H252193   0.864   6.293   5.464 -1.1127  2.1807 -0.5249
10260TIP3   OH252194   0.938   1.097  14.118 -0.3594  0.2096  0.3514
10260TIP3    H152195   0.862   1.085  14.061 -0.0948  0.4001 -0.0450
10260TIP3    H252196   0.902   1.141  14.195 -0.5246  1.0275 -0.1778
10261TIP3   OH252197   2.682   2.033  13.414 -0.2849  0.0405 -0.1198
10261TIP3    H152198   2.759   1.982  13.387  0.2133  0.6676  0.0910
10261TIP3    H252199   2.620   2.023  13.342  0.4927  0.5710 -0.8737
10262TIP3   OH252200   5.336   1.249   2.997 -0.2993 -0.2373 -0.3012
10262TIP3    H152201   5.418   1.222   3.037 -1.1596 -0.3749  1.4576
10262TIP3    H252202   5.354   1.247   2.903  1.5987 -0.5665  0.0232
10263TIP3   OH252203   0.948   5.969   6.097  0.5020  0.1730  0.4469
10263TIP3    H152204   0.941   6.027   6.173  0.4157  0.0005  0.5736
10263TIP3    H252205   0.868   5.916   6.101  0.7639 -0.2133  0.5500
10264TIP3   OH252206   2.103   2.763   4.163  0.3113  0.4519 -0.2734
10264TIP3    H152207   2.131   2.854   4.148 -1.0945  1.1673  1.1404
10264TIP3    H252208   2.162   2.730   4.230  1.3304  0.0320 -1.3543
10265TIP3   OH252209   2.564   1.825  16.243  0.5708 -0.8208 -0.5338
10265TIP3    H152210   2.521   1.910  16.258  2.0749  0.1884 -1.6735
10265TIP3    H252211   2.502   1.761  16.278 -0.0757  0.7960  1.5316
10266TIP3   OH252212   1.729   1.096  15.073  0.3949  0.3937 -0.6413
10266TIP3    H152213   1.666   1.025  15.062  1.0885 -0.3809  0.1932
10266TIP3    H252214   1.701   1.163  15.011  0.1361 -0.8871 -1.9662
10267TIP3   OH252215   1.165   2.061  14.856 -0.1140  0.0487  0.5026
10267TIP3    H152216   1.101   2.132  14.859 -1.4668 -1.1102  0.3558
10267TIP3    H252217   1.231   2.090  14.793  0.1305  1.7582  1.4912
10268TIP3   OH252218   2.333   0.236  16.812  0.0182 -0.1452  0.0641
10268TIP3    H152219   2.264   0.229  16.878 -0.7800 -1.5278 -0.8520
10268TIP3    H252220   2.329   0.326  16.783 -1.2746 -0.1399  0.1860
10269TIP3   OH252221   1.825   0.248  10.599 -0.4096 -0.0598 -0.3676
10269TIP3    H152222   1.866   0.188  10.536 -0.9578 -0.6228 -0.1999
10269TIP3    H252223   1.745   0.203  10.627 -0.0130  0.0140  0.9880
10270TIP3   OH252224   2.398   5.395  14.104 -0.0448 -0.9212  0.0314
10270TIP3    H152225   2.419   5.424  14.193 -2.0436 -0.3234  0.3598
10270TIP3    H252226   2.333   5.326  14.116 -0.5808 -0.6034 -0.9823
10271TIP3   OH252227   6.331   2.241   2.675 -0.0733 -0.1390 -0.0428
10271TIP3    H152228   6.351   2.241   2.581  3.1716 -0.6451  0.5206
10271TIP3    H252229   6.411   2.274   2.716 -1.6270  0.6547  2.5392
10272TIP3   OH252230   0.937   3.469  15.251 -0.1679 -0.2879 -0.7727
10272TIP3    H152231   0.844   3.445  15.253 -0.3433  0.4152  0.3042
10272TIP3    H252232   0.937   3.563  15.268  0.6238  0.1214 -2.8051
10273TIP3   OH252233   6.491   0.852   3.133  0.0323 -0.2708 -0.6977
10273TIP3    H152234   6.575   0.835   3.089 -0.5847 -0.4442 -1.8610
10273TIP3    H252235   6.446   0.914   3.075 -1.0933 -1.0354 -0.6768
10274TIP3   OH252236   4.243   2.297   0.946  0.0768 -0.1455 -0.3798
10274TIP3    H152237   4.337   2.287   0.934 -0.2636 -1.7282 -2.3477
10274TIP3    H252238   4.211   2.207   0.958 -1.1252  0.4253  1.0410
10275TIP3   OH252239   0.369   5.147   0.729 -0.0744  0.3245 -0.6582
10275TIP3    H152240   0.446   5.195   0.698 -0.8305  1.1795 -1.2790
10275TIP3    H252241   0.369   5.067   0.677  0.6921  0.0460 -0.2570
10276TIP3   OH252242   3.320   0.464   0.340  0.2504 -0.2088 -0.0432
10276TIP3    H152243   3.323   0.400   0.411 -1.0367  0.0215  0.2479
10276TIP3    H252244   3.372   0.538   0.372  0.4307 -0.4794  0.2879
10277TIP3   OH252245   5.860   4.100  16.261 -0.2233  0.1273  0.0179
10277TIP3    H152246   5.922   4.050  16.207 -0.0184 -1.6015  1.7310
10277TIP3    H252247   5.914   4.166  16.304  0.1568 -0.3357  0.2670
10278TIP3   OH252248   4.603   5.385   1.696 -0.1620 -0.0113  0.2865
10278TIP3    H152249   4.620   5.458   1.756  0.7711 -0.2473  0.3314
10278TIP3    H252250   4.538   5.331   1.740 -1.0515  0.9165  0.1434
10279TIP3   OH252251   5.557   3.126  12.012 -0.0664 -0.4083 -0.1685
10279TIP3    H152252   5.498   3.141  12.085 -0.6744 -1.4722 -0.4226
10279TIP3    H252253   5.550   3.204  11.958 -0.0563  0.1306  0.6025
10280TIP3   OH252254   4.290   0.900  17.167 -0.5385 -0.2234  0.5255
10280TIP3    H152255   4.320   0.972  17.222 -0.5434 -0.3697  0.7205
10280TIP3    H252256   4.366   0.843  17.160 -0.6350 -0.3691  0.6508
10281TIP3   OH252257   2.014   6.725  13.803  0.1414 -0.1518  0.6630
10281TIP3    H152258   2.025   6.768  13.888 -2.0511 -0.2616  1.0422
10281TIP3    H252259   1.963   6.646  13.822  0.5263 -0.7448 -0.6270
10282TIP3   OH252260   4.389   1.496  11.815  0.4651 -0.0301 -0.0242
10282TIP3    H152261   4.444   1.443  11.757  1.9720  1.1439  0.2482
10282TIP3    H252262   4.319   1.438  11.842  1.0520 -1.3196 -1.1443
10283TIP3   OH252263   3.802   1.891  13.908  0.0412 -0.0527 -0.4677
10283TIP3    H152264   3.736   1.848  13.852  0.7811 -0.8974 -0.7134
10283TIP3    H252265   3.767   1.881  13.997 -0.2221 -0.3943 -0.6040
10284TIP3   OH252266   1.627   2.333   5.001 -0.0495  0.0650  0.0051
10284TIP3    H152267   1.589   2.419   4.986 -1.1085 -0.3535  0.1949
10284TIP3    H252268   1.584   2.276   4.937 -0.6835 -0.6706  1.0622
10285TIP3   OH252269   5.716   2.677   0.292 -0.0266  0.5357  0.0311
10285TIP3    H152270   5.645   2.741   0.283 -1.0958 -0.7767 -1.5191
10285TIP3    H252271   5.796   2.729   0.289 -0.8717  1.8473 -0.7578
10286TIP3   OH252272   2.011   6.277  16.129 -0.7061 -0.4841 -0.1343
10286TIP3    H152273   1.957   6.335  16.075  1.2515 -0.0004 -1.7157
10286TIP3    H252274   2.000   6.191  16.089  2.0312  0.1394 -2.5946
10287TIP3   OH252275   5.416   3.367  13.513  0.8572  0.3457 -0.9966
10287TIP3    H152276   5.483   3.306  13.541  1.1989  0.9672 -0.4135
10287TIP3    H252277   5.453   3.454  13.531  0.3921  0.7270 -1.8063
10288TIP3   OH252278   6.054   3.644  12.355 -0.2629 -0.3594  0.7222
10288TIP3    H152279   6.137   3.690  12.357 -1.1609  1.3498  1.0888
10288TIP3    H252280   6.012   3.666  12.438 -1.6683  0.0218 -0.0412
10289TIP3   OH252281   6.323   6.645  12.893  0.3867 -0.1809  0.0373
10289TIP3    H152282   6.349   6.674  12.981  0.6362 -1.3797  0.3692
10289TIP3    H252283   6.388   6.579  12.869  0.0580 -0.1851 -0.8766
10290TIP3   OH252284   3.111   5.870  17.005 -0.0610  0.3086 -0.1827
10290TIP3    H152285   3.124   5.796  17.064 -0.1649 -1.0154 -1.7665
10290TIP3    H252286   3.080   5.941  17.062  2.2798 -0.1059  1.7662
10291TIP3   OH252287   1.827   5.604   1.392 -0.2493  0.0092  0.2625
10291TIP3    H152288   1.800   5.629   1.303  0.0780 -2.3180 -0.5772
10291TIP3    H252289   1.908   5.554   1.379 -0.3337 -0.5903  1.8377
10292TIP3   OH252290   5.878   4.459   0.203 -0.4826 -0.1665  0.3496
10292TIP3    H152291   5.821   4.448   0.126  0.7817 -0.4351 -0.5854
10292TIP3    H252292   5.872   4.375   0.249  0.0711 -0.6369 -0.4048
10293TIP3   OH252293   3.905   5.591  15.936 -0.4870  0.3122  0.4158
10293TIP3    H152294   3.827   5.570  15.987  0.3126  0.5118  1.8006
10293TIP3    H252295   3.975   5.598  16.002  0.9178 -0.8969 -0.8855
10294TIP3   OH252296   3.216   3.019  12.079 -0.1031  0.3050 -0.2151
10294TIP3    H152297   3.212   2.924  12.067  0.7776  0.3950 -1.4570
10294TIP3    H252298   3.309   3.041  12.067 -0.3681  1.3737 -0.4251
10295TIP3   OH252299   4.755   1.759  13.609 -0.2685 -0.2014 -0.0457
10295TIP3    H152300   4.817   1.831  13.621 -0.9233  0.4190 -0.3035
10295TIP3    H252301   4.773   1.699  13.681  1.5758 -0.7409 -0.8885
10296TIP3   OH252302   1.452   5.743  11.825  0.1701 -0.5026  0.3640
10296TIP3    H152303   1.497   5.816  11.784 -1.3094 -0.4250 -1.2173
10296TIP3    H252304   1.450   5.765  11.918  1.8335  0.2841  0.2495
10297TIP3   OH252305   5.375   3.130  15.806  0.2392  0.0053 -0.3200
10297TIP3    H152306   5.362   3.204  15.747  0.5501  1.4959  1.3812
10297TIP3    H252307   5.443   3.078  15.764 -1.1031 -0.2210 -2.3440
10298TIP3   OH252308   2.627   3.505   2.516  0.2732  0.5973 -0.4619
10298TIP3    H152309   2.697   3.557   2.476 -0.9877  2.4939 -0.3691
10298TIP3    H252310   2.551   3.563   2.515 -0.6292 -0.4161  1.8299
10299TIP3   OH252311   0.708   6.104   4.604  0.2457  0.1965  0.4009
10299TIP3    H152312   0.739   6.180   4.555  0.1235 -0.8053 -1.2981
10299TIP3    H252313   0.618   6.090   4.573 -0.7188  0.8827  2.6263
10300TIP3   OH252314   5.913   5.886  13.510 -0.1858  0.0629 -0.4361
10300TIP3    H152315   5.895   5.974  13.543 -1.2974  0.1132 -1.1280
10300TIP3    H252316   6.000   5.865  13.544 -1.0847  0.2524  2.2415
10301TIP3   OH252317   5.367   3.335   3.629 -0.0268  0.6518 -0.1227
10301TIP3    H152318   5.452   3.297   3.604  0.1383  0.7890  0.2157
10301TIP3    H252319   5.385   3.382   3.711 -1.1630 -2.2452  1.9256
10302TIP3   OH252320   0.035   6.055   4.637 -0.4000 -0.0287  0.6623
10302TIP3    H152321   0.091   5.978   4.650 -0.5388 -0.1309  0.6626
10302TIP3    H252322  -0.010   6.038   4.554 -1.2544 -0.4668  1.1968
10303TIP3   OH252323   0.769   6.630   5.183 -0.4725  0.0170 -0.1501
10303TIP3    H152324   0.830   6.575   5.232 -0.6839 -0.6092 -0.5812
10303TIP3    H252325   0.701   6.654   5.246 -1.1896 -1.4656 -0.3320
10304TIP3   OH252326   5.378   2.786  12.896  1.0124  0.1202 -0.0596
10304TIP3    H152327   5.357   2.877  12.875 -0.1577 -0.0552  0.2818
10304TIP3    H252328   5.420   2.791  12.982 -1.5989  0.1437  1.3244
10305TIP3   OH252329   6.464   5.335   1.880 -0.0297  0.3652 -0.7062
10305TIP3    H152330   6.526   5.298   1.943  0.0970  2.7471  0.7015
10305TIP3    H252331   6.383   5.286   1.897  0.2018  0.4474  0.8335
10306TIP3   OH252332   0.109   3.542   2.983  0.3275  0.0123 -0.2517
10306TIP3    H152333   0.195   3.560   2.945  0.0357  2.5487  0.1036
10306TIP3    H252334   0.071   3.475   2.926  2.9380 -2.0961  0.2865
10307TIP3   OH252335   1.586   2.003  14.909 -0.3005  0.7811  0.0547
10307TIP3    H152336   1.570   2.064  14.837  0.2375  1.0026  0.1187
10307TIP3    H252337   1.508   2.010  14.964 -0.9181  0.2834 -0.7280
10308TIP3   OH252338   0.722   0.544  13.954  0.1157 -0.2617 -0.6984
10308TIP3    H152339   0.658   0.610  13.977 -0.9184 -2.1129  2.2714
10308TIP3    H252340   0.670   0.469  13.924  1.1018 -0.6852 -1.4274
10309TIP3   OH252341   3.904   6.305  14.766  0.4791  0.0421 -0.0211
10309TIP3    H152342   3.932   6.382  14.814  1.3567 -1.2468  1.6255
10309TIP3    H252343   3.819   6.283  14.804  0.7218 -0.4170  0.2576
10310TIP3   OH252344   2.563   3.226  12.376  0.5041 -0.4090  0.1451
10310TIP3    H152345   2.631   3.289  12.401  1.9775 -1.3253 -1.3348
10310TIP3    H252346   2.519   3.268  12.302  0.5839 -0.5285  0.0300
10311TIP3   OH252347   1.274   5.695  12.878  0.2100  0.0716  0.2564
10311TIP3    H152348   1.233   5.743  12.806  0.7322  0.7648  0.4108
10311TIP3    H252349   1.235   5.608  12.874 -1.3735  0.7353  0.4818
10312TIP3   OH252350   4.975   2.475  13.066 -0.1684 -0.5776 -0.0186
10312TIP3    H152351   4.956   2.423  12.987  0.2991 -0.0869 -0.4574
10312TIP3    H252352   4.891   2.479  13.112 -0.0128 -2.5726  0.5526
10313TIP3   OH252353   3.398   6.700  10.705 -0.3377 -0.4679  0.2245
10313TIP3    H152354   3.352   6.783  10.713 -0.0250 -0.4405  2.3497
10313TIP3    H252355   3.474   6.708  10.763  0.0999 -1.9710 -0.0817
10314TIP3   OH252356   4.169   6.365   2.665  0.2928 -0.7256  0.2169
10314TIP3    H152357   4.206   6.418   2.594 -0.7389 -1.0922 -0.6206
10314TIP3    H252358   4.183   6.274   2.636 -0.3552 -0.8742  0.3603
10315TIP3   OH252359   2.806   2.350   2.361 -0.6639 -0.4251  0.0420
10315TIP3    H152360   2.782   2.314   2.446  0.0029  1.0072  0.8822
10315TIP3    H252361   2.902   2.348   2.359 -0.6605 -0.1697 -0.5410
10316TIP3   OH252362   5.785   0.234   0.662  0.4435 -0.0634  0.1620
10316TIP3    H152363   5.709   0.179   0.679  0.7111 -1.0169 -1.5182
10316TIP3    H252364   5.809   0.270   0.748 -0.4795 -1.6058  1.0973
10317TIP3   OH252365   1.182   0.086  11.707  0.3334 -0.1230  0.0191
10317TIP3    H152366   1.228   0.165  11.736  1.0765 -0.6776  0.3942
10317TIP3    H252367   1.089   0.110  11.707  0.6360  1.2417 -1.3967
10318TIP3   OH252368   4.358   2.641  14.019 -0.0503  0.1645  0.2948
10318TIP3    H152369   4.380   2.726  13.981 -1.2264 -0.2657 -1.4871
10318TIP3    H252370   4.286   2.609  13.964  0.1328 -1.8237  1.1531
10319TIP3   OH252371   3.656   2.388  11.652  0.1383 -0.1481  0.5188
10319TIP3    H152372   3.567   2.353  11.641  1.3054 -2.8052 -1.6726
10319TIP3    H252373   3.687   2.348  11.733 -0.0466 -0.6994  0.3239
10320TIP3   OH252374   6.236   0.731  12.158  0.0003  0.3347 -0.7543
10320TIP3    H152375   6.323   0.693  12.141 -0.6185 -2.4460  1.5573
10320TIP3    H252376   6.255   0.814  12.203  1.5140 -0.4102  0.0869
10321TIP3   OH252377   2.048   2.945  11.847 -0.6687  0.0065  0.3952
10321TIP3    H152378   2.041   2.887  11.924 -2.4059  0.8660  0.9122
10321TIP3    H252379   2.137   2.929  11.814 -0.7903 -2.3257  1.0149
10322TIP3   OH252380   1.537   3.740   2.819  0.2394  0.4446 -0.0536
10322TIP3    H152381   1.519   3.771   2.908 -1.0417 -3.2255  1.1941
10322TIP3    H252382   1.606   3.675   2.831  0.2046  0.0651 -1.7788
10323TIP3   OH252383   0.631   3.356  14.195  0.0986 -0.1243 -0.0919
10323TIP3    H152384   0.565   3.383  14.131 -0.4670 -0.3592  0.3823
10323TIP3    H252385   0.629   3.425  14.262  1.7900  0.9541 -1.0631
10324TIP3   OH252386   1.641   1.532   4.439  0.6290 -0.0112 -0.6495
10324TIP3    H152387   1.564   1.555   4.389  1.4875 -0.4916 -2.2742
10324TIP3    H252388   1.615   1.453   4.487  0.5372 -1.1469 -2.4406
10325TIP3   OH252389   6.711   6.703   1.387  0.6256 -0.0019 -0.4392
10325TIP3    H152390   6.806   6.701   1.396  0.6879  2.8930  0.5378
10325TIP3    H252391   6.696   6.750   1.305  0.0965  1.3463  0.3983
10326TIP3   OH252392   0.862   2.971  11.432  0.3755 -0.0108 -0.3057
10326TIP3    H152393   0.817   3.055  11.442  0.3624 -0.0243 -0.2480
10326TIP3    H252394   0.853   2.950  11.339  0.5820  0.1645 -0.3670
10327TIP3   OH252395   5.023   0.521   3.441 -0.5326 -0.4372 -0.5383
10327TIP3    H152396   5.119   0.527   3.439 -0.1736 -1.1305  4.0716
10327TIP3    H252397   4.994   0.609   3.466 -0.6916 -1.0454  1.6184
10328TIP3   OH252398   0.002   6.311  13.075  0.3640 -0.3400 -0.4340
10328TIP3    H152399  -0.004   6.227  13.029 -0.6740 -0.1521 -0.6813
10328TIP3    H252400   0.080   6.303  13.130  1.7534 -0.5257 -2.3116
10329TIP3   OH252401   1.733   3.768  15.272  0.3757 -0.2273 -0.3377
10329TIP3    H152402   1.663   3.828  15.246  0.1061  0.0253  0.9067
10329TIP3    H252403   1.742   3.709  15.197 -1.5904 -0.6497 -0.3109
10330TIP3   OH252404   2.504   0.349  14.968 -0.2137  0.4323  0.2339
10330TIP3    H152405   2.509   0.423  14.907 -3.5429  0.8560  0.3083
10330TIP3    H252406   2.456   0.382  15.043 -0.5724 -1.4414  0.8884
10331TIP3   OH252407   3.039   3.194  10.830 -0.2575 -0.1724  0.1059
10331TIP3    H152408   3.042   3.261  10.899 -0.1420 -1.5757  1.5117
10331TIP3    H252409   3.129   3.192  10.796  0.0991 -0.5621  1.0276
10332TIP3   OH252410   4.887   3.949  16.979  0.5218  0.0323 -0.1141
10332TIP3    H152411   4.875   3.891  16.904  0.5764 -0.0978 -0.0236
10332TIP3    H252412   4.889   4.037  16.941 -0.9219  0.0869 -0.1115
10333TIP3   OH252413   5.680   1.577  14.008 -0.1525 -0.4290 -0.1774
10333TIP3    H152414   5.587   1.595  14.020 -0.2988 -1.1936 -0.1000
10333TIP3    H252415   5.701   1.613  13.922 -0.5629 -0.4167 -0.2749
10334TIP3   OH252416   5.841   5.924  11.726  0.2510  0.1574 -0.1100
10334TIP3    H152417   5.816   5.989  11.792 -0.5177 -0.9434  0.7272
10334TIP3    H252418   5.936   5.930  11.721  0.2640  0.6971  0.6334
10335TIP3   OH252419   3.068   3.823   5.461  0.4391  0.6952 -0.2528
10335TIP3    H152420   3.006   3.874   5.513 -1.3614  0.3843 -2.0086
10335TIP3    H252421   3.128   3.889   5.424  0.7519  1.0663  0.8717
10336TIP3   OH252422   6.717   6.713   3.260 -0.3122  0.1866 -0.3949
10336TIP3    H152423   6.670   6.786   3.301  1.0852  0.8529  0.1105
10336TIP3    H252424   6.688   6.714   3.169 -0.0611  1.6290 -0.4905
10337TIP3   OH252425   6.028   3.841  12.919 -0.0898  0.0008  0.1965
10337TIP3    H152426   5.993   3.927  12.940  1.1387  0.6599 -0.3318
10337TIP3    H252427   6.111   3.859  12.874 -0.3003 -1.4317 -0.8437
10338TIP3   OH252428   1.086   1.676   4.604 -0.2482  0.1026  0.0795
10338TIP3    H152429   1.078   1.769   4.625 -1.9745 -0.2594  1.2324
10338TIP3    H252430   1.102   1.633   4.688  0.5672 -0.6532 -0.4417
10339TIP3   OH252431   5.379   0.592  11.417 -0.1141  0.0422  0.4575
10339TIP3    H152432   5.295   0.548  11.431 -0.2779  0.1485 -0.1524
10339TIP3    H252433   5.444   0.527  11.442 -0.3482 -0.6457 -0.6193
10340TIP3   OH252434   3.902   4.650  11.357  0.6949 -0.1499  0.0070
10340TIP3    H152435   3.952   4.569  11.369  0.0171 -0.7399 -1.0510
10340TIP3    H252436   3.920   4.676  11.267 -0.9274 -0.3941 -0.4153
10341TIP3   OH252437   1.265   4.781  14.468  0.1730 -0.3316 -0.1050
10341TIP3    H152438   1.333   4.781  14.401  1.2612 -1.7925  0.9237
10341TIP3    H252439   1.301   4.727  14.539 -1.3074  0.3843  1.2657
10342TIP3   OH252440   6.469   3.609   3.228  0.6988  0.3694  0.1108
10342TIP3    H152441   6.552   3.618   3.182  0.2624  0.5040 -0.6621
10342TIP3    H252442   6.449   3.697   3.259  1.7407  0.0159  1.9118
10343TIP3   OH252443   1.829   4.697  16.577  0.2337 -0.3555  0.2137
10343TIP3    H152444   1.753   4.651  16.541  0.0609  0.9837 -1.2681
10343TIP3    H252445   1.798   4.786  16.591  0.8042 -0.4209  2.1961
10344TIP3   OH252446   5.526   6.338   5.663  0.0903 -0.0121 -0.4351
10344TIP3    H152447   5.500   6.256   5.703 -1.8469  0.8994  0.3010
10344TIP3    H252448   5.614   6.322   5.629  0.8573 -1.5474  2.0494
10345TIP3   OH252449   1.133   4.287  11.944 -0.0966  0.0921 -0.1429
10345TIP3    H152450   1.197   4.339  11.993  0.3081 -0.6940  0.1758
10345TIP3    H252451   1.108   4.217  12.004  1.7483 -1.9692 -1.6094
10346TIP3   OH252452   1.773   4.190  16.216  0.2489 -0.1753 -0.0205
10346TIP3    H152453   1.852   4.139  16.197 -0.2019 -0.9199  0.0702
10346TIP3    H252454   1.744   4.221  16.131  0.5921  0.0302 -0.0658
10347TIP3   OH252455   1.396   1.040   3.586  0.1688 -0.5267  0.3043
10347TIP3    H152456   1.413   1.100   3.513 -1.9933 -0.8263 -0.4994
10347TIP3    H252457   1.482   1.030   3.628  0.7359  2.7867  0.2624
10348TIP3   OH252458   6.274   2.444   0.163 -0.4531 -0.0666 -0.4404
10348TIP3    H152459   6.222   2.388   0.220  0.5281  0.0017  0.5394
10348TIP3    H252460   6.279   2.528   0.208 -0.7270  0.3849 -1.2288
10349TIP3   OH252461   5.111   4.124   1.189  0.0951  0.2088 -0.1844
10349TIP3    H152462   5.027   4.107   1.232 -0.3108  0.7541 -0.7336
10349TIP3    H252463   5.114   4.219   1.180  0.7257  0.1846 -0.2698
10350TIP3   OH252464   2.463   0.017   0.000 -0.3162  0.0464  0.2584
10350TIP3    H152465   2.459  -0.051  -0.067 -0.2197 -0.5003  0.7997
10350TIP3    H252466   2.408   0.088  -0.034  0.4392  0.1448 -0.7988
10351TIP3   OH252467   4.163   2.318   5.198 -0.4194 -0.0185 -0.5116
10351TIP3    H152468   4.142   2.224   5.204  0.8098 -0.2753  0.2116
10351TIP3    H252469   4.200   2.328   5.111 -0.3632 -0.2570 -0.5173
10352TIP3   OH252470   1.514   0.119  17.312  0.3784 -0.7061  0.5873
10352TIP3    H152471   1.555   0.190  17.262 -0.6946  0.7148  1.6482
10352TIP3    H252472   1.446   0.085  17.254 -0.7504  0.8224  0.9400
10353TIP3   OH252473   4.468   2.023  17.145 -0.3614 -0.3151 -0.3218
10353TIP3    H152474   4.396   2.015  17.208 -0.0911 -0.1270  0.0167
10353TIP3    H252475   4.463   1.944  17.093  0.8561 -1.6739  1.4795
10354TIP3   OH252476   3.383   3.696   6.634 -0.0006 -0.3612  0.1468
10354TIP3    H152477   3.421   3.759   6.572 -1.4437  0.9734  0.5524
10354TIP3    H252478   3.458   3.646   6.667  1.4429  2.2267  1.0302
10355TIP3   OH252479   2.315   3.588   2.558  0.2617 -0.3882 -0.3237
10355TIP3    H152480   2.305   3.629   2.645  0.8507  1.7299 -1.1880
10355TIP3    H252481   2.252   3.635   2.503  0.0787 -1.5421 -1.1188
10356TIP3   OH252482   2.486   2.000   2.818 -0.4068 -0.1874  0.2914
10356TIP3    H152483   2.457   2.088   2.794 -0.0892  0.0907  0.8908
10356TIP3    H252484   2.581   2.008   2.829 -0.5335 -0.2704  1.6418
10357TIP3   OH252485   1.073   1.610   4.114 -0.1222  0.0794  0.3084
10357TIP3    H152486   1.056   1.548   4.042  1.8921  0.0279 -0.1799
10357TIP3    H252487   0.986   1.637   4.142 -1.0421 -1.9067 -0.3946
10358TIP3   OH252488   3.762   3.850  15.038 -0.7050 -0.4636 -0.2545
10358TIP3    H152489   3.764   3.779  15.102 -1.0515 -0.5512 -0.3362
10358TIP3    H252490   3.788   3.928  15.087 -1.2194 -0.4832  0.0589
10359TIP3   OH252491   0.491   1.549   2.831 -0.1417  0.0495 -0.2574
10359TIP3    H152492   0.526   1.628   2.872  0.1795 -0.3742  0.3073
10359TIP3    H252493   0.541   1.477   2.872 -1.1373 -0.5160 -0.0050
10360TIP3   OH252494   6.312   1.488  14.736 -0.3378 -0.1163  0.7825
10360TIP3    H152495   6.307   1.466  14.643 -2.5504  1.2319  0.5147
10360TIP3    H252496   6.330   1.404  14.779  2.1188 -0.5641 -0.8703
10361TIP3   OH252497   5.336   4.880   0.768  0.4815  0.1922  0.0015
10361TIP3    H152498   5.404   4.860   0.832 -0.0058 -0.2864  0.3831
10361TIP3    H252499   5.331   4.802   0.713 -0.4638 -0.1964  0.6178
10362TIP3   OH252500   4.705   4.591  13.168  0.4333  0.1725 -0.3641
10362TIP3    H152501   4.756   4.569  13.089  1.9675  0.8878  0.3774
10362TIP3    H252502   4.663   4.509  13.193  0.5430 -0.2442 -1.4994
10363TIP3   OH252503   6.645   4.201  13.900 -0.0419  0.0145 -0.0859
10363TIP3    H152504   6.620   4.278  13.849  1.1176 -1.0727 -2.4485
10363TIP3    H252505   6.688   4.143  13.837  1.5429 -1.4336  2.1673
10364TIP3   OH252506   5.938   4.355   5.612  0.5863 -0.3946  0.5301
10364TIP3    H152507   6.027   4.342   5.645  0.7432  1.7150  1.1069
10364TIP3    H252508   5.950   4.410   5.534 -0.2653  1.5847  1.7070
10365TIP3   OH252509   3.061   6.089  15.930  0.5135  0.0294 -0.4889
10365TIP3    H152510   3.087   6.170  15.974  1.3210 -0.3931 -0.1558
10365TIP3    H252511   2.994   6.116  15.867 -0.5076  0.6839  0.8280
10366TIP3   OH252512   5.173   5.910  11.641  0.1889 -0.0921 -1.0260
10366TIP3    H152513   5.260   5.871  11.635 -0.3647 -1.4497 -0.6736
10366TIP3    H252514   5.143   5.889  11.730 -0.9685 -0.7538 -1.5340
10367TIP3   OH252515   3.713   6.238  11.810 -0.2629  0.0410 -0.2564
10367TIP3    H152516   3.668   6.322  11.801 -1.0917 -0.1564  1.4627
10367TIP3    H252517   3.643   6.175  11.829  0.6654 -0.2591  2.6541
10368TIP3   OH252518   4.159   5.173  14.299 -0.2811 -0.3044 -0.1723
10368TIP3    H152519   4.148   5.098  14.357  0.1331 -0.3610 -0.1588
10368TIP3    H252520   4.207   5.237  14.352  0.0771 -0.3479 -0.4370
10369TIP3   OH252521   0.692   3.719  11.352  0.3997 -0.5533 -0.0276
10369TIP3    H152522   0.736   3.800  11.379 -2.0124  0.1795  2.0438
10369TIP3    H252523   0.620   3.749  11.296 -1.1985 -1.0898  1.6533
10370TIP3   OH252524   4.376   1.676  10.777 -0.3695  0.0349  0.3331
10370TIP3    H152525   4.286   1.645  10.763 -0.3466  0.3967 -0.7476
10370TIP3    H252526   4.431   1.599  10.760 -0.4286  0.0675 -0.0163
10371TIP3   OH252527   1.847   6.334  13.762 -0.2914  0.0720  0.5829
10371TIP3    H152528   1.810   6.421  13.745 -1.2719 -0.5392 -0.5530
10371TIP3    H252529   1.819   6.281  13.687 -0.5850 -1.4931  1.7518
10372TIP3   OH252530   3.656   2.453   1.859  0.3099  0.2263  0.2983
10372TIP3    H152531   3.716   2.487   1.793 -2.0945 -0.4044 -2.4384
10372TIP3    H252532   3.568   2.476   1.827 -1.1407 -2.7819  1.6109
10373TIP3   OH252533   2.166   0.527  15.622  0.2268  0.2593  1.0684
10373TIP3    H152534   2.172   0.521  15.526  0.5894 -0.4444  1.1277
10373TIP3    H252535   2.212   0.609  15.643 -0.9098  1.0548  0.5568
10374TIP3   OH252536   2.014   3.312  13.101  0.1339 -0.0164  0.0117
10374TIP3    H152537   2.083   3.368  13.137  0.5523  0.9822 -2.2162
10374TIP3    H252538   1.938   3.370  13.091 -0.1266 -0.4014 -0.2899
10375TIP3   OH252539   1.247   6.128   0.451  0.2694 -0.1963 -0.7164
10375TIP3    H152540   1.310   6.157   0.517 -0.4104  1.9598 -0.9218
10375TIP3    H252541   1.163   6.161   0.483 -0.2811 -0.3602 -1.9486
10376TIP3   OH252542   3.338   4.737  11.758  0.1835  0.0461 -0.3267
10376TIP3    H152543   3.257   4.691  11.740 -0.5890  0.2923  2.1233
10376TIP3    H252544   3.353   4.791  11.681 -1.3572 -0.8439 -1.2990
10377TIP3   OH252545   4.980   6.756  13.826  0.6051 -0.6600 -0.2055
10377TIP3    H152546   4.923   6.797  13.892  1.9423  0.3479  0.3904
10377TIP3    H252547   4.985   6.664  13.853  1.5300 -0.1738  1.4594
10378TIP3   OH252548   1.597   6.229  15.282  0.5004 -0.1435  0.0453
10378TIP3    H152549   1.519   6.263  15.324  1.3172  0.5987  0.9989
10378TIP3    H252550   1.564   6.181  15.206 -0.7620  1.8385 -0.7353
10379TIP3   OH252551   3.460   3.650  14.477  0.4550  0.4353 -0.9510
10379TIP3    H152552   3.473   3.725  14.418  1.5667  0.3826 -0.8006
10379TIP3    H252553   3.549   3.622  14.499  0.0697  0.2799  0.5288
10380TIP3   OH252554   3.869   0.589   2.143 -0.1993  0.5148  0.2481
10380TIP3    H152555   3.963   0.574   2.136 -0.2279  0.0820  0.7795
10380TIP3    H252556   3.836   0.516   2.195 -0.6292  1.3720  1.2091
10381TIP3   OH252557   6.010   1.337   6.154 -0.2816  0.3677 -0.0735
10381TIP3    H152558   6.002   1.393   6.231  0.9992  0.8138 -0.2435
10381TIP3    H252559   5.969   1.387   6.083 -1.1705  0.0949  0.2284
10382TIP3   OH252560   0.883   0.291  16.749 -0.7704  0.4136 -0.1385
10382TIP3    H152561   0.885   0.202  16.784 -0.9730  0.3655 -0.2507
10382TIP3    H252562   0.797   0.299  16.708 -1.4001  1.1934  1.2609
10383TIP3   OH252563   1.064   6.520   2.742 -0.2112  0.0279  0.4872
10383TIP3    H152564   1.129   6.535   2.674 -1.0772  1.2993 -0.1187
10383TIP3    H252565   1.094   6.442   2.788  0.3067 -0.9797 -1.4598
10384TIP3   OH252566   3.881   6.311  12.477  0.0218  0.1051 -0.1808
10384TIP3    H152567   3.891   6.305  12.382  2.8944 -1.6244  0.0853
10384TIP3    H252568   3.835   6.231  12.502 -2.9509  1.6926 -0.2205
10385TIP3   OH252569   5.871   3.678   4.485 -0.2265  0.1365 -0.6215
10385TIP3    H152570   5.944   3.678   4.423  0.3933 -1.9194  0.0431
10385TIP3    H252571   5.882   3.760   4.533  0.2930  0.9368 -2.0374
10386TIP3   OH252572   4.029   4.221   1.214  0.1570 -0.2908  0.2947
10386TIP3    H152573   4.026   4.257   1.125 -0.6205 -0.6379  0.1719
10386TIP3    H252574   3.971   4.145   1.211 -1.6432  0.9450  1.6315
10387TIP3   OH252575   6.373   0.776  11.110 -0.1500  0.0042 -0.1772
10387TIP3    H152576   6.367   0.681  11.118 -0.7956 -0.1189 -1.6649
10387TIP3    H252577   6.449   0.790  11.054  1.8040  0.5659  2.4543
10388TIP3   OH252578   3.829   1.513  13.325 -0.6902  0.0159 -0.0871
10388TIP3    H152579   3.883   1.591  13.321  0.5271 -0.8461 -1.4474
10388TIP3    H252580   3.886   1.445  13.362 -1.7499 -0.2545  1.1748
10389TIP3   OH252581   4.340   5.518   5.935  0.1984 -0.8748 -0.4793
10389TIP3    H152582   4.431   5.505   5.961  0.4987 -0.1152 -1.1345
10389TIP3    H252583   4.339   5.498   5.842  0.5021  2.7068 -1.3632
10390TIP3   OH252584   3.876   3.342   3.697  0.2494  0.2137 -0.4770
10390TIP3    H152585   3.951   3.343   3.638  0.0905  2.0446 -0.6991
10390TIP3    H252586   3.913   3.356   3.784  0.3928 -1.5637 -0.2220
10391TIP3   OH252587   2.373   3.352  15.325  0.3776  0.2111 -0.0751
10391TIP3    H152588   2.285   3.354  15.290 -0.0023  0.6828  0.8708
10391TIP3    H252589   2.387   3.439  15.361  2.0328  0.8686 -2.0840
10392TIP3   OH252590   5.815   4.859   1.008  0.1713 -0.3269  0.7590
10392TIP3    H152591   5.810   4.764   1.012 -1.3427 -0.5636 -2.7647
10392TIP3    H252592   5.849   4.878   0.921 -1.5161  2.3371  0.5541
10393TIP3   OH252593   4.429   3.402  15.779 -0.1951  0.5271  0.0765
10393TIP3    H152594   4.435   3.370  15.690 -0.8286  0.8576 -0.0924
10393TIP3    H252595   4.507   3.368  15.823 -0.7792 -1.1382 -0.1095
10394TIP3   OH252596   4.253   1.825   4.700  0.0585 -0.4753  0.1848
10394TIP3    H152597   4.241   1.765   4.773 -0.0197  0.3744  0.8764
10394TIP3    H252598   4.274   1.909   4.740  0.1039 -0.0160 -0.7678
10395TIP3   OH252599   2.812   1.471   1.244 -0.6569  0.7037 -0.7056
10395TIP3    H152600   2.879   1.527   1.283 -0.8831 -1.1757  2.8401
10395TIP3    H252601   2.732   1.524   1.244 -0.0982  1.5537 -0.8307
10396TIP3   OH252602   4.321   3.928   0.204 -0.0194 -0.5550 -0.9571
10396TIP3    H152603   4.291   3.876   0.279  1.4111 -0.0739 -0.0296
10396TIP3    H252604   4.303   3.872   0.128  0.6904 -2.0523 -0.0597
10397TIP3   OH252605   2.947   3.267   0.324 -0.4201 -0.4816  0.0691
10397TIP3    H152606   2.932   3.173   0.321 -1.1154 -0.3834  0.3801
10397TIP3    H252607   2.861   3.305   0.339  0.0868  0.0980  1.7432
10398TIP3   OH252608   0.548   2.332  12.419 -0.4996  0.0050  0.0999
10398TIP3    H152609   0.478   2.266  12.422  0.6365 -1.2110  0.6344
10398TIP3    H252610   0.605   2.303  12.348  0.5656 -0.1935  1.0073
10399TIP3   OH252611   1.102   0.612   3.710 -0.1019  0.0867 -0.1086
10399TIP3    H152612   1.114   0.612   3.615  0.2540  0.7886 -0.0738
10399TIP3    H252613   1.189   0.631   3.746  0.0020 -1.2306  0.4124
10400TIP3   OH252614   0.758   4.104   2.503  0.2381 -0.0761  0.0812
10400TIP3    H152615   0.742   4.010   2.508  0.1227 -0.0829 -0.3537
10400TIP3    H252616   0.704   4.133   2.429  0.3021  0.3225  0.1921
10401TIP3   OH252617   0.467   5.626  16.742  0.1276  0.5977 -0.6020
10401TIP3    H152618   0.471   5.709  16.789  0.3002  0.5628 -0.5531
10401TIP3    H252619   0.408   5.572  16.794 -0.8326  1.0443 -1.1947
10402TIP3   OH252620   3.862   4.709   1.462 -0.3139 -0.5147  0.5312
10402TIP3    H152621   3.799   4.654   1.416 -1.6420  1.6074 -0.3267
10402TIP3    H252622   3.948   4.675   1.436 -1.0510 -0.5193 -2.1667
10403TIP3   OH252623   0.486   3.155  14.330  0.1920 -0.7560 -0.0852
10403TIP3    H152624   0.539   3.212  14.274 -0.3752  1.2810  1.3737
10403TIP3    H252625   0.527   3.069  14.321  2.5247  0.3314 -0.5468
10404TIP3   OH252626   3.178   3.116  11.729  0.5413 -0.3801 -0.6504
10404TIP3    H152627   3.156   3.056  11.800 -0.9321 -0.0545 -0.8106
10404TIP3    H252628   3.100   3.171  11.718  0.8684 -0.1977 -2.2871
10405TIP3   OH252629   2.244   5.080   2.806  0.1657 -0.3392  0.1907
10405TIP3    H152630   2.267   5.155   2.861  0.0674  0.4019 -0.7529
10405TIP3    H252631   2.220   5.119   2.721 -0.9592 -1.3600  0.0185
10406TIP3   OH252632   3.573   1.093   5.312  0.1006 -0.3582  0.3013
10406TIP3    H152633   3.517   1.167   5.291  1.5250  0.8792  0.7043
10406TIP3    H252634   3.607   1.112   5.399  2.0059 -0.4775 -0.3499
10407TIP3   OH252635   2.684   3.019   1.104  0.1936  0.6830  0.4234
10407TIP3    H152636   2.689   2.985   1.015  0.1060 -0.9378  1.0100
10407TIP3    H252637   2.772   3.005   1.140  0.7084  2.7936  0.1256
10408TIP3   OH252638   5.666   6.166  11.745  0.0907 -0.0166  0.6061
10408TIP3    H152639   5.725   6.229  11.704  1.6221 -1.6464  0.1426
10408TIP3    H252640   5.578   6.197  11.723  0.7996  1.4409 -0.3372
10409TIP3   OH252641   5.959   2.540   6.450 -0.1181  0.2068 -0.6979
10409TIP3    H152642   6.014   2.595   6.506 -0.4318 -0.4370  0.2730
10409TIP3    H252643   5.910   2.602   6.397  1.7297  0.8056 -1.8145
10410TIP3   OH252644   4.381   2.043   5.998 -0.2333 -0.3095 -0.3247
10410TIP3    H152645   4.441   2.093   6.053 -0.0911 -0.1717 -0.6033
10410TIP3    H252646   4.395   1.952   6.025 -1.6216 -0.0933  1.3019
10411TIP3   OH252647   0.669   6.517  14.528  0.2813  0.5272 -0.2670
10411TIP3    H152648   0.745   6.574  14.532  0.3899  0.4641 -1.2521
10411TIP3    H252649   0.642   6.507  14.619 -0.3078  2.8899 -0.1214
10412TIP3   OH252650   4.337   2.919   6.392  0.2544 -0.2873 -0.0484
10412TIP3    H152651   4.372   3.007   6.384 -0.7027  0.2339  1.2467
10412TIP3    H252652   4.381   2.882   6.469  1.8324 -1.5496 -1.4774
10413TIP3   OH252653   3.527   2.775   4.271  0.5387 -0.2212  0.5113
10413TIP3    H152654   3.534   2.758   4.364  1.4864 -0.7516  0.3460
10413TIP3    H252655   3.568   2.700   4.228  1.8978  0.9231 -0.2837
10414TIP3   OH252656   2.484   2.331   1.341  0.2067 -0.4213  0.1292
10414TIP3    H152657   2.530   2.250   1.319 -0.0278 -0.4640 -0.2148
10414TIP3    H252658   2.506   2.348   1.433 -0.4801 -1.3802  0.4906
10415TIP3   OH252659   5.342   5.606   5.805  0.0216  0.3966  0.0871
10415TIP3    H152660   5.310   5.653   5.882  1.2803 -1.7175  1.9958
10415TIP3    H252661   5.314   5.516   5.817  2.4173 -0.5382 -0.5833
10416TIP3   OH252662   1.150   6.460   3.660  0.6273 -0.5556 -0.3895
10416TIP3    H152663   1.208   6.482   3.588 -0.7388 -0.8055 -1.6223
10416TIP3    H252664   1.166   6.367   3.676 -0.3147 -0.9703 -1.6326
10417TIP3   OH252665   3.848   2.353  13.706  0.1538  0.2221 -0.0568
10417TIP3    H152666   3.897   2.364  13.787  3.3507 -0.6385 -1.7122
10417TIP3    H252667   3.893   2.409  13.642 -1.8472  0.3840 -1.4310
10418TIP3   OH252668   5.525   5.137  11.666  0.0161  0.1439 -0.4115
10418TIP3    H152669   5.533   5.099  11.578  0.4176  1.1678 -0.8305
10418TIP3    H252670   5.497   5.227  11.651 -1.7992 -0.2125  0.6091
10419TIP3   OH252671   1.880   5.440  13.502 -0.1625 -0.0785 -1.0038
10419TIP3    H152672   1.790   5.414  13.522 -0.6352  0.8130 -1.8693
10419TIP3    H252673   1.931   5.410  13.577 -1.0264 -1.4119 -0.9166
10420TIP3   OH252674   5.363   5.475   4.133  0.2596  0.1631  0.3397
10420TIP3    H152675   5.370   5.487   4.227  0.7231 -0.6929  0.4251
10420TIP3    H252676   5.447   5.436   4.108 -0.1281 -0.2615 -0.3196
10421TIP3   OH252677   3.152   2.698  15.458 -0.1809  0.1743  0.0521
10421TIP3    H152678   3.210   2.627  15.431 -1.5449 -1.0338  0.1649
10421TIP3    H252679   3.190   2.777  15.419  0.2332 -0.8972 -1.8353
10422TIP3   OH252680   6.081   6.635   3.254 -0.2088 -0.8757  0.3541
10422TIP3    H152681   6.136   6.621   3.177 -0.0237 -0.4966  0.4151
10422TIP3    H252682   6.143   6.634   3.327 -0.3753 -1.1669  0.4907
10423TIP3   OH252683   4.707   0.922  16.773 -0.2950  0.4692 -0.3189
10423TIP3    H152684   4.716   0.929  16.868  0.9256  1.9658 -0.4890
10423TIP3    H252685   4.615   0.945  16.756 -0.7684 -0.6785  0.5273
10424TIP3   OH252686   2.605   4.152  14.020 -0.2655 -0.3812  0.1138
10424TIP3    H152687   2.600   4.178  14.112 -3.3420 -0.2783  0.0239
10424TIP3    H252688   2.605   4.056  14.022 -0.8854 -0.3786  0.2055
10425TIP3   OH252689   2.391   2.062   0.615 -0.0683 -0.3065 -0.4116
10425TIP3    H152690   2.305   2.025   0.635 -0.6066  1.0470 -0.0940
10425TIP3    H252691   2.451   1.987   0.614 -0.6470 -0.9047  2.6334
10426TIP3   OH252692   3.139   4.340  14.523  0.3124 -0.0450 -0.4753
10426TIP3    H152693   3.062   4.292  14.555 -0.3011  0.1138 -1.6888
10426TIP3    H252694   3.106   4.398  14.455  1.0977  1.8704  0.6656
10427TIP3   OH252695   2.989   6.757   0.504 -0.2884  0.9338 -0.7044
10427TIP3    H152696   3.049   6.696   0.546 -1.0309  0.8369  0.2588
10427TIP3    H252697   2.901   6.725   0.528 -0.7001  1.7362 -1.0992
10428TIP3   OH252698   5.514   0.138   0.587 -0.2008 -0.2867  0.2357
10428TIP3    H152699   5.536   0.090   0.506  1.1313 -1.1000  1.0425
10428TIP3    H252700   5.468   0.216   0.556 -0.8508 -1.2019 -1.2368
10429TIP3   OH252701   2.334   5.311   2.944 -0.6682 -0.2074 -0.6273
10429TIP3    H152702   2.328   5.403   2.917  1.4174 -0.2484 -1.4402
10429TIP3    H252703   2.399   5.311   3.014 -0.9579 -1.0141 -0.3515
10430TIP3   OH252704   1.098   3.428   5.910 -0.4961 -0.0027 -0.4562
10430TIP3    H152705   1.012   3.447   5.947 -0.4327  0.0949 -0.3594
10430TIP3    H252706   1.128   3.351   5.958  0.4435  1.2668  1.1030
10431TIP3   OH252707   2.812   0.006   4.416  0.8335  0.1916  0.5184
10431TIP3    H152708   2.777  -0.079   4.443 -2.6678  1.3164  0.0671
10431TIP3    H252709   2.828   0.053   4.498 -1.3367  0.5061  0.8334
10432TIP3   OH252710   0.451   3.471   2.596  0.4016 -0.2247 -0.6833
10432TIP3    H152711   0.496   3.449   2.678  2.0834 -0.5006 -1.6287
10432TIP3    H252712   0.364   3.501   2.624  1.9575  2.8050  1.4639
10433TIP3   OH252713   4.870   1.079   3.715  0.6121  0.0250 -0.3765
10433TIP3    H152714   4.822   0.997   3.704 -0.1574  0.2704  1.0279
10433TIP3    H252715   4.923   1.085   3.635  0.0057 -1.3694 -0.9325
10434TIP3   OH252716   1.074   6.150  15.617 -0.1273 -0.1440 -0.0334
10434TIP3    H152717   1.006   6.147  15.550  0.7214 -1.4254 -0.8901
10434TIP3    H252718   1.149   6.106  15.577  0.5859 -0.4518  1.5644
10435TIP3   OH252719   2.763   6.600  15.479  0.1244 -0.4680 -0.1859
10435TIP3    H152720   2.827   6.614  15.409  0.3909 -1.7658 -0.2270
10435TIP3    H252721   2.680   6.588  15.432  0.6780 -3.9063 -0.5765
10436TIP3   OH252722   4.669   3.748  14.074  0.0451  0.1108  0.0240
10436TIP3    H152723   4.747   3.718  14.122 -0.8206 -1.9203  0.2573
10436TIP3    H252724   4.595   3.709  14.120 -0.9045 -0.9873 -2.2341
10437TIP3   OH252725   5.634   4.704  13.553 -0.3759 -0.2945 -0.0118
10437TIP3    H152726   5.550   4.681  13.591 -1.1043 -0.2129 -1.5026
10437TIP3    H252727   5.681   4.749  13.623 -1.4401 -0.6315  0.9365
10438TIP3   OH252728   1.925   0.795   5.279  0.0837 -0.4380  0.2637
10438TIP3    H152729   1.996   0.808   5.216  0.4025  1.0042  0.8662
10438TIP3    H252730   1.946   0.713   5.323  1.7465  0.2281  0.8366
10439TIP3   OH252731   6.065   2.158   2.654  0.4819  0.4123 -0.3276
10439TIP3    H152732   6.019   2.177   2.736 -0.5541  2.8883 -1.3532
10439TIP3    H252733   6.156   2.180   2.672  0.5788 -0.6850  0.6107
10440TIP3   OH252734   4.717   0.578  13.026 -0.3967 -0.3424  0.1697
10440TIP3    H152735   4.646   0.635  12.997 -0.6483 -0.8293 -0.1690
10440TIP3    H252736   4.711   0.579  13.122 -0.4693  0.1023  0.1640
10441TIP3   OH252737   1.071   3.815   4.211 -0.2051 -0.7901  0.3309
10441TIP3    H152738   1.114   3.737   4.175  0.7300 -0.6137  1.0197
10441TIP3    H252739   1.138   3.855   4.267 -0.6527  0.5655 -0.0858
10442TIP3   OH252740   3.431   5.958   1.962  0.0886  0.3215  0.0093
10442TIP3    H152741   3.435   5.881   1.905  0.7150  1.4701 -1.5435
10442TIP3    H252742   3.494   6.019   1.925  1.6802  0.5684  2.8272
10443TIP3   OH252743   6.331   6.421   4.871 -0.4114 -0.3318 -0.0267
10443TIP3    H152744   6.297   6.385   4.953  0.3580  3.9655  2.5044
10443TIP3    H252745   6.253   6.443   4.820 -1.0191 -0.6165  0.7593
10444TIP3   OH252746   6.426   3.878  15.595  0.1865 -0.2894 -0.0031
10444TIP3    H152747   6.437   3.881  15.500 -0.9460 -1.9645 -0.2339
10444TIP3    H252748   6.355   3.939  15.613  0.4724  0.1112 -0.2016
10445TIP3   OH252749   3.530   1.826   5.726 -0.6659 -0.3598 -0.3652
10445TIP3    H152750   3.620   1.817   5.759 -1.0245 -0.2893  0.6647
10445TIP3    H252751   3.531   1.781   5.641  0.3140 -0.4548 -0.3134
10446TIP3   OH252752   0.990   5.717  10.775  0.1643  0.1947 -0.1178
10446TIP3    H152753   0.919   5.668  10.818  1.7591 -1.0148  1.2424
10446TIP3    H252754   0.969   5.809  10.791 -2.6046  0.0930 -2.2309
10447TIP3   OH252755   0.889   0.397  11.235  0.0589  0.1372 -0.1862
10447TIP3    H152756   0.811   0.365  11.190 -0.3173 -0.6896  0.9858
10447TIP3    H252757   0.959   0.340  11.204  0.5229  1.7283 -2.2682
10448TIP3   OH252758   3.264   2.235  13.811 -0.0538 -0.2934 -0.1182
10448TIP3    H152759   3.200   2.267  13.873  0.0317  0.8258 -0.5903
10448TIP3    H252760   3.299   2.155  13.852 -1.1266 -0.4579  0.5196
10449TIP3   OH252761   5.827   4.289  13.698  0.4707  0.2390  0.2290
10449TIP3    H152762   5.852   4.271  13.788 -1.0125  1.7635  0.9835
10449TIP3    H252763   5.761   4.222  13.678  0.7619 -0.0666  0.2734
10450TIP3   OH252764   5.615   0.996   0.855  0.4260  0.0688  0.4473
10450TIP3    H152765   5.560   0.986   0.777 -0.2352 -1.6956  1.0736
10450TIP3    H252766   5.555   1.028   0.922 -0.4513 -3.5024  1.6127
10451TIP3   OH252767   4.381   4.045  12.894 -1.0479  0.1506 -0.1754
10451TIP3    H152768   4.463   4.048  12.944  0.0504  0.2378 -1.9016
10451TIP3    H252769   4.400   4.094  12.814 -1.6440 -2.6754 -2.1993
10452TIP3   OH252770   4.343   3.972  15.868 -0.6468 -0.2240 -0.6061
10452TIP3    H152771   4.357   4.039  15.935  0.0080 -0.8110 -0.1369
10452TIP3    H252772   4.405   3.903  15.890 -0.7587 -0.6439 -1.5426
10453TIP3   OH252773   4.652   5.338  12.746  0.1770 -0.3206  0.4768
10453TIP3    H152774   4.667   5.249  12.777 -0.1205 -0.3056  0.6593
10453TIP3    H252775   4.638   5.328  12.652 -0.9155 -0.5847  0.6576
10454TIP3   OH252776   0.404   2.649  13.794 -0.2477 -0.2233  0.2295
10454TIP3    H152777   0.336   2.702  13.835  0.3257  0.9904 -0.3371
10454TIP3    H252778   0.359   2.568  13.769 -1.4903  0.5431 -0.1137
10455TIP3   OH252779   0.780   1.115   5.441 -0.2573 -0.0628  0.3040
10455TIP3    H152780   0.689   1.087   5.436 -0.6586  1.3174 -3.2540
10455TIP3    H252781   0.824   1.064   5.373  1.2895  0.4004  0.9227
10456TIP3   OH252782   4.154   2.834   2.655  0.1767 -0.1610  0.3728
10456TIP3    H152783   4.203   2.756   2.628  1.4765  0.9027 -0.5221
10456TIP3    H252784   4.221   2.896   2.682 -0.8388  0.6252  1.1793
10457TIP3   OH252785   4.768   1.318  16.384  0.3730  0.1039 -0.1305
10457TIP3    H152786   4.764   1.313  16.480 -2.6118 -3.3075 -0.1881
10457TIP3    H252787   4.685   1.357  16.358  0.6082 -0.1608 -1.3500
10458TIP3   OH252788   3.712   0.820  15.056 -0.2448 -0.5728  0.2220
10458TIP3    H152789   3.694   0.727  15.053 -1.7419 -0.2726 -0.9590
10458TIP3    H252790   3.627   0.862  15.048  0.3317  0.9092  1.3588
10459TIP3   OH252791   1.428   0.123   3.157 -0.6717  0.0466  0.4416
10459TIP3    H152792   1.420   0.041   3.107 -2.0808 -0.0051  0.7068
10459TIP3    H252793   1.520   0.147   3.149 -0.2690 -1.4759  0.2100
10460TIP3   OH252794   1.087   6.533  13.155 -0.0696 -0.3431 -0.4881
10460TIP3    H152795   1.134   6.541  13.238 -1.0209 -0.8092  0.1170
10460TIP3    H252796   1.039   6.615  13.145 -1.2507 -0.9049  0.2736
10461TIP3   OH252797   4.474   2.757  16.988 -0.4832 -0.0481  0.2788
10461TIP3    H152798   4.445   2.840  16.951 -0.6399 -0.2492 -0.0473
10461TIP3    H252799   4.412   2.692  16.954  0.6891 -0.5786 -0.9134
10462TIP3   OH252800   6.271   4.439  12.515  0.4142 -0.1374 -0.1480
10462TIP3    H152801   6.219   4.510  12.554  0.8375  0.2785 -0.3319
10462TIP3    H252802   6.305   4.391  12.591  1.4545  0.8304  0.0279
10463TIP3   OH252803   3.794   1.333  12.448  0.0085  0.1427  0.5955
10463TIP3    H152804   3.859   1.263  12.441 -0.5697 -0.3323 -0.1901
10463TIP3    H252805   3.769   1.334  12.540 -1.3908 -2.0026  0.2910
10464TIP3   OH252806   0.602   4.472  16.004  0.6666  0.2742 -1.0420
10464TIP3    H152807   0.579   4.508  15.919 -0.9243 -1.1212 -1.2520
10464TIP3    H252808   0.696   4.489  16.013  0.9019  0.2933 -3.1425
10465TIP3   OH252809   2.687   6.196  14.509  0.2736 -0.1273  0.6435
10465TIP3    H152810   2.673   6.145  14.589 -2.9637 -0.2562  0.1233
10465TIP3    H252811   2.635   6.275  14.521 -0.4165 -0.2183 -1.3419
10466TIP3   OH252812   0.349   0.106  12.233 -0.0987  0.0419  0.1320
10466TIP3    H152813   0.421   0.162  12.263  0.0414 -1.6454  3.3859
10466TIP3    H252814   0.385   0.062  12.156  0.7528  2.3247 -0.8655
10467TIP3   OH252815   3.755   3.430  11.442 -0.4229  0.0732  0.0699
10467TIP3    H152816   3.741   3.356  11.501 -0.1564  0.4743  0.6448
10467TIP3    H252817   3.844   3.459  11.460 -0.5754  0.6321 -0.0236
10468TIP3   OH252818   6.347   5.456  15.085  0.5937  0.1954  0.7613
10468TIP3    H152819   6.317   5.458  15.176 -0.8223 -0.6364  0.3327
10468TIP3    H252820   6.359   5.548  15.062 -1.6080  0.5812  0.9851
10469TIP3   OH252821   6.453   4.041  15.330  0.3390 -0.1687 -0.2578
10469TIP3    H152822   6.436   4.100  15.404 -1.9351  0.2810 -1.0580
10469TIP3    H252823   6.534   4.074  15.292 -0.9590  2.7555 -0.8368
10470TIP3   OH252824   1.471   3.350  14.794  0.3440  0.2580 -0.0080
10470TIP3    H152825   1.437   3.333  14.706 -0.9550 -1.2284  0.7394
10470TIP3    H252826   1.397   3.331  14.852  1.4255  0.4148  1.4677
10471TIP3   OH252827   6.193   1.850   2.039  0.0503  0.2691  0.2434
10471TIP3    H152828   6.195   1.868   1.945 -0.1478 -0.5972  0.0613
10471TIP3    H252829   6.108   1.806   2.053 -0.4613  1.4664  1.0349
10472TIP3   OH252830   2.125   2.847  14.829 -0.5290 -0.0187 -0.0883
10472TIP3    H152831   2.156   2.856  14.920  0.4727 -1.7025 -0.2274
10472TIP3    H252832   2.202   2.867  14.776 -0.5741 -0.9324 -0.5166
10473TIP3   OH252833   2.169   3.489   4.332  0.3941  0.1615 -0.5326
10473TIP3    H152834   2.200   3.410   4.289 -0.2386  0.0770 -0.8357
10473TIP3    H252835   2.145   3.548   4.261  0.8747  0.6418 -0.3114
10474TIP3   OH252836   0.821   4.262  15.195  0.1206 -0.1014 -0.0728
10474TIP3    H152837   0.875   4.327  15.240  2.2255 -1.5995 -0.2965
10474TIP3    H252838   0.794   4.304  15.114  3.1422 -0.0917 -1.1872
10475TIP3   OH252839   1.601   5.639   3.024 -0.0804 -0.4048 -0.7800
10475TIP3    H152840   1.686   5.636   2.980  0.9869  1.3540  0.9851
10475TIP3    H252841   1.584   5.733   3.034 -0.8980 -0.7415  1.3140
10476TIP3   OH252842   1.978   5.813  15.757  0.2020 -0.0922  0.5047
10476TIP3    H152843   2.061   5.774  15.786 -0.5831 -0.7853  1.9056
10476TIP3    H252844   1.939   5.848  15.837 -0.4959  0.9668 -0.2750
10477TIP3   OH252845   4.723   4.639   4.594  0.1723 -0.4152 -0.4227
10477TIP3    H152846   4.782   4.671   4.664  0.6166 -0.6580 -0.6797
10477TIP3    H252847   4.777   4.643   4.515 -0.1406 -0.7122 -0.6479
10478TIP3   OH252848   4.570   0.603   4.647  0.6711 -0.3252  0.5763
10478TIP3    H152849   4.618   0.678   4.682  1.8274 -0.2183 -1.1332
10478TIP3    H252850   4.563   0.542   4.721  1.9071  0.4165  1.3356
10479TIP3   OH252851   6.591   5.071  14.040 -0.4214 -0.4274  0.3226
10479TIP3    H152852   6.665   5.018  14.067 -1.0045 -1.0689  0.6833
10479TIP3    H252853   6.529   5.009  14.001  0.1220  0.3634 -1.9740
10480TIP3   OH252854   0.220   0.822   2.628  0.0485  0.2498  0.2881
10480TIP3    H152855   0.176   0.882   2.568  0.7749  0.3690 -0.1302
10480TIP3    H252856   0.204   0.858   2.715 -0.6215  0.3253  0.1379
10481TIP3   OH252857   1.132   0.457  14.139 -0.3695  0.0865  0.1557
10481TIP3    H152858   1.116   0.517  14.067  1.4633  1.4102  0.7751
10481TIP3    H252859   1.046   0.420  14.159 -1.6347  2.6192 -0.1688
10482TIP3   OH252860   3.518   4.209   6.161  0.3843  0.4241 -0.2841
10482TIP3    H152861   3.591   4.150   6.180  0.4116  0.3948 -0.4742
10482TIP3    H252862   3.559   4.290   6.131  0.3522  0.6392  0.2510
10483TIP3   OH252863   1.537   1.250   2.553  0.4847  0.0243 -0.2740
10483TIP3    H152864   1.575   1.316   2.610 -0.4973 -0.9009  1.5519
10483TIP3    H252865   1.452   1.285   2.528 -0.4852 -0.8895  1.5294
10484TIP3   OH252866   1.550   5.793  12.149  0.6655 -0.2113 -0.1971
10484TIP3    H152867   1.464   5.783  12.107  0.6115 -0.5843 -0.0040
10484TIP3    H252868   1.546   5.878  12.192 -0.2229 -0.9355  1.2147
10485TIP3   OH252869   3.259   5.703  15.137 -0.5674 -0.2035  0.2340
10485TIP3    H152870   3.167   5.702  15.109 -0.5793 -0.3526  0.2738
10485TIP3    H252871   3.259   5.654  15.219 -0.5011  0.0618  0.3932
10486TIP3   OH252872   4.285   6.552   2.492 -0.3545  0.3819  0.4539
10486TIP3    H152873   4.375   6.563   2.460  0.2198  0.7254  2.1265
10486TIP3    H252874   4.231   6.597   2.427  0.8676  2.0244  0.5069
10487TIP3   OH252875   6.091   0.150  15.226 -0.4630 -0.0557 -0.1516
10487TIP3    H152876   6.152   0.196  15.169  3.0261  1.7046  4.3359
10487TIP3    H252877   6.127   0.061  15.233 -2.4334 -1.1591 -2.4211
10488TIP3   OH252878   6.035   6.079   2.424 -0.1183  0.4168 -0.0198
10488TIP3    H152879   6.116   6.102   2.379  0.4953  0.3017  0.9999
10488TIP3    H252880   6.061   6.012   2.488 -1.0985  0.0542  0.0156
10489TIP3   OH252881   1.048   0.526  17.063  0.3773  0.0790 -0.1483
10489TIP3    H152882   1.113   0.596  17.060  2.5896 -1.8474 -0.5164
10489TIP3    H252883   1.029   0.507  16.971 -0.2611  0.2280 -0.0510
10490TIP3   OH252884   0.545   2.267   3.044 -0.2932 -0.1526 -0.3097
10490TIP3    H152885   0.491   2.337   3.007  0.1191  1.4313  1.8828
10490TIP3    H252886   0.633   2.305   3.051  0.2888 -1.4270 -0.4453
10491TIP3   OH252887   2.766   3.904  14.562 -0.1360  0.2249  0.1547
10491TIP3    H152888   2.729   3.973  14.617  1.3108  1.0008  0.1976
10491TIP3    H252889   2.803   3.841  14.624 -0.2115  0.1235  0.0976
10492TIP3   OH252890   3.746   3.093  13.156 -0.0440 -0.0112 -0.7218
10492TIP3    H152891   3.766   3.179  13.194  1.3696 -0.1226 -1.1345
10492TIP3    H252892   3.651   3.092  13.147 -0.2154  0.9168  0.6582
10493TIP3   OH252893   5.939   1.943  12.907 -0.0899  0.0842 -0.2688
10493TIP3    H152894   5.876   1.906  12.968  1.2348 -2.3140 -0.2370
10493TIP3    H252895   5.958   2.030  12.941  0.0788 -0.9036  2.3765
10494TIP3   OH252896   6.585   3.914  12.020 -0.2313 -0.0319 -0.1083
10494TIP3    H152897   6.632   3.995  12.004 -0.7014  0.4110  0.6814
10494TIP3    H252898   6.495   3.933  11.993 -0.3486 -0.2735  0.1071
10495TIP3   OH252899   3.778   0.622  14.758 -0.6336  0.0227 -0.6235
10495TIP3    H152900   3.820   0.547  14.716  0.1427 -0.6269  1.1944
10495TIP3    H252901   3.727   0.584  14.830 -0.1623  1.2201  0.3904
10496TIP3   OH252902   1.109   2.500   5.487 -0.8403  0.5672  0.1060
10496TIP3    H152903   1.199   2.494   5.455 -1.0994  0.1812 -0.5720
10496TIP3    H252904   1.093   2.416   5.530 -0.8549  0.6692  0.3041
10497TIP3   OH252905   6.043   2.489   0.399 -0.3049  0.0513 -0.3563
10497TIP3    H152906   6.029   2.414   0.343 -0.7325 -0.1872  0.0596
10497TIP3    H252907   6.016   2.564   0.346 -1.0201 -0.1993 -0.3598
10498TIP3   OH252908   1.541   3.070   3.084  0.2282 -0.2550  0.3576
10498TIP3    H152909   1.604   3.009   3.123  0.8910 -0.8044 -1.4748
10498TIP3    H252910   1.528   3.137   3.151  3.3107  0.2691  0.5725
10499TIP3   OH252911   3.565   2.984   6.161 -0.1933 -0.4497  0.4060
10499TIP3    H152912   3.548   3.041   6.236  0.6250  0.7129 -0.2557
10499TIP3    H252913   3.492   2.999   6.102  0.5257  0.7446 -0.2240
10500TIP3   OH252914   1.849   0.808   2.612 -0.4820 -0.0496  0.2135
10500TIP3    H152915   1.858   0.874   2.543  1.7756  1.0965  1.5055
10500TIP3    H252916   1.792   0.849   2.677 -1.4351 -0.5691 -0.2641
10501TIP3   OH252917   0.852   4.652  10.516  0.3140 -0.0289 -0.4810
10501TIP3    H152918   0.794   4.579  10.540  2.5147 -1.8485 -0.4012
10501TIP3    H252919   0.843   4.714  10.589 -0.0306 -1.1890  0.5020
10502TIP3   OH252920   0.423   5.221   2.090  0.3623 -0.1234  0.1942
10502TIP3    H152921   0.447   5.219   2.182 -0.4696  1.5931  0.4708
10502TIP3    H252922   0.503   5.249   2.045  1.1819 -2.2658  0.1879
10503TIP3   OH252923   5.903   5.125  12.442 -0.2089  0.0208  0.0022
10503TIP3    H152924   5.913   5.214  12.410 -0.6008 -0.1459 -0.5907
10503TIP3    H252925   5.954   5.071  12.381 -1.1090 -0.3180 -0.4621
10504TIP3   OH252926   6.684   1.738   2.578  0.1266 -0.1025 -0.1389
10504TIP3    H152927   6.656   1.743   2.669 -0.1676 -2.1647 -0.0844
10504TIP3    H252928   6.609   1.770   2.528 -1.2506 -2.6254  0.1783
10505TIP3   OH252929   4.136   3.439  16.456  0.2735  0.4767  0.1111
10505TIP3    H152930   4.112   3.413  16.545  0.5720  0.7187  0.2635
10505TIP3    H252931   4.062   3.493  16.427  0.6750  1.3116  0.6174
10506TIP3   OH252932   2.257   0.324  14.133  0.5655  1.0359  0.5667
10506TIP3    H152933   2.326   0.262  14.156  0.9731  1.4614  0.4983
10506TIP3    H252934   2.301   0.408  14.128  0.0352  1.3155  0.5437
10507TIP3   OH252935   4.427   4.991   5.595  0.3238  0.0457  0.0516
10507TIP3    H152936   4.360   5.056   5.619  2.2105  2.0040  0.3321
10507TIP3    H252937   4.419   4.923   5.662 -0.6712  0.7794  0.7132
10508TIP3   OH252938   4.648   3.572  16.059 -0.5252  0.5705  0.0440
10508TIP3    H152939   4.634   3.606  15.970 -0.1595 -1.3282 -0.7878
10508TIP3    H252940   4.559   3.555  16.092 -0.6870  1.7589  0.2727
10509TIP3   OH252941   5.476   3.469  12.443  0.5580  0.1877  0.5095
10509TIP3    H152942   5.539   3.399  12.426 -0.6897 -0.9048  0.1671
10509TIP3    H252943   5.422   3.472  12.364 -0.0698  0.8195  0.9478
10510TIP3   OH252944   4.447   0.249   0.394 -0.0413 -0.7672 -0.7583
10510TIP3    H152945   4.424   0.305   0.468  0.7213  1.3527 -2.0126
10510TIP3    H252946   4.468   0.165   0.432 -1.9335 -0.4447  1.1890
10511TIP3   OH252947   2.906   2.111  14.026  0.7679  0.1307 -0.0521
10511TIP3    H152948   2.815   2.093  14.001 -0.1524  1.6459  1.9829
10511TIP3    H252949   2.955   2.037  13.990 -1.3796 -1.1596 -0.5065
10512TIP3   OH252950   6.586   3.216  15.894 -0.1745  0.6339 -0.8938
10512TIP3    H152951   6.637   3.231  15.974 -2.1934  1.4994  0.3238
10512TIP3    H252952   6.564   3.304  15.863 -2.8719  0.3725  0.0119
10513TIP3   OH252953   5.885   6.177   0.767  0.1463 -0.2256 -0.1973
10513TIP3    H152954   5.917   6.253   0.817 -0.0397 -0.7767  0.7824
10513TIP3    H252955   5.894   6.204   0.676 -0.1226  1.0641  0.1287
10514TIP3   OH252956   0.008   4.610   3.124  0.1440 -0.0822  0.2250
10514TIP3    H152957   0.045   4.591   3.037 -0.6734  1.7371 -0.5752
10514TIP3    H252958   0.054   4.689   3.152  0.1546 -0.4680  1.3136
10515TIP3   OH252959   1.150   5.046   5.600 -0.2242 -0.3185  0.2133
10515TIP3    H152960   1.091   5.120   5.616  0.2522 -0.3801  2.6879
10515TIP3    H252961   1.092   4.971   5.587 -0.7141 -0.0383  0.7301
10516TIP3   OH252962   5.915   3.432  16.056  0.2932  0.5292 -0.1100
10516TIP3    H152963   5.881   3.343  16.053 -1.3084  1.1002 -0.3164
10516TIP3    H252964   5.893   3.463  16.144  1.0266  0.6692  0.0348
10517TIP3   OH252965   4.341   2.926   0.065  0.1808 -0.4151  0.0596
10517TIP3    H152966   4.430   2.953   0.042  0.0260 -1.5404 -2.1332
10517TIP3    H252967   4.302   2.900  -0.018 -2.2057 -0.0005  0.9807
10518TIP3   OH252968   2.825   2.318  13.654  0.2677  0.4808 -0.4778
10518TIP3    H152969   2.846   2.345  13.744  0.7444  0.3841 -0.5554
10518TIP3    H252970   2.910   2.297  13.615  0.0110 -0.0003 -0.7839
10519TIP3   OH252971   2.926   0.962   3.524 -0.1825  0.1571 -0.1865
10519TIP3    H152972   2.887   0.875   3.526  0.6298 -0.2454 -0.9494
10519TIP3    H252973   2.907   0.996   3.436  1.4082 -0.1835 -0.6959
10520TIP3   OH252974   1.988   6.551   1.703 -0.3468  0.1829 -0.0730
10520TIP3    H152975   1.984   6.537   1.797  0.3277 -0.5364 -0.1415
10520TIP3    H252976   1.937   6.630   1.688  0.1761  0.7324  0.9878
10521TIP3   OH252977   1.867   0.531   1.113 -0.1407  0.4580  0.0343
10521TIP3    H152978   1.956   0.509   1.086 -0.8388  0.3340 -2.3860
10521TIP3    H252979   1.857   0.488   1.198  1.6941 -0.5572 -0.2009
10522TIP3   OH252980   2.745   3.763   3.210  0.0663 -0.4602  0.3918
10522TIP3    H152981   2.821   3.820   3.225  0.6078 -1.2164  0.5754
10522TIP3    H252982   2.698   3.804   3.137  0.6091  0.0532  0.3240
10523TIP3   OH252983   6.523   1.760   1.808 -0.3312  0.1674  0.8213
10523TIP3    H152984   6.431   1.783   1.800 -0.1822  0.2005 -1.4904
10523TIP3    H252985   6.543   1.712   1.727  1.7683  0.5133  1.0812
10524TIP3   OH252986   4.924   3.333   2.218  0.0411  0.0279 -0.1143
10524TIP3    H152987   4.929   3.338   2.313 -0.4878  2.3591 -0.1420
10524TIP3    H252988   4.832   3.314   2.200  0.2644 -1.0550 -0.1777
10525TIP3   OH252989   2.237   3.035   4.673 -0.2644  0.0895  0.0039
10525TIP3    H152990   2.170   3.007   4.610 -0.8715  1.8080 -0.1533
10525TIP3    H252991   2.188   3.078   4.743  0.6235  0.8069  0.1991
10526TIP3   OH252992   2.279   0.920  13.458 -0.1345 -0.0463 -0.0094
10526TIP3    H152993   2.374   0.906  13.458 -0.1018  0.1409  0.4045
10526TIP3    H252994   2.266   0.995  13.516 -0.5878 -0.4392  0.4086
10527TIP3   OH252995   3.987   5.840  11.632 -0.2214  0.0881  0.0386
10527TIP3    H152996   4.078   5.855  11.659 -0.4051  1.0496  0.1651
10527TIP3    H252997   3.960   5.923  11.592 -1.0212 -0.2143 -0.0709
10528TIP3   OH252998   6.533   1.108   1.323 -0.2870 -0.4931  0.1461
10528TIP3    H152999   6.550   1.125   1.416  2.0353  0.2897 -0.3549
10528TIP3    H253000   6.468   1.173   1.298  0.4387  0.5139  0.8125
10529TIP3   OH253001   0.659   3.106  16.200 -0.3993 -0.1374 -0.4256
10529TIP3    H153002   0.600   3.067  16.136 -1.0115 -0.6445  0.4124
10529TIP3    H253003   0.733   3.046  16.205 -1.3110 -1.2142  0.8163
10530TIP3   OH253004   0.892   6.706  14.692 -0.1114 -0.1788  0.3470
10530TIP3    H153005   0.974   6.656  14.697 -0.9726 -1.8505 -1.0743
10530TIP3    H253006   0.887   6.736  14.601 -1.0308 -0.0492  0.4247
10531TIP3   OH253007   6.757   1.166   4.951 -0.2519  0.6181  0.5253
10531TIP3    H153008   6.821   1.157   4.881 -0.6390  2.6689 -0.1492
10531TIP3    H253009   6.708   1.083   4.949  0.2882  0.3004 -1.0682
10532TIP3   OH253010   2.281   5.817   0.591 -0.0078  0.0637 -0.0241
10532TIP3    H153011   2.299   5.909   0.611  2.0661  0.2586 -2.3288
10532TIP3    H253012   2.202   5.820   0.537 -0.0844  0.4732  0.1069
10533TIP3   OH253013   0.178   3.373  13.277  0.1009  0.0633 -0.4885
10533TIP3    H153014   0.230   3.294  13.293  0.6756  0.1375 -1.8589
10533TIP3    H253015   0.094   3.340  13.245 -1.0346 -0.0832  2.3694
10534TIP3   OH253016   3.125   6.680   6.264 -0.3768 -0.0240 -0.8418
10534TIP3    H153017   3.102   6.653   6.176 -1.9306 -2.6022  0.2339
10534TIP3    H253018   3.212   6.645   6.279 -0.3310 -0.0421 -1.1516
10535TIP3   OH253019   1.237   2.220   3.379  0.0478 -0.1044 -0.4812
10535TIP3    H153020   1.241   2.132   3.417 -2.2639  0.0137  0.1963
10535TIP3    H253021   1.247   2.279   3.454 -4.7148  0.1326  0.3033
10536TIP3   OH253022   4.045   5.451  14.470 -0.0763 -0.2055  0.1472
10536TIP3    H153023   3.965   5.435  14.419 -0.0423 -0.1390  0.0713
10536TIP3    H253024   4.068   5.366  14.506 -0.5478 -0.1018  0.7102
10537TIP3   OH253025   2.525   3.150   1.775  0.2446  0.0305  0.4269
10537TIP3    H153026   2.578   3.228   1.792  0.7807 -0.6429  2.0632
10537TIP3    H253027   2.587   3.077   1.784 -0.4916 -0.6402  0.1182
10538TIP3   OH253028   5.520   4.904   6.448 -0.2130  0.1874  0.0562
10538TIP3    H153029   5.610   4.930   6.429 -0.7382  1.7526 -0.4199
10538TIP3    H253030   5.527   4.814   6.479  1.4735  0.1635 -0.3221
10539TIP3   OH253031   1.960   3.661  11.982 -0.1975 -0.5662  0.4132
10539TIP3    H153032   2.008   3.741  11.959  0.3063 -0.7257  0.8905
10539TIP3    H253033   1.913   3.684  12.062 -0.7260 -0.4922  0.0883
10540TIP3   OH253034   4.663   1.785  10.707 -0.1777  0.5191  0.3148
10540TIP3    H153035   4.634   1.789  10.798 -1.8315  0.4197 -0.1715
10540TIP3    H253036   4.591   1.742  10.661  1.8514 -2.1374 -0.5984
10541TIP3   OH253037   5.742   4.505   5.009  0.9888 -0.2236 -0.0349
10541TIP3    H153038   5.831   4.507   4.974  1.0748  1.6561  0.1782
10541TIP3    H253039   5.689   4.471   4.938  1.7416 -0.3863 -0.5305
10542TIP3   OH253040   2.452   2.869   0.650 -0.5473 -0.0025  0.0194
10542TIP3    H153041   2.486   2.955   0.628 -1.1420 -0.0498 -1.1438
10542TIP3    H253042   2.439   2.872   0.745  0.6097  0.7459  0.1756
10543TIP3   OH253043   6.745   5.799   2.577 -0.5587 -0.3078 -0.0539
10543TIP3    H153044   6.821   5.758   2.536 -0.0772 -0.3342  0.8386
10543TIP3    H253045   6.724   5.874   2.521  1.8356  1.3563  1.0994
10544TIP3   OH253046   2.988   2.709  17.230  0.2044 -0.3731  0.2708
10544TIP3    H153047   2.892   2.709  17.233  0.2158 -0.1548  0.6928
10544TIP3    H253048   3.012   2.617  17.230  0.0389 -0.4575  2.0319
10545TIP3   OH253049   4.987   3.302   5.702 -0.3857  0.4967 -0.1988
10545TIP3    H153050   4.994   3.210   5.677 -0.4724  0.3551  0.2824
10545TIP3    H253051   5.064   3.319   5.756 -0.0549  0.8746 -0.7786
10546TIP3   OH253052   1.293   6.107  14.744 -0.6358  0.3897 -0.5977
10546TIP3    H153053   1.289   6.064  14.829 -0.6744  2.1421  0.3462
10546TIP3    H253054   1.238   6.185  14.755 -1.1555  0.3241 -2.4471
10547TIP3   OH253055   3.433   2.574   3.009  0.4188 -0.6466  0.0428
10547TIP3    H153056   3.459   2.650   2.958  1.0363  0.3085  1.6798
10547TIP3    H253057   3.516   2.531   3.033  0.2106 -0.5660  0.9546
10548TIP3   OH253058   2.212   5.744  12.817 -0.3452  0.4829 -0.4450
10548TIP3    H153059   2.189   5.752  12.910  0.2716  0.2308 -0.2629
10548TIP3    H253060   2.289   5.799  12.806 -1.2681  1.6881 -1.1530
10549TIP3   OH253061   6.539   6.322  15.432 -0.3188  0.0163 -0.4586
10549TIP3    H153062   6.508   6.374  15.506  0.7193 -1.6951  1.2766
10549TIP3    H253063   6.595   6.383  15.382  0.4046  0.7637  1.1732
10550TIP3   OH253064   3.193   1.340   5.463 -0.5852 -0.4975 -0.1455
10550TIP3    H153065   3.168   1.262   5.512 -0.5101 -0.5673 -0.2199
10550TIP3    H253066   3.286   1.351   5.480 -1.1729  1.4229  2.5290
10551TIP3   OH253067   3.632   6.150  13.261 -0.4909 -0.2081 -0.6589
10551TIP3    H153068   3.648   6.097  13.339 -1.4897 -0.5332 -0.6595
10551TIP3    H253069   3.710   6.204  13.252 -0.1339 -0.5561  0.2540
10552TIP3   OH253070   5.228   1.190   1.761 -0.5514 -0.1081 -0.4752
10552TIP3    H153071   5.158   1.187   1.827 -1.1719  0.0364 -1.1178
10552TIP3    H253072   5.300   1.236   1.805 -0.6802 -0.6596  0.3535
10553TIP3   OH253073   1.008   2.428  12.623  0.5510 -0.4167 -0.1528
10553TIP3    H153074   1.008   2.518  12.589  1.1511 -0.0167  0.8567
10553TIP3    H253075   1.061   2.379  12.560  1.4063  0.2479  0.0315
10554TIP3   OH253076   5.470   5.814  13.499 -0.0931  0.3020  0.3159
10554TIP3    H153077   5.538   5.825  13.567 -0.1264  0.0833  0.3839
10554TIP3    H253078   5.392   5.789  13.548 -1.5046  4.8147  0.8136
10555TIP3   OH253079   2.585   5.389   2.674  0.5814 -0.0685 -0.3752
10555TIP3    H153080   2.527   5.316   2.653 -0.8455  0.2071  2.1983
10555TIP3    H253081   2.553   5.461   2.620 -1.1571 -0.0923  0.5455
10556TIP3   OH253082   6.372   4.856   6.631 -0.3406 -0.3241 -0.5586
10556TIP3    H153083   6.309   4.908   6.681  1.7805 -0.2548  2.3181
10556TIP3    H253084   6.434   4.921   6.596 -0.0560 -0.6204 -0.6092
10557TIP3   OH253085   3.630   6.658  13.811 -0.5803  0.6846  0.0637
10557TIP3    H153086   3.610   6.729  13.750  1.5677  0.5516 -0.8653
10557TIP3    H253087   3.718   6.628  13.787  0.5099  0.7669  3.3195
10558TIP3   OH253088   1.957   3.696   0.473  0.0692 -0.5534  0.2050
10558TIP3    H153089   1.866   3.719   0.489  0.1688  1.3583 -1.4730
10558TIP3    H253090   2.004   3.730   0.550 -0.4372  0.2291  0.1872
10559TIP3   OH253091   0.090   2.463   6.495  0.1566  0.2508  0.0211
10559TIP3    H153092   0.051   2.400   6.435 -3.4907  3.0546 -0.9092
10559TIP3    H253093   0.146   2.518   6.440  0.3187  0.1452  0.0796
10560TIP3   OH253094   2.269   4.253   1.580  0.3398  0.1103 -0.5269
10560TIP3    H153095   2.275   4.348   1.573  0.2126  0.2149  0.6609
10560TIP3    H253096   2.240   4.237   1.669 -1.1084 -0.9931 -1.1658
10561TIP3   OH253097   1.935   2.280   0.232  0.2091 -0.3445  0.2815
10561TIP3    H153098   1.937   2.297   0.326  1.9407  0.5849  0.1130
10561TIP3    H253099   1.986   2.351   0.193 -1.7424  0.1588 -1.5331
10562TIP3   OH253100   6.478   4.107   1.259 -0.4427  0.1648 -0.4839
10562TIP3    H153101   6.491   4.019   1.295 -1.5602  0.0789 -0.2497
10562TIP3    H253102   6.537   4.111   1.184 -0.6732 -0.9417 -0.7469
10563TIP3   OH253103   6.185   5.336  16.621  0.6443  0.2377 -0.8802
10563TIP3    H153104   6.091   5.324  16.636  0.7860 -1.2263 -0.9937
10563TIP3    H253105   6.206   5.276  16.550  1.7059  0.3982 -0.7260
10564TIP3   OH253106   4.329   4.658   4.308 -0.1768 -0.3578  0.7436
10564TIP3    H153107   4.407   4.712   4.297 -0.4897  0.3971  2.0027
10564TIP3    H253108   4.332   4.631   4.399 -0.1859 -2.2616  0.2134
10565TIP3   OH253109   4.655   0.665  15.180  0.4267  0.3106  0.4180
10565TIP3    H153110   4.674   0.739  15.237 -0.5175  0.3913  0.6511
10565TIP3    H253111   4.730   0.660  15.121 -0.0024  2.1606 -0.3395
10566TIP3   OH253112   4.514   5.103   1.720  0.3624  0.0168 -0.8436
10566TIP3    H153113   4.435   5.059   1.750  1.2047 -0.2916  1.0608
10566TIP3    H253114   4.575   5.032   1.702  0.7984  0.3061 -0.5278
10567TIP3   OH253115   2.267   4.229   4.309  0.2168  0.1455 -0.4693
10567TIP3    H153116   2.254   4.202   4.400  1.2030  0.1633 -0.3110
10567TIP3    H253117   2.317   4.157   4.270 -1.8555 -0.7895 -1.5469
10568TIP3   OH253118   4.014   0.513  14.466  0.1331 -0.5096  0.2340
10568TIP3    H153119   4.063   0.542  14.542  1.7833 -0.4929 -0.7882
10568TIP3    H253120   3.997   0.594  14.417  1.4991 -0.7855 -0.7588
10569TIP3   OH253121   3.622   3.101   4.963 -0.6160 -0.4475 -0.4305
10569TIP3    H153122   3.707   3.071   4.994  0.4194  0.8371 -1.8806
10569TIP3    H253123   3.589   3.158   5.033 -0.3496 -1.0500  0.1881
10570TIP3   OH253124   5.564   5.633   1.389 -0.5551  0.7855  0.0235
10570TIP3    H153125   5.508   5.562   1.420 -0.3100  0.3160 -0.5867
10570TIP3    H253126   5.514   5.674   1.318 -0.5339  0.9779  0.1204
10571TIP3   OH253127   0.873   2.600   3.590 -0.1501 -0.0298  0.2560
10571TIP3    H153128   0.890   2.512   3.624 -1.4737 -0.3150  0.2262
10571TIP3    H253129   0.813   2.586   3.517 -1.4511  0.9860  1.0907
10572TIP3   OH253130   2.647   0.916  12.794 -0.0132 -0.0098  0.4495
10572TIP3    H153131   2.651   0.996  12.847  0.4085 -0.2301  0.7547
10572TIP3    H253132   2.721   0.924  12.734  1.1554 -1.0156  1.7018
10573TIP3   OH253133   3.501   5.970  16.311  0.2078 -0.1735  0.2420
10573TIP3    H153134   3.445   6.018  16.249  0.8758  0.1204 -0.1429
10573TIP3    H253135   3.441   5.911  16.356 -1.0515  2.3272  2.1132
10574TIP3   OH253136   4.389   3.163   4.982  0.2298  0.4513 -0.1867
10574TIP3    H153137   4.374   3.256   4.969 -0.0830  0.4188 -0.0546
10574TIP3    H253138   4.435   3.158   5.066  1.1652  0.5630 -0.6742
10575TIP3   OH253139   6.623   6.506   2.293 -0.1811 -0.2259 -0.0950
10575TIP3    H153140   6.622   6.601   2.301 -0.2256 -0.1627 -0.8040
10575TIP3    H253141   6.698   6.479   2.346  0.5202  0.3019 -0.7889
10576TIP3   OH253142   2.158   0.624  13.252 -0.4311  0.3781  0.0785
10576TIP3    H153143   2.204   0.677  13.187 -1.8190  0.6993 -0.6865
10576TIP3    H253144   2.099   0.685  13.296 -0.7447 -0.1856  0.4567
10577TIP3   OH253145   4.583   0.327   3.512 -0.8853 -0.4072 -0.6473
10577TIP3    H153146   4.517   0.395   3.501  1.2891  2.0993  0.7855
10577TIP3    H253147   4.642   0.337   3.437 -0.5285 -0.7054 -0.4136
10578TIP3   OH253148   3.772   3.049  10.646  0.0452 -0.2897  0.3736
10578TIP3    H153149   3.694   3.079  10.691 -0.7545 -0.5741 -0.7807
10578TIP3    H253150   3.828   3.127  10.640 -0.0063 -0.1524  1.4461
10579TIP3   OH253151   0.490   0.636  15.995  0.1234  1.2919  0.1743
10579TIP3    H153152   0.542   0.558  16.013 -0.1093  1.3226  1.0509
10579TIP3    H253153   0.429   0.609  15.927 -0.8564  0.2907  1.3994
10580TIP3   OH253154   6.400   2.350  15.127 -0.0660 -0.1431 -0.2334
10580TIP3    H153155   6.342   2.358  15.051 -0.3128  0.4197  0.0093
10580TIP3    H253156   6.488   2.360  15.090 -0.2202  0.9600 -0.3484
10581TIP3   OH253157   5.306   2.455   2.140 -0.0185  0.2612  0.2466
10581TIP3    H153158   5.340   2.365   2.138  2.3475  1.0594  0.8645
10581TIP3    H253159   5.327   2.491   2.054 -0.8152  0.2825  0.0566
10582TIP3   OH253160   4.058   1.694   5.457 -0.6040  0.3291 -0.2397
10582TIP3    H153161   4.102   1.779   5.449 -0.9802  0.6430  0.8693
10582TIP3    H253162   3.966   1.713   5.441 -0.6526  0.0754 -0.2631
10583TIP3   OH253163   1.900   2.733  16.691 -0.0514  0.6449  0.1620
10583TIP3    H153164   1.888   2.781  16.773 -0.1749  0.1492  0.4402
10583TIP3    H253165   1.955   2.659  16.714 -1.0444 -0.1548  0.0653
10584TIP3   OH253166   5.667   3.977   3.784 -0.0240  0.3201 -0.3516
10584TIP3    H153167   5.652   3.907   3.720  1.0523  0.7417 -1.0979
10584TIP3    H253168   5.713   4.045   3.735  0.7875  0.6739  0.8600
10585TIP3   OH253169   0.767   0.753   4.826  0.8201  0.4460 -0.3073
10585TIP3    H153170   0.751   0.659   4.836 -1.1973  0.3617 -3.1833
10585TIP3    H253171   0.680   0.791   4.812  1.6036  2.7756  0.6504
10586TIP3   OH253172   4.704   1.539  13.152 -0.3208 -0.5080 -0.8173
10586TIP3    H153173   4.763   1.586  13.211 -1.4835 -0.7471  0.6063
10586TIP3    H253174   4.750   1.459  13.131  0.9670  0.4730 -1.9054
10587TIP3   OH253175   6.666   1.506   3.985 -0.0561  0.2006  0.8728
10587TIP3    H153176   6.701   1.432   4.033 -0.9279 -0.3423  0.6910
10587TIP3    H253177   6.573   1.487   3.975 -0.2676  1.2453  0.6912
10588TIP3   OH253178   5.320   4.564   2.993 -0.0721 -0.2322  0.1509
10588TIP3    H153179   5.406   4.600   2.971  1.0561 -2.5045  0.5481
10588TIP3    H253180   5.268   4.576   2.913  1.7505 -1.9311 -1.4179
10589TIP3   OH253181   3.780   3.000  15.645 -0.4191 -0.1212 -0.3797
10589TIP3    H153182   3.783   3.056  15.723 -2.2800  0.9907 -1.0345
10589TIP3    H253183   3.690   2.969  15.641 -0.2860 -0.4122 -1.9265
10590TIP3   OH253184   1.023   5.377   2.105  0.1070  0.2865 -0.1283
10590TIP3    H153185   0.971   5.440   2.156 -0.0246 -0.2166  0.3621
10590TIP3    H253186   1.057   5.429   2.032 -3.7743 -0.0066 -2.3947
10591TIP3   OH253187   6.673   6.616   4.006  0.5829  0.2564 -0.9415
10591TIP3    H153188   6.590   6.583   4.039  0.7137  0.2201 -0.6442
10591TIP3    H253189   6.664   6.615   3.911  0.6947 -0.8980 -0.9467
10592TIP3   OH253190   2.677   5.282  13.827 -0.2009 -0.1437 -0.0763
10592TIP3    H153191   2.771   5.265  13.819 -0.4670 -0.8537 -2.0951
10592TIP3    H253192   2.671   5.351  13.893  1.6854 -0.5274  0.5532
10593TIP3   OH253193   0.620   0.186  12.383  0.1748 -0.2156 -0.1686
10593TIP3    H153194   0.603   0.224  12.469  1.3956 -0.7194  0.3147
10593TIP3    H253195   0.577   0.246  12.322 -1.5257 -0.3645  0.8189
10594TIP3   OH253196   5.645   1.043  16.437 -0.2910  0.4505 -0.4402
10594TIP3    H153197   5.569   1.096  16.461  0.1118  2.1738 -2.6699
10594TIP3    H253198   5.623   1.005  16.353  1.2019  0.8434 -1.0552
10595TIP3   OH253199   2.738   6.004  15.624 -0.3977  0.0041 -0.2332
10595TIP3    H153200   2.793   5.927  15.613  0.3265  0.2181  1.5489
10595TIP3    H253201   2.707   6.025  15.535  0.5947 -1.4317 -0.9479
10596TIP3   OH253202   1.451   1.855   2.554  0.1424 -0.1382 -0.3103
10596TIP3    H153203   1.369   1.864   2.603 -1.5403 -3.4591 -2.1735
10596TIP3    H253204   1.461   1.938   2.507 -2.8408 -0.0315 -0.9160
10597TIP3   OH253205   3.387   3.203   3.415  0.0875 -0.0337  0.3837
10597TIP3    H153206   3.318   3.263   3.441 -1.8531 -1.4188 -1.3077
10597TIP3    H253207   3.343   3.120   3.400  2.3046 -1.2691  0.2527
10598TIP3   OH253208   5.828   1.999  13.711 -0.0649 -0.2877 -0.7528
10598TIP3    H153209   5.849   1.906  13.720 -2.4270 -0.9505 -1.4515
10598TIP3    H253210   5.859   2.021  13.623 -0.2703 -0.6625 -0.9245
10599TIP3   OH253211   0.856   4.178   4.805 -0.7579 -0.2300 -0.1844
10599TIP3    H153212   0.795   4.249   4.786  0.3073  0.7201 -0.2108
10599TIP3    H253213   0.942   4.215   4.785 -0.1373 -1.3972  0.2187
10600TIP3   OH253214   5.171   6.263   2.919 -0.1334 -0.4678  0.3228
10600TIP3    H153215   5.263   6.275   2.944  0.2323 -1.4131 -0.5288
10600TIP3    H253216   5.153   6.337   2.860  0.2802 -0.6435 -0.0329
10601TIP3   OH253217   5.261   5.638  17.291  0.2649  0.1891 -0.7986
10601TIP3    H153218   5.177   5.671  17.323 -0.3588 -1.1340 -0.9914
10601TIP3    H253219   5.288   5.575  17.358  0.4083 -0.4185 -1.4281
10602TIP3   OH253220   6.036   0.181  10.893 -0.1204  0.1020  0.0062
10602TIP3    H153221   5.999   0.269  10.901 -1.2959 -0.3372 -0.4279
10602TIP3    H253222   5.960   0.123  10.890  0.6335 -1.1884  2.8435
10603TIP3   OH253223   6.406   0.115  12.647 -0.2569  0.1872  0.1043
10603TIP3    H153224   6.462   0.038  12.661  0.1500  0.2461 -1.0697
10603TIP3    H253225   6.321   0.079  12.623 -0.5206  0.1050  1.1151
10604TIP3   OH253226   5.520   3.989  14.324 -0.2614  0.4959 -0.8333
10604TIP3    H153227   5.542   3.897  14.337  0.0698  0.9698  2.7635
10604TIP3    H253228   5.587   4.021  14.263  1.0117 -1.1041 -0.3432
10605TIP3   OH253229   5.410   0.058  12.577 -0.1327 -0.6244  0.0606
10605TIP3    H153230   5.478   0.010  12.624  0.4827 -0.6716 -0.8580
10605TIP3    H253231   5.424   0.149  12.602 -1.2332 -0.8601  1.7185
10606TIP3   OH253232   2.581   3.138   5.204 -0.0839  0.2751 -0.0219
10606TIP3    H153233   2.605   3.045   5.209 -0.7650  0.1110  0.3075
10606TIP3    H253234   2.579   3.167   5.295 -0.2132  0.5195 -0.1026
10607TIP3   OH253235   1.332   5.046   3.336 -0.5747 -0.2924  0.6014
10607TIP3    H153236   1.289   5.052   3.421 -0.2261 -0.2103  0.7779
10607TIP3    H253237   1.367   5.135   3.321  0.9588 -0.7458  1.2390
10608TIP3   OH253238   0.919   4.830   6.061 -0.6221 -0.2519 -0.3711
10608TIP3    H153239   0.937   4.917   6.024 -0.9228 -0.1314 -0.2319
10608TIP3    H253240   0.864   4.787   5.996  0.6227 -0.8376 -1.0750
10609TIP3   OH253241   4.493   4.464   4.556 -0.1655  0.0313  0.4606
10609TIP3    H153242   4.447   4.419   4.627 -0.2979  1.6792  1.4680
10609TIP3    H253243   4.580   4.481   4.591 -0.3273  1.1287  0.3620
10610TIP3   OH253244   4.205   1.119  14.779 -0.1430 -0.2663 -0.2874
10610TIP3    H153245   4.189   1.201  14.825 -1.0451 -0.1249 -0.8178
10610TIP3    H253246   4.140   1.118  14.709  1.0851 -0.5389 -1.4777
10611TIP3   OH253247   4.403   4.612   5.273  0.6203 -0.3680 -0.0523
10611TIP3    H153248   4.433   4.577   5.357  2.8436 -1.4937 -1.2056
10611TIP3    H253249   4.425   4.544   5.210  1.1973  1.3697 -1.8404
10612TIP3   OH253250   0.222   3.023  11.578 -0.0297  0.2930 -0.7163
10612TIP3    H153251   0.295   2.995  11.633  1.0927  2.4270 -1.0097
10612TIP3    H253252   0.211   2.953  11.514  0.5246 -0.8973  0.4606
10613TIP3   OH253253   4.069   2.996   6.378 -0.1344  0.0233 -0.2709
10613TIP3    H153254   4.156   2.958   6.387  0.5101  0.8246 -2.4814
10613TIP3    H253255   4.082   3.090   6.392 -1.2361 -0.1336  2.4269
10614TIP3   OH253256   4.789   1.380  11.824  0.3049 -0.7009 -1.1986
10614TIP3    H153257   4.710   1.330  11.842 -0.5075  1.1435  0.8671
10614TIP3    H253258   4.807   1.427  11.906  3.2147 -0.5814 -1.7872
10615TIP3   OH253259   4.665   6.459   0.798 -0.1448 -0.2951  0.0671
10615TIP3    H153260   4.595   6.404   0.763  2.1559 -1.9531 -2.3446
10615TIP3    H253261   4.687   6.418   0.882  0.5109 -2.2365 -0.9936
10616TIP3   OH253262   0.969   2.940  14.105 -0.1737  0.6200  0.0007
10616TIP3    H153263   0.927   3.020  14.138 -0.5091  1.3820 -2.1196
10616TIP3    H253264   1.012   2.967  14.024  1.9005 -0.8273  0.5411
10617TIP3   OH253265   3.541   6.658   1.976 -0.1523  0.1213 -0.3011
10617TIP3    H153266   3.543   6.703   2.061 -2.1073  1.6705 -0.9906
10617TIP3    H253267   3.457   6.613   1.974 -1.2249  1.9897 -2.2250
10618TIP3   OH253268   5.733   4.343   5.211 -0.1376 -0.3234 -0.3992
10618TIP3    H153269   5.699   4.427   5.179 -2.6422 -0.2617  2.0388
10618TIP3    H253270   5.716   4.282   5.139 -1.3394  0.6531 -0.9968
10619TIP3   OH253271   2.122   1.454  15.336 -0.0171  0.2735 -0.9247
10619TIP3    H153272   2.068   1.396  15.390 -1.1666  0.3056 -2.0054
10619TIP3    H253273   2.085   1.541  15.348  1.1931  0.6830  0.0453
10620TIP3   OH253274   0.144   6.692   0.417  0.4017  0.3824 -0.1451
10620TIP3    H153275   0.218   6.744   0.448  1.2068 -1.0631  0.4620
10620TIP3    H253276   0.112   6.646   0.495 -1.1048  0.9227 -0.4129
10621TIP3   OH253277   1.928   3.889   2.550  0.0601 -0.2910 -0.6835
10621TIP3    H153278   1.896   3.862   2.464  1.3371  0.2004 -1.3292
10621TIP3    H253279   1.918   3.984   2.550 -1.1059 -0.3812  0.2205
10622TIP3   OH253280   1.468   6.240  16.520 -0.1658  0.2683 -0.0826
10622TIP3    H153281   1.487   6.148  16.503 -2.4958  0.0825 -2.2383
10622TIP3    H253282   1.495   6.285  16.441 -1.1624  1.0953  0.0328
10623TIP3   OH253283   5.594   2.592   3.439  0.1058 -0.2185  0.4844
10623TIP3    H153284   5.615   2.566   3.349 -0.2271 -0.3043  0.4297
10623TIP3    H253285   5.663   2.553   3.491  0.5130  0.1499  0.2253
10624TIP3   OH253286   0.818   4.776  16.030  0.3591 -0.0545 -0.1857
10624TIP3    H153287   0.823   4.680  16.031 -0.1148 -0.0860  0.6763
10624TIP3    H253288   0.724   4.795  16.042  0.4579  0.5115 -0.2903
10625TIP3   OH253289   6.334   4.869   4.617 -0.2304 -0.0412 -0.5277
10625TIP3    H153290   6.295   4.957   4.624 -1.4212 -0.6672  1.2671
10625TIP3    H253291   6.422   4.879   4.652 -0.3265  0.4665 -0.4182
10626TIP3   OH253292   6.214   1.969   0.820 -0.4777  0.3022 -0.2059
10626TIP3    H153293   6.258   2.040   0.867  1.3224 -0.5524 -0.5005
10626TIP3    H253294   6.206   1.899   0.885 -2.0694  0.6633  0.0299
10627TIP3   OH253295   0.377   4.232  11.173  0.2971  0.2806 -0.0463
10627TIP3    H153296   0.397   4.300  11.109 -0.5499  1.1407  0.5658
10627TIP3    H253297   0.454   4.229  11.230  1.0183 -0.4389 -1.0459
10628TIP3   OH253298   5.766   2.836  15.952 -0.8788  0.1336 -0.4120
10628TIP3    H153299   5.750   2.921  15.994 -1.3939 -0.3418  0.3715
10628TIP3    H253300   5.793   2.778  16.023  1.6472  0.1560 -1.2540
10629TIP3   OH253301   4.708   4.444   6.745  0.3208  0.5726 -0.0849
10629TIP3    H153302   4.613   4.444   6.758  0.4911  0.3196  1.3732
10629TIP3    H253303   4.737   4.527   6.783  0.9573 -0.5949  2.1620
10630TIP3   OH253304   1.622   2.569   5.269  0.1388 -0.1550 -0.3764
10630TIP3    H153305   1.551   2.509   5.245 -0.5886  0.1725  0.8853
10630TIP3    H253306   1.583   2.628   5.333  1.0959  1.1051 -0.9051
10631TIP3   OH253307   2.441   6.684   6.396  0.7115 -0.7603 -0.0196
10631TIP3    H153308   2.494   6.764   6.400 -1.6297  0.9357 -1.0512
10631TIP3    H253309   2.381   6.691   6.470 -2.2675  0.6282 -2.3674
10632TIP3   OH253310   5.414   3.398  10.637 -0.1687  0.2461  0.2050
10632TIP3    H153311   5.400   3.486  10.671  0.5687  0.6733 -0.5463
10632TIP3    H253312   5.502   3.400  10.600 -0.0595 -0.8768  0.3614
10633TIP3   OH253313   1.291   0.251  14.212 -0.3878  0.0610  0.1950
10633TIP3    H153314   1.272   0.232  14.121 -1.2121 -0.5260  0.4796
10633TIP3    H253315   1.253   0.338  14.227 -0.6555 -0.0394  0.0999
10634TIP3   OH253316   1.836   2.298   3.435  0.4256  0.2837 -0.1353
10634TIP3    H153317   1.740   2.303   3.432  0.3381 -0.2774  1.2116
10634TIP3    H253318   1.865   2.385   3.407 -0.5020  0.7527  0.3119
10635TIP3   OH253319   6.726   0.230   3.891  0.1730 -0.5746  0.7587
10635TIP3    H153320   6.692   0.319   3.889  0.6760 -0.3880 -0.0741
10635TIP3    H253321   6.819   0.239   3.868  0.2268 -1.3054  0.6507
10636TIP3   OH253322   4.781   3.050  13.894  0.0309 -0.4981  1.0310
10636TIP3    H153323   4.695   3.070  13.930  0.1124  0.4515  0.7175
10636TIP3    H253324   4.771   3.063  13.800 -0.0373 -2.4308  0.7285
10637TIP3   OH253325   3.112   0.564  11.340  0.3161  0.3174 -0.5351
10637TIP3    H153326   3.091   0.472  11.357 -0.9170  0.6645 -0.0571
10637TIP3    H253327   3.200   0.576  11.376  0.3374 -0.5826 -0.2692
10638TIP3   OH253328   6.367   4.060   6.636 -0.1044 -0.0605  0.3876
10638TIP3    H153329   6.337   4.033   6.722 -1.2001  1.3997  0.5197
10638TIP3    H253330   6.418   4.140   6.652  1.0467 -0.6586 -0.1774
10639TIP3   OH253331   6.170   5.530   4.674 -0.4302 -0.0931 -0.4484
10639TIP3    H153332   6.094   5.479   4.646 -0.1542 -0.7388 -0.0565
10639TIP3    H253333   6.239   5.464   4.686 -0.8277 -0.0441  2.9201
10640TIP3   OH253334   0.850   1.133  14.688  0.7045 -0.4367  0.3162
10640TIP3    H153335   0.907   1.200  14.727  0.5127  0.1615 -0.4170
10640TIP3    H253336   0.874   1.132  14.596 -1.2161  0.6196 -0.2438
10641TIP3   OH253337   0.303   3.044  14.520  0.0135  0.2346  0.3344
10641TIP3    H153338   0.355   3.012  14.593  0.0576 -2.5161 -0.7588
10641TIP3    H253339   0.368   3.068  14.453 -0.0484 -0.0036  0.1848
10642TIP3   OH253340   2.384   6.405   4.075 -0.1730 -0.3942  0.0917
10642TIP3    H153341   2.290   6.418   4.091 -0.1019 -1.7080  1.8343
10642TIP3    H253342   2.424   6.409   4.161  1.0817 -2.0266 -0.3551
10643TIP3   OH253343   3.520   4.217   0.546  0.2996 -0.2620  0.7461
10643TIP3    H153344   3.546   4.236   0.636 -0.0330 -0.0776  0.8036
10643TIP3    H253345   3.428   4.190   0.553  0.3680 -0.5655  0.5014
10644TIP3   OH253346   1.231   3.478  14.136 -0.7704  0.3068  0.2328
10644TIP3    H153347   1.292   3.542  14.171 -1.9850  0.7423  1.6618
10644TIP3    H253348   1.284   3.422  14.079  0.3136  2.6307 -1.2006
10645TIP3   OH253349   2.646   5.207   4.422  0.2401 -0.2410  0.1187
10645TIP3    H153350   2.560   5.246   4.406  0.0400 -0.8087 -0.1764
10645TIP3    H253351   2.707   5.282   4.421 -0.1732  0.0905 -0.2103
10646TIP3   OH253352   0.085   5.547   2.474 -0.1400 -0.3161  0.0553
10646TIP3    H153353   0.142   5.470   2.473 -0.9585 -0.9492  0.3925
10646TIP3    H253354   0.139   5.617   2.510  0.0012 -1.2564  1.8187
10647TIP3   OH253355   0.042   2.374   3.539  0.4981  0.0465 -0.2962
10647TIP3    H153356   0.117   2.432   3.547 -0.3018  1.2633 -1.2427
10647TIP3    H253357  -0.034   2.431   3.552 -0.3196 -0.7176 -1.4964
10648TIP3   OH253358   6.390   1.845   3.328 -0.5307  0.5206  0.4705
10648TIP3    H153359   6.417   1.937   3.324 -0.5329  0.5971  1.8510
10648TIP3    H253360   6.420   1.815   3.414 -0.4622 -0.7984  0.0027
10649TIP3   OH253361   1.509   5.552  12.908  0.8860  0.1220 -0.2942
10649TIP3    H153362   1.468   5.473  12.871  0.8436  0.6280 -1.3622
10649TIP3    H253363   1.443   5.621  12.897  1.0103  0.3583  0.4248
10650TIP3   OH253364   6.421   6.487   5.637  0.5194  0.0432 -0.1658
10650TIP3    H153365   6.386   6.454   5.720  0.0902  0.5064 -0.1616
10650TIP3    H253366   6.516   6.475   5.644  0.5640  0.8579  0.7310
10651TIP3   OH253367   4.864   3.572  15.280 -0.1473  0.4666 -0.3454
10651TIP3    H153368   4.790   3.561  15.339 -0.1150 -2.0887 -0.6970
10651TIP3    H253369   4.941   3.575  15.337 -0.2372 -0.5711 -0.1581
10652TIP3   OH253370   4.132   1.503   1.411  0.0622  0.2114 -0.2797
10652TIP3    H153371   4.055   1.537   1.365 -0.2465  0.6083  0.5099
10652TIP3    H253372   4.151   1.419   1.368  0.2111  0.8875 -1.5867
10653TIP3   OH253373   4.996   1.316  14.254 -1.2312 -0.1378 -0.6370
10653TIP3    H153374   5.037   1.275  14.330  0.1573  1.5425 -0.4103
10653TIP3    H253375   5.024   1.262  14.180  1.1428  0.6918 -0.4328
10654TIP3   OH253376   4.691   5.951  13.974  0.3342 -0.5039  0.0899
10654TIP3    H153377   4.751   5.995  13.914  0.5749  0.4481  0.9934
10654TIP3    H253378   4.696   5.858  13.950  0.0431 -0.0959 -1.6619
10655TIP3   OH253379   3.332   6.648   4.072  0.5270 -0.3218 -0.4753
10655TIP3    H153380   3.338   6.743   4.074 -1.5328 -0.1521  1.5893
10655TIP3    H253381   3.389   6.619   4.144  0.6887 -0.6218 -0.7189
10656TIP3   OH253382   0.305   0.200   4.857  0.0959 -0.0654  0.0393
10656TIP3    H153383   0.314   0.220   4.764  2.1073  0.0879  0.2135
10656TIP3    H253384   0.263   0.114   4.859 -0.7704  0.3157 -0.9697
10657TIP3   OH253385   2.747   6.590  15.980 -0.1524 -0.5778 -0.1385
10657TIP3    H153386   2.687   6.658  16.009 -1.1025 -0.9165 -1.2432
10657TIP3    H253387   2.695   6.534  15.923  0.9863 -1.3944 -0.4250
10658TIP3   OH253388   5.021   4.569  15.676  0.0527 -0.3020 -0.2699
10658TIP3    H153389   5.070   4.576  15.595  0.7137 -0.1986  0.1327
10658TIP3    H253390   4.934   4.538  15.650 -0.4937  1.8897 -1.2897
10659TIP3   OH253391   5.205   4.345   5.079  0.3846 -0.4302 -0.1725
10659TIP3    H153392   5.200   4.256   5.114  0.5463 -0.2286  0.3681
10659TIP3    H253393   5.296   4.372   5.094 -0.4049  1.0124  2.6411
10660TIP3   OH253394   1.493   3.838  14.607 -0.4327  0.2429  0.2339
10660TIP3    H153395   1.493   3.777  14.680 -3.1006 -0.2200 -0.0397
10660TIP3    H253396   1.560   3.903  14.629 -0.7437 -0.2063  2.7793
10661TIP3   OH253397   1.014   4.316  13.397  0.3053 -0.5283  0.5038
10661TIP3    H153398   0.946   4.295  13.461 -0.2259  0.6916  0.3735
10661TIP3    H253399   1.003   4.410  13.380  1.0795 -0.6196 -0.6277
10662TIP3   OH253400   0.230   0.780  14.761  0.1841 -0.6688  0.1339
10662TIP3    H153401   0.215   0.693  14.724 -0.4676 -1.0802  1.3016
10662TIP3    H253402   0.143   0.819  14.769  0.2163 -0.8262  1.7118
10663TIP3   OH253403   4.278   6.617  13.946  0.5418  0.3812  0.0818
10663TIP3    H153404   4.188   6.644  13.961 -0.5788 -2.2970 -1.2507
10663TIP3    H253405   4.293   6.629  13.852  2.0974  2.0523  0.4743
10664TIP3   OH253406   5.882   1.017   3.183  0.0054 -0.0673 -0.2463
10664TIP3    H153407   5.860   1.109   3.171 -0.6755 -0.1805  0.0765
10664TIP3    H253408   5.863   1.000   3.276  0.3255 -0.4798 -0.2543
10665TIP3   OH253409   6.283   3.237  14.477 -0.5712  0.4004  0.2758
10665TIP3    H153410   6.226   3.288  14.535 -2.4593 -1.3014  0.0088
10665TIP3    H253411   6.312   3.163  14.531 -0.3273  0.1239 -0.2247
10666TIP3   OH253412   0.222   4.992   2.111 -0.3774 -0.3664  0.3927
10666TIP3    H153413   0.238   5.086   2.124  0.0263 -0.4753  0.7080
10666TIP3    H253414   0.282   4.967   2.041 -1.2147 -0.1810 -0.4209
10667TIP3   OH253415   0.973   2.482  14.334  0.0345 -0.7575  0.2150
10667TIP3    H153416   0.965   2.559  14.278  2.4444  1.8956  3.1183
10667TIP3    H253417   1.050   2.435  14.300  0.8682  0.2710  0.6199
10668TIP3   OH253418   6.206   6.110   0.191  0.4636  0.0727 -0.1270
10668TIP3    H153419   6.271   6.077   0.253 -0.4741 -1.2703  0.1894
10668TIP3    H253420   6.254   6.119   0.108  1.8285  2.2515  0.8003
10669TIP3   OH253421   4.465   5.864  12.963 -0.1497 -0.1498  0.6210
10669TIP3    H153422   4.514   5.939  12.930 -0.9629  0.0623 -0.1238
10669TIP3    H253423   4.469   5.800  12.892 -0.9420 -0.1344  0.5583
10670TIP3   OH253424   5.120   4.350   1.791  0.4381  0.3377 -0.0506
10670TIP3    H153425   5.202   4.321   1.750  1.8588 -0.3937  2.9615
10670TIP3    H253426   5.106   4.286   1.861 -2.8181  0.4110 -0.5011
10671TIP3   OH253427   5.112   0.721  17.165 -0.1807 -0.1430  0.0121
10671TIP3    H153428   5.056   0.776  17.220 -1.2105  0.3743 -1.4848
10671TIP3    H253429   5.188   0.777  17.145 -0.3008  0.0418  0.0657
10672TIP3   OH253430   4.343   5.112  16.510  0.2048 -0.0299  0.1933
10672TIP3    H153431   4.256   5.085  16.537  0.0456 -0.5723 -0.8352
10672TIP3    H253432   4.354   5.076  16.422  2.2613 -1.8097  1.0790
10673TIP3   OH253433   1.910   6.149  17.119  0.0203 -0.0340 -0.0271
10673TIP3    H153434   1.948   6.191  17.042 -0.8197 -0.3070 -0.6153
10673TIP3    H253435   1.832   6.201  17.139  0.5109  0.3360  0.9612
10674TIP3   OH253436   5.028   4.821   5.858  0.4928 -0.2036 -0.8643
10674TIP3    H153437   5.068   4.857   5.937 -1.5984  0.8481 -0.1999
10674TIP3    H253438   5.002   4.897   5.807 -0.1885 -0.8276 -1.4828
10675TIP3   OH253439   6.308   1.312   5.535  0.2537  0.2328 -0.0782
10675TIP3    H153440   6.328   1.406   5.537  0.7664  0.1168  0.5279
10675TIP3    H253441   6.281   1.292   5.624 -0.6653 -0.0305 -0.4118
10676TIP3   OH253442   2.325   5.706   5.506 -0.0837  0.1585 -0.1922
10676TIP3    H153443   2.374   5.629   5.478 -0.2555  0.0819 -0.2779
10676TIP3    H253444   2.313   5.693   5.600  0.0606  0.1784 -0.1700
10677TIP3   OH253445   2.070   3.761  13.468  0.2280 -0.8631  0.7259
10677TIP3    H153446   2.007   3.824  13.435  0.3270 -0.7765  0.7019
10677TIP3    H253447   2.118   3.808  13.537  0.9903 -0.5871  0.0190
10678TIP3   OH253448   4.374   5.124   2.710  0.0847  0.0574 -0.5416
10678TIP3    H153449   4.324   5.185   2.762 -0.6643 -0.8098 -0.2178
10678TIP3    H253450   4.466   5.147   2.726  0.0522 -1.7104  3.1712
10679TIP3   OH253451   2.394   2.599  15.447 -0.2686  0.9004 -0.3104
10679TIP3    H153452   2.313   2.560  15.416 -1.0568  1.0789  1.4012
10679TIP3    H253453   2.450   2.524  15.468 -0.1895  0.7730 -0.9388
10680TIP3   OH253454   4.008   0.443  11.195  0.2274  0.7106  0.4581
10680TIP3    H153455   4.077   0.384  11.226 -2.5552 -2.3676  1.3714
10680TIP3    H253456   4.023   0.450  11.101  1.4804 -0.2666  0.5519
10681TIP3   OH253457   0.387   1.878   5.549 -0.0119  0.4330  0.1154
10681TIP3    H153458   0.374   1.960   5.596  2.7474  0.8581  0.3024
10681TIP3    H253459   0.399   1.812   5.618 -3.1120 -0.4313 -0.0077
10682TIP3   OH253460   3.267   3.325   5.714 -0.5888  0.3682 -0.6159
10682TIP3    H153461   3.353   3.335   5.672  0.2740 -1.2505  0.6313
10682TIP3    H253462   3.258   3.402   5.770 -1.1764  1.8961 -2.7062
10683TIP3   OH253463   0.211   3.964  10.632 -0.5487  0.0519  0.1208
10683TIP3    H153464   0.299   4.000  10.647 -1.0952  0.4115  2.9502
10683TIP3    H253465   0.219   3.915  10.550  1.9019  1.2315 -0.4458
10684TIP3   OH253466   0.225   0.286   3.926  0.3140  0.0552  0.3090
10684TIP3    H153467   0.245   0.239   4.007  0.7107 -0.0721  0.1408
10684TIP3    H253468   0.234   0.379   3.950 -1.6379  0.1105  0.9455
10685TIP3   OH253469   0.680   5.134  15.546 -0.5529 -0.3754  0.4021
10685TIP3    H153470   0.605   5.075  15.554 -0.7858  0.0106  1.0678
10685TIP3    H253471   0.691   5.172  15.633  0.2087 -0.1721  0.2256
10686TIP3   OH253472   5.251   1.402  12.582  0.6293 -0.1529  0.1781
10686TIP3    H153473   5.321   1.458  12.614  1.6292  0.0759 -2.2341
10686TIP3    H253474   5.282   1.370  12.498 -1.8007 -0.7577 -0.5678
10687TIP3   OH253475   5.918   6.527   0.405 -0.7282 -0.2842 -0.1459
10687TIP3    H153476   5.956   6.571   0.329 -1.3310  1.9611  0.7533
10687TIP3    H253477   5.970   6.559   0.479 -0.5724 -1.9111  0.4717
10688TIP3   OH253478   6.195   4.457   0.756 -0.5072  0.6347  0.6413
10688TIP3    H153479   6.262   4.470   0.823 -0.9336  0.9005  1.0233
10688TIP3    H253480   6.244   4.432   0.678  0.0042  0.3698  1.0356
10689TIP3   OH253481   0.700   0.741   2.812  0.3430  0.2895 -0.3377
10689TIP3    H153482   0.682   0.657   2.855  2.9294 -0.6655 -0.9262
10689TIP3    H253483   0.676   0.807   2.876  1.0062 -1.0035  1.3114
10690TIP3   OH253484   0.164   6.581  15.221  0.2430 -0.4394 -0.2114
10690TIP3    H153485   0.165   6.633  15.301  0.6781  0.7209 -0.9542
10690TIP3    H253486   0.224   6.626  15.162  0.7316 -1.8596 -0.8458
10691TIP3   OH253487   3.729   2.434  12.156 -0.2051 -0.0190 -0.2304
10691TIP3    H153488   3.768   2.426  12.243  0.4285 -1.4240 -0.6159
10691TIP3    H253489   3.635   2.418  12.170  0.1921 -2.6558 -0.0792
10692TIP3   OH253490   2.642   5.549  15.606 -0.0678  0.6145 -0.2077
10692TIP3    H153491   2.649   5.457  15.580 -0.8411  0.3604  0.4602
10692TIP3    H253492   2.704   5.558  15.678 -0.9792  0.2705  0.6297
10693TIP3   OH253493   1.088   4.158  16.091 -0.1494  0.9469  0.4378
10693TIP3    H153494   1.057   4.081  16.139  1.8208  0.4266  0.9762
10693TIP3    H253495   1.163   4.126  16.041  1.1011  2.6356  1.1652
10694TIP3   OH253496   3.392   0.243  11.659  0.4436  0.2263  0.3792
10694TIP3    H153497   3.315   0.265  11.712  0.8773  0.0122  1.1241
10694TIP3    H253498   3.415   0.155  11.688  0.3483 -0.1224 -0.5981
10695TIP3   OH253499   3.124   0.601  16.839 -0.2182  0.2026  0.0857
10695TIP3    H153500   3.160   0.541  16.774 -2.3267 -0.1033 -0.8935
10695TIP3    H253501   3.189   0.603  16.909 -0.2734 -3.7899  0.4910
10696TIP3   OH253502   0.172   6.557  15.784 -0.2023 -0.1086  0.2140
10696TIP3    H153503   0.212   6.478  15.820 -1.3678 -0.5579  0.5657
10696TIP3    H253504   0.207   6.628  15.839  2.2514 -0.0832 -1.2030
10697TIP3   OH253505   5.943   3.500   2.932 -0.3796 -0.3265  0.0959
10697TIP3    H153506   5.852   3.472   2.924 -0.5595  0.7242 -2.3556
10697TIP3    H253507   5.946   3.586   2.890  1.1118  1.2660  3.1176
10698TIP3   OH253508   5.358   4.332  11.893  0.1509  0.4825  0.0166
10698TIP3    H153509   5.286   4.284  11.854 -0.6624  2.1727 -0.6585
10698TIP3    H253510   5.418   4.264  11.925 -1.5024 -0.9555  0.2030
10699TIP3   OH253511   1.879   5.578  12.086  0.2265 -0.0043 -0.6959
10699TIP3    H153512   1.942   5.619  12.146  2.7469 -0.5495 -2.7986
10699TIP3    H253513   1.794   5.590  12.129  1.5747  1.8750  1.7073
10700TIP3   OH253514   5.075   2.205   3.342  0.5400  0.2508  0.6918
10700TIP3    H153515   5.158   2.157   3.341  0.4233  0.0569  0.1364
10700TIP3    H253516   5.065   2.233   3.433  0.3596 -1.1969  1.1397
10701TIP3   OH253517   1.464   3.467  17.013  0.1963  0.1487 -0.8211
10701TIP3    H153518   1.509   3.483  16.931  0.7622  0.0627 -0.5355
10701TIP3    H253519   1.516   3.398  17.056  0.1246  0.4510 -0.2310
10702TIP3   OH253520   5.035   2.611   2.427  0.1968 -0.5406 -0.3487
10702TIP3    H153521   4.993   2.594   2.512  0.9423  0.7519  0.3142
10702TIP3    H253522   5.081   2.529   2.407  2.4193 -0.0092  1.9710
10703TIP3   OH253523   1.977   5.811   4.386  0.9377  0.3471  0.1247
10703TIP3    H153524   1.997   5.881   4.448 -0.5745 -0.4647  1.6235
10703TIP3    H253525   1.891   5.832   4.352 -0.9338 -2.1049  2.8153
10704TIP3   OH253526   4.265   1.811   2.476  0.3106  0.3034 -0.0174
10704TIP3    H153527   4.291   1.799   2.567 -0.9894  2.6689  0.7397
10704TIP3    H253528   4.344   1.788   2.425  1.5290  0.3799  1.7559
10705TIP3   OH253529   3.340   6.593   1.294 -0.6596  0.5910 -0.0292
10705TIP3    H153530   3.308   6.582   1.204 -0.3448 -0.1207 -0.0643
10705TIP3    H253531   3.384   6.678   1.294  0.6379 -0.0588 -0.9538
10706TIP3   OH253532   4.226   5.084  11.991  0.4115  0.2183  0.1964
10706TIP3    H153533   4.243   5.108  12.082 -0.7819 -1.5974  0.9495
10706TIP3    H253534   4.209   4.990  11.994 -0.0365  0.1971 -1.8607
10707TIP3   OH253535   6.341   2.478   4.156  0.6344  0.2944  0.6258
10707TIP3    H153536   6.424   2.488   4.108  0.8234  0.3783  0.9696
10707TIP3    H253537   6.329   2.384   4.164  0.6458  0.2806  0.4880
10708TIP3   OH253538   5.257   6.696  16.303  0.1130  0.2239 -0.3875
10708TIP3    H153539   5.172   6.715  16.344  0.5549 -2.6501  2.2511
10708TIP3    H253540   5.318   6.758  16.345 -0.4238  1.5626 -1.5001
10709TIP3   OH253541   0.326   4.454   5.819  0.0157 -0.0745 -0.0890
10709TIP3    H153542   0.254   4.394   5.800 -0.8067  0.1965  1.9293
10709TIP3    H253543   0.393   4.400   5.859 -0.2634  0.1224  0.6740
10710TIP3   OH253544   2.172   6.149   2.885 -0.4870 -0.9646  0.1377
10710TIP3    H153545   2.266   6.139   2.871 -0.2539  1.4253 -0.3779
10710TIP3    H253546   2.142   6.062   2.911  2.1412 -1.4586  1.8985
10711TIP3   OH253547   5.028   2.050  14.915  0.1235  0.5308  0.3620
10711TIP3    H153548   5.089   2.000  14.970  0.8545  0.8798 -0.1215
10711TIP3    H253549   5.039   2.140  14.944 -1.1987  0.4459  1.2360
10712TIP3   OH253550   4.586   5.913  12.710  0.7802  0.3881  0.4216
10712TIP3    H153551   4.673   5.891  12.740  0.9972 -0.6466 -0.8874
10712TIP3    H253552   4.547   5.830  12.684  0.4370  1.1181 -1.6001
10713TIP3   OH253553   1.918   4.584  14.753  0.0135 -0.5386  0.0533
10713TIP3    H153554   1.935   4.492  14.734 -1.0492 -1.2026  2.0443
10713TIP3    H253555   1.831   4.601  14.716  0.1899 -0.3395 -0.2747
10714TIP3   OH253556   0.143   1.176   3.687 -0.0013  0.3172  0.3640
10714TIP3    H153557   0.060   1.213   3.716 -0.3681  0.7497 -1.1626
10714TIP3    H253558   0.149   1.092   3.732  0.0020  1.3909  2.5258
10715TIP3   OH253559   0.993   2.049   0.179 -0.3968  0.2637 -0.1771
10715TIP3    H153560   1.028   2.044   0.268  0.5186  1.4710 -0.4389
10715TIP3    H253561   1.011   2.139   0.152 -1.5957  0.2151 -1.2145
10716TIP3   OH253562   0.795   0.714   0.671  0.6531  0.4460  0.0589
10716TIP3    H153563   0.839   0.663   0.739  0.9143  1.2620  0.5089
10716TIP3    H253564   0.766   0.794   0.716 -2.6832 -0.6955  0.2010
10717TIP3   OH253565   1.169   4.625   3.260 -0.1202  0.4861 -0.6150
10717TIP3    H153566   1.167   4.720   3.268 -3.0372  0.4665 -0.0009
10717TIP3    H253567   1.256   4.605   3.225 -0.3410  3.5581 -3.3026
10718TIP3   OH253568   4.617   0.702   3.796 -0.3006 -0.0218  0.8342
10718TIP3    H153569   4.696   0.651   3.816  1.6216  1.8733 -1.2123
10718TIP3    H253570   4.553   0.674   3.860  2.1495 -1.4734  2.8387
10719TIP3   OH253571   4.482   0.825   1.037  0.1645 -0.0910  0.2352
10719TIP3    H153572   4.505   0.735   1.017  0.3313 -0.7233  2.9557
10719TIP3    H253573   4.538   0.849   1.110 -0.9387  1.7223  0.5613
10720TIP3   OH253574   3.071   3.542  13.184 -0.1621 -0.2915 -0.3210
10720TIP3    H153575   3.149   3.503  13.222 -0.7330 -1.5460 -0.3946
10720TIP3    H253576   3.067   3.630  13.222  0.2695 -0.8735  1.1160
10721TIP3   OH253577   0.805   5.957   4.833  0.1878  0.3095 -0.3665
10721TIP3    H153578   0.778   6.019   4.765  1.0299  0.0903 -0.9163
10721TIP3    H253579   0.898   5.943   4.818  0.7445  1.3686  1.7486
10722TIP3   OH253580   6.044   0.830   4.841 -0.0887  0.3653  0.3704
10722TIP3    H153581   6.047   0.919   4.806  1.5731  0.6337  1.0964
10722TIP3    H253582   6.055   0.774   4.764  0.4316  0.8502  0.0826
10723TIP3   OH253583   4.121   0.027   1.484  0.0653  0.0221 -0.1968
10723TIP3    H153584   4.056   0.087   1.520 -0.0245 -0.3021  0.1941
10723TIP3    H253585   4.070  -0.045   1.448  0.2319 -1.4332  2.2517
10724TIP3   OH253586   0.221   5.996  16.785 -0.2305 -0.2334 -0.3940
10724TIP3    H153587   0.277   5.921  16.805  0.8000  0.2824 -1.2968
10724TIP3    H253588   0.228   6.053  16.861  1.2709  0.2847 -0.8853
10725TIP3   OH253589   5.277   5.737   5.068  0.0505 -0.3363  0.5260
10725TIP3    H153590   5.278   5.829   5.042 -2.5976  0.3171  2.3576
10725TIP3    H253591   5.197   5.727   5.120  0.8302 -3.4249  1.3617
10726TIP3   OH253592   1.286   6.531  16.446 -0.5687 -0.3706  0.1846
10726TIP3    H153593   1.285   6.501  16.538 -1.0014  0.5574  0.4922
10726TIP3    H253594   1.200   6.504  16.412  0.4097 -2.7344 -0.6491
10727TIP3   OH253595   5.705   0.081  11.408  0.1375  0.1114 -0.1508
10727TIP3    H153596   5.679   0.011  11.469  2.1686 -2.5409 -2.1266
10727TIP3    H253597   5.680   0.162  11.454 -3.8873 -1.7996  1.5749
10728TIP3   OH253598   5.115   1.375  13.213  0.9977 -0.2686 -0.0444
10728TIP3    H153599   5.132   1.283  13.235  0.5283 -0.2504  0.4027
10728TIP3    H253600   5.064   1.371  13.133 -2.4328 -0.5806  1.9854
10729TIP3   OH253601   1.560   1.129   6.475  0.4595 -0.1041 -0.3115
10729TIP3    H153602   1.507   1.074   6.533  1.6750 -2.9141 -1.6398
10729TIP3    H253603   1.645   1.084   6.471  1.5250  1.8567 -1.6148
10730TIP3   OH253604   0.944   6.544  10.672  0.3415 -0.1235 -0.4591
10730TIP3    H153605   1.013   6.583  10.726 -0.7854 -2.1961  2.7868
10730TIP3    H253606   0.890   6.618  10.645  2.5655  1.2997 -1.3024
10731TIP3   OH253607   5.169   5.947   3.614 -0.1557  0.1448  0.2429
10731TIP3    H153608   5.151   5.951   3.708  0.1614  0.1116  0.3082
10731TIP3    H253609   5.085   5.962   3.572 -0.3086  0.1047  0.5350
10732TIP3   OH253610   3.935   4.997  15.225 -0.7154 -0.5544  0.3629
10732TIP3    H153611   3.931   4.906  15.195  0.9042 -0.4761 -0.1670
10732TIP3    H253612   4.021   5.005  15.265 -1.5137  0.2994  1.9926
10733TIP3   OH253613   1.195   2.185  16.511  0.0609  0.4173 -0.0055
10733TIP3    H153614   1.283   2.211  16.539  1.0987 -0.9739 -1.6943
10733TIP3    H253615   1.205   2.167  16.417 -0.9591 -3.7256  0.4849
10734TIP3   OH253616   4.993   0.864  15.977 -0.3147 -0.1822 -0.6179
10734TIP3    H153617   4.991   0.955  15.947 -2.6454 -0.0659 -0.3137
10734TIP3    H253618   4.914   0.824  15.938  0.5543 -2.0482 -0.6081
10735TIP3   OH253619   4.746   3.109   0.909 -0.6531  0.2280  0.2294
10735TIP3    H153620   4.834   3.087   0.878 -0.8855  0.5404 -0.6839
10735TIP3    H253621   4.723   3.189   0.862 -0.0662  2.1706  3.0202
10736TIP3   OH253622   6.422   5.330   1.229  0.4692 -0.3036  0.8016
10736TIP3    H153623   6.347   5.382   1.202  1.0932  0.0567 -0.3329
10736TIP3    H253624   6.483   5.393   1.266  1.0043 -0.2753 -0.0834
10737TIP3   OH253625   1.827   4.546  14.072 -0.2097 -0.7499  0.4288
10737TIP3    H153626   1.813   4.568  14.164 -0.3611 -0.0639  0.2458
10737TIP3    H253627   1.922   4.546  14.061 -0.1745 -1.3672  0.7099
10738TIP3   OH253628   1.748   4.302  12.516  0.0384 -0.3132 -0.4852
10738TIP3    H153629   1.699   4.332  12.440  0.9759 -0.3703 -1.1206
10738TIP3    H253630   1.800   4.228  12.484  1.9114  0.8535 -0.2960
10739TIP3   OH253631   5.913   5.949   0.561  0.3426 -0.3240  0.1356
10739TIP3    H153632   5.856   6.000   0.619 -0.5098  0.5531 -1.4093
10739TIP3    H253633   5.989   5.929   0.615 -0.5170  0.2367  1.6305
10740TIP3   OH253634   3.069   4.635   0.955 -0.4017  0.0303 -0.2352
10740TIP3    H153635   3.085   4.550   0.996  0.1663  0.0125 -0.4824
10740TIP3    H253636   2.977   4.633   0.930 -0.0099 -1.2019 -1.7635
10741TIP3   OH253637   6.364   0.690   5.812 -0.2108 -0.3676 -0.2581
10741TIP3    H153638   6.386   0.646   5.730  0.3991 -0.8974  0.1821
10741TIP3    H253639   6.321   0.771   5.785  1.6540  0.3874 -1.1467
10742TIP3   OH253640   4.366   4.500  16.127 -0.1596 -0.1099 -0.3796
10742TIP3    H153641   4.315   4.466  16.200  1.0933  0.9369  1.0614
10742TIP3    H253642   4.304   4.554  16.078 -0.5281  1.0598  1.2700
10743TIP3   OH253643   1.908   0.243  16.205  0.2343 -0.5534  0.0628
10743TIP3    H153644   1.929   0.321  16.257  1.7173 -0.5439 -0.5039
10743TIP3    H253645   1.901   0.276  16.115  0.7009 -1.0472 -0.1549
10744TIP3   OH253646   0.982   2.452  13.254  0.2266 -0.4941 -0.1353
10744TIP3    H153647   1.014   2.442  13.164 -0.9685 -0.4402 -0.5895
10744TIP3    H253648   0.960   2.363  13.281 -0.8355 -0.3429 -0.4600
10745TIP3   OH253649   5.271   3.450   0.546 -0.8103  0.1075 -0.0096
10745TIP3    H153650   5.254   3.490   0.460  1.2410 -0.2041 -0.6119
10745TIP3    H253651   5.352   3.492   0.576  0.2238 -2.0010  0.3245
10746TIP3   OH253652   0.727   0.542  17.046 -0.0293  0.2359  0.1534
10746TIP3    H153653   0.634   0.535  17.028  0.2495 -1.3312 -0.9460
10746TIP3    H253654   0.733   0.594  17.126 -1.7542  1.3670 -0.4087
10747TIP3   OH253655   3.573   5.734  16.950 -0.4040 -0.0694  0.2298
10747TIP3    H153656   3.666   5.729  16.973 -0.5757 -0.2327  0.9168
10747TIP3    H253657   3.571   5.729  16.855  0.3386  0.6717  0.1657
10748TIP3   OH253658   2.537   6.443  16.507 -0.1872 -0.3832 -0.2385
10748TIP3    H153659   2.505   6.508  16.444 -0.2158 -0.5912 -0.4431
10748TIP3    H253660   2.632   6.449  16.501 -0.1533 -1.7090 -1.7026
10749TIP3   OH253661   2.413   5.921  14.964 -0.1839  0.2433  0.4328
10749TIP3    H153662   2.339   5.886  14.916  0.1679 -0.8980  0.7052
10749TIP3    H253663   2.408   5.880  15.050  0.6895  0.2500  0.4961
10750TIP3   OH253664   2.092   2.501  15.050  0.2322 -0.1500 -0.0909
10750TIP3    H153665   2.046   2.584  15.055 -1.5747 -0.9341 -2.0723
10750TIP3    H253666   2.183   2.522  15.072 -0.2860  2.2153  0.0138
10751TIP3   OH253667   2.670   4.331   0.325 -0.6199  0.4218  0.4544
10751TIP3    H153668   2.634   4.345   0.413  0.2926  0.4402  0.8406
10751TIP3    H253669   2.642   4.242   0.302 -1.1972  0.5631  0.5985
10752TIP3   OH253670   0.098   3.166  12.885  0.2196 -0.1991 -0.6045
10752TIP3    H153671   0.078   3.201  12.972  0.8882  0.0633 -0.5478
10752TIP3    H253672   0.182   3.206  12.862 -0.4408  0.5647 -1.8229
10753TIP3   OH253673   4.091   5.777   5.579  0.5069  0.2952 -0.0504
10753TIP3    H153674   4.047   5.693   5.587 -2.4384  1.9122  3.0828
10753TIP3    H253675   4.064   5.811   5.494  0.7566 -1.3275 -0.8165
10754TIP3   OH253676   2.412   3.726  16.469  0.4150  0.2703  0.3256
10754TIP3    H153677   2.382   3.801  16.521 -0.3393  0.2701 -0.1016
10754TIP3    H253678   2.418   3.760  16.380  0.8649  0.0355  0.2630
10755TIP3   OH253679   1.911   1.684  13.721 -0.5309 -0.3628  0.0730
10755TIP3    H153680   2.003   1.675  13.697 -0.7435 -0.8328 -0.5928
10755TIP3    H253681   1.910   1.681  13.816  0.3729  1.7755  0.2120
10756TIP3   OH253682   0.130   2.814  14.534  0.0862 -0.3606 -0.0056
10756TIP3    H153683   0.177   2.889  14.570  0.1468 -1.7121  3.0693
10756TIP3    H253684   0.174   2.794  14.452  1.2917  1.7716  0.0648
10757TIP3   OH253685   2.483   4.815  12.612 -0.2978 -0.4393 -0.1606
10757TIP3    H153686   2.454   4.813  12.703 -1.4048 -0.0453 -0.4860
10757TIP3    H253687   2.506   4.907  12.597  2.9583 -1.0181  0.6062
10758TIP3   OH253688   4.037   2.793   4.711 -0.4431 -0.1639 -0.7042
10758TIP3    H153689   4.057   2.883   4.684 -0.4764 -0.3182 -1.2471
10758TIP3    H253690   3.951   2.801   4.753 -0.2976  0.1128 -0.4529
10759TIP3   OH253691   1.828   0.595  16.156 -0.1085 -0.3246 -0.0553
10759TIP3    H153692   1.768   0.648  16.104  0.7679  0.9392  0.1681
10759TIP3    H253693   1.773   0.530  16.199 -1.3227  0.8610  0.2276
10760TIP3   OH253694   3.993   3.453  15.664 -0.1726 -0.4345  0.0762
10760TIP3    H153695   4.027   3.474  15.577 -0.9161 -0.3910 -0.2133
10760TIP3    H253696   3.940   3.529  15.688 -0.6653 -0.8052  0.1954
10761TIP3   OH253697   1.756   3.064  16.863 -0.4728  0.3677 -1.0823
10761TIP3    H153698   1.707   3.095  16.939 -0.4970  0.4108 -1.1154
10761TIP3    H253699   1.794   2.981  16.890 -0.9878  0.0790 -1.2199
10762TIP3   OH253700   6.754   5.611   2.767  0.0709  0.0548  0.7493
10762TIP3    H153701   6.843   5.580   2.749  0.2996  0.9065  0.3602
10762TIP3    H253702   6.736   5.673   2.696 -1.0732 -0.5652  0.4686
10763TIP3   OH253703   6.236   0.219   1.784 -0.1542 -0.4247 -0.6762
10763TIP3    H153704   6.174   0.285   1.815  0.5344 -0.6922  1.4254
10763TIP3    H253705   6.262   0.250   1.698  1.0862  2.8084  0.6951
10764TIP3   OH253706   5.127   2.487   3.116 -0.3834  0.1267 -0.0380
10764TIP3    H153707   5.035   2.503   3.094 -0.2991  2.4859  0.9920
10764TIP3    H253708   5.124   2.430   3.192 -0.9513 -0.5103 -0.5260
10765TIP3   OH253709   6.722   4.812  13.531 -0.0410 -0.2424  0.3906
10765TIP3    H153710   6.655   4.838  13.594  0.1672 -0.2366  0.6129
10765TIP3    H253711   6.704   4.864  13.453 -1.5283 -1.6935 -0.2860
10766TIP3   OH253712   5.115   0.347   3.622 -0.1304 -0.5127  0.2246
10766TIP3    H153713   5.177   0.328   3.551 -0.4765 -0.4728 -0.0947
10766TIP3    H253714   5.064   0.421   3.590  0.2858  0.0713  0.8855
10767TIP3   OH253715   5.823   0.916   2.650  0.7707  0.4778  0.3676
10767TIP3    H153716   5.877   0.971   2.705  1.2260  1.1965 -0.7637
10767TIP3    H253717   5.842   0.945   2.561 -0.6012 -0.0389 -0.1257
10768TIP3   OH253718   1.888   3.722  13.133 -0.2416  0.9571  0.3202
10768TIP3    H153719   1.896   3.807  13.089 -0.7237  1.1947  0.6868
10768TIP3    H253720   1.974   3.706  13.171  0.1147  0.8647 -0.4929
10769TIP3   OH253721   2.134   2.616   2.423 -0.0966  0.0677  0.0630
10769TIP3    H153722   2.192   2.614   2.347 -0.4559  0.6657 -0.2295
10769TIP3    H253723   2.105   2.707   2.429  1.7034  0.5816  2.2709
10770TIP3   OH253724   0.778   1.959   1.110 -0.7038  0.3121 -0.0074
10770TIP3    H153725   0.739   2.005   1.184  0.9993  1.5127  0.2169
10770TIP3    H253726   0.872   1.979   1.117 -0.1791 -1.4949 -1.1378
10771TIP3   OH253727   2.739   5.366   3.779  0.8288 -0.0749 -0.2488
10771TIP3    H153728   2.747   5.323   3.864  1.4832 -0.1839 -0.3626
10771TIP3    H253729   2.685   5.443   3.797  1.3986  0.1903  0.3807
10772TIP3   OH253730   6.431   5.716   2.006  0.3866 -0.4254 -0.2769
10772TIP3    H153731   6.481   5.675   2.077  0.1378 -0.2583 -0.0023
10772TIP3    H253732   6.430   5.809   2.028 -1.6557 -0.6307  0.7565
10773TIP3   OH253733   6.081   0.868  15.171  0.4570  0.2140 -0.3384
10773TIP3    H153734   6.058   0.781  15.204 -0.8058  1.4574  2.4152
10773TIP3    H253735   6.000   0.917  15.176  1.2209  1.6826 -1.5459
10774TIP3   OH253736   5.591   2.076   3.439  0.1451 -0.3432  0.2282
10774TIP3    H153737   5.576   1.985   3.413 -0.6179 -0.3230  0.5822
10774TIP3    H253738   5.512   2.102   3.485  0.7030  0.2379  0.8858
10775TIP3   OH253739   3.387   2.858  11.526  0.5602 -0.4162  0.1978
10775TIP3    H153740   3.382   2.851  11.431  0.8019 -0.6999  0.2063
10775TIP3    H253741   3.314   2.916  11.550 -0.8416 -2.0352  0.0458
10776TIP3   OH253742   4.908   1.071   5.544  0.2575 -0.7383  0.7985
10776TIP3    H153743   4.934   1.159   5.517 -0.3733 -0.8460 -0.2155
10776TIP3    H253744   4.887   1.080   5.637  0.3393  0.1507  0.7458
10777TIP3   OH253745   5.846   5.607   0.024  0.0666  0.1180 -0.0708
10777TIP3    H153746   5.843   5.551  -0.054 -0.3073  0.4942 -0.3348
10777TIP3    H253747   5.754   5.630   0.040 -0.1015 -1.6038  1.6944
10778TIP3   OH253748   0.538   1.251   2.608 -0.1910 -0.3864 -0.1278
10778TIP3    H153749   0.477   1.307   2.657 -1.3008 -1.6488 -0.0080
10778TIP3    H253750   0.513   1.162   2.632  1.4410 -0.9605 -0.4279
10779TIP3   OH253751   4.083   4.882   3.836  0.6203  0.2300  0.5850
10779TIP3    H153752   4.077   4.878   3.931 -0.7169  0.1444  0.5190
10779TIP3    H253753   4.077   4.791   3.807  0.5003  0.2960  0.3968
10780TIP3   OH253754   2.263   6.752  15.412  0.4731  0.1080  0.2460
10780TIP3    H153755   2.176   6.790  15.408  1.0076  1.3753  0.1159
10780TIP3    H253756   2.314   6.814  15.465  1.3715 -0.4441  0.0536
10781TIP3   OH253757   3.026   1.247   1.307  0.2327 -0.0384 -0.3513
10781TIP3    H153758   2.955   1.311   1.301  1.3588  1.2044 -0.8200
10781TIP3    H253759   3.045   1.223   1.217  2.1795  1.7114 -0.4960
10782TIP3   OH253760   3.678   4.064   0.955  0.5489 -0.1101  0.4761
10782TIP3    H153761   3.731   4.037   1.030  1.5910 -1.7667 -0.7955
10782TIP3    H253762   3.640   3.984   0.922  0.3362  0.5456 -0.9337
10783TIP3   OH253763   6.704   6.604   2.001  0.0065  0.3671  0.0617
10783TIP3    H153764   6.624   6.610   2.054 -0.8740  2.8086 -1.3761
10783TIP3    H253765   6.775   6.597   2.065 -1.2442 -0.5611  1.4116
10784TIP3   OH253766   3.818   1.619   3.478  0.7586 -0.2170  0.0711
10784TIP3    H153767   3.809   1.523   3.475  1.8658 -0.3352  0.1083
10784TIP3    H253768   3.913   1.634   3.472  0.5517  0.9051 -0.5666
10785TIP3   OH253769   1.907   3.713   1.276 -0.1454  0.5281  0.3268
10785TIP3    H153770   1.830   3.680   1.229 -0.1274  0.6176  0.2334
10785TIP3    H253771   1.980   3.699   1.216 -0.4108  2.5700 -0.5804
10786TIP3   OH253772   1.162   0.199  16.450 -0.4162  0.3712 -0.6670
10786TIP3    H153773   1.128   0.214  16.362 -0.4674  0.0801 -0.6983
10786TIP3    H253774   1.208   0.280  16.472  1.5109 -0.3316 -1.8459
10787TIP3   OH253775   5.688   1.681   0.075  0.2856 -0.2187  0.2266
10787TIP3    H153776   5.744   1.605   0.065 -0.8148 -0.7992 -2.9254
10787TIP3    H253777   5.734   1.751   0.029  0.1968  0.3669  1.0136
10788TIP3   OH253778   2.675   5.965  11.031 -0.1849  0.7287 -0.1923
10788TIP3    H153779   2.609   6.020  11.071 -2.1593 -0.5618 -1.5126
10788TIP3    H253780   2.732   6.026  10.984 -0.0930  1.8986  1.3593
10789TIP3   OH253781   1.547   4.193  13.280 -0.4891  0.2410 -0.2306
10789TIP3    H153782   1.508   4.225  13.199 -1.2327  1.5850  0.6127
10789TIP3    H253783   1.473   4.154  13.327 -0.3378  0.6280  0.3394
10790TIP3   OH253784   1.711   5.804  16.401 -0.3335  0.4105  0.1509
10790TIP3    H153785   1.772   5.877  16.395 -0.2497  0.2522 -1.5471
10790TIP3    H253786   1.697   5.778  16.310 -3.3424  0.7762  0.4048
10791TIP3   OH253787   6.329   5.521  13.544  0.1311  0.4839 -0.3046
10791TIP3    H153788   6.380   5.590  13.587 -0.5630  0.5782  0.3939
10791TIP3    H253789   6.394   5.462  13.506  0.7861  0.0617  1.4101
10792TIP3   OH253790   1.454   2.006   4.567 -0.1327 -0.0852 -0.6271
10792TIP3    H153791   1.397   1.949   4.515  1.6948 -0.4123 -2.3706
10792TIP3    H253792   1.479   2.077   4.507  0.1789  0.8306  0.5388
10793TIP3   OH253793   1.796   1.154   0.324 -0.1291  0.2964  0.4994
10793TIP3    H153794   1.856   1.223   0.354 -1.3076  0.3657  2.9669
10793TIP3    H253795   1.805   1.154   0.229  0.9016  2.9447  0.5129
10794TIP3   OH253796   5.943   4.508   1.451  0.0194 -0.7777  0.1732
10794TIP3    H153797   5.855   4.532   1.423 -0.4991 -3.3089 -0.6754
10794TIP3    H253798   5.964   4.569   1.521 -2.5906 -0.3718  0.7035
10795TIP3   OH253799   4.670   5.735   2.284 -0.0424 -0.7787  0.7405
10795TIP3    H153800   4.623   5.714   2.365  0.5266 -0.8496  1.0579
10795TIP3    H253801   4.663   5.656   2.230 -1.4783 -0.3046  0.2028
10796TIP3   OH253802   5.933   6.513   6.427 -0.5042 -0.3168  0.0897
10796TIP3    H153803   5.980   6.532   6.345 -0.1306 -0.2257  0.3250
10796TIP3    H253804   5.919   6.418   6.425 -0.6959 -0.2840 -0.1865
10797TIP3   OH253805   0.791   4.441   5.268  0.5076  0.3117  0.0442
10797TIP3    H153806   0.705   4.475   5.292  0.7645  1.0614 -0.0774
10797TIP3    H253807   0.798   4.458   5.174  0.5541 -0.2858 -0.0658
10798TIP3   OH253808   0.538   0.338   5.705 -0.2361  0.3312  0.1092
10798TIP3    H153809   0.586   0.260   5.676 -1.4785 -0.2425 -0.5062
10798TIP3    H253810   0.512   0.319   5.795  1.5072  1.0696  0.8043
10799TIP3   OH253811   3.649   0.895  11.136  0.4981 -0.2401  0.2590
10799TIP3    H153812   3.558   0.874  11.118  0.1205  0.3873  1.3455
10799TIP3    H253813   3.652   0.913  11.230  1.8761 -0.8971  0.3744
10800TIP3   OH253814   6.380   4.137  13.379 -0.5223 -0.2031 -0.1044
10800TIP3    H153815   6.352   4.211  13.433  0.1589 -1.5598  2.3122
10800TIP3    H253816   6.475   4.147  13.372 -0.4766 -0.6070 -0.0957
10801TIP3   OH253817   5.728   4.609  12.836 -0.1019  0.4463  0.9810
10801TIP3    H153818   5.672   4.542  12.797 -0.3249  1.1725 -0.0202
10801TIP3    H253819   5.712   4.687  12.781  1.2523  0.8982  1.1991
10802TIP3   OH253820   6.011   5.819   3.941 -0.0384  0.5803  0.0393
10802TIP3    H153821   6.014   5.759   3.867 -1.1787  0.5681 -0.0139
10802TIP3    H253822   5.961   5.894   3.910 -0.9565  0.3627  0.9332
10803TIP3   OH253823   5.367   4.040   1.144  0.1606 -0.1140  0.0989
10803TIP3    H153824   5.379   3.946   1.161  1.6102 -0.0045 -0.1565
10803TIP3    H253825   5.273   4.053   1.148 -0.2019 -1.8547 -1.2330
10804TIP3   OH253826   5.932   5.576  15.320 -0.2495  0.1210  0.2146
10804TIP3    H153827   5.917   5.485  15.295 -0.5729  0.4145 -0.7206
10804TIP3    H253828   6.027   5.588  15.310 -0.0660 -0.3804  1.3107
10805TIP3   OH253829   1.406   2.536   2.140  0.3861 -0.0235 -0.2373
10805TIP3    H153830   1.411   2.448   2.104 -0.6318  0.6631 -2.2249
10805TIP3    H253831   1.312   2.556   2.140  0.7090  2.1307 -2.8104
10806TIP3   OH253832   6.740   2.597  13.544 -0.1047 -0.1480  0.6914
10806TIP3    H153833   6.674   2.572  13.479  2.4702 -0.4637 -2.0127
10806TIP3    H253834   6.808   2.530  13.536  2.2406  2.0740  0.6299
10807TIP3   OH253835   1.739   1.635   0.225 -1.0229 -0.0255  0.8750
10807TIP3    H153836   1.667   1.591   0.271 -2.1265 -2.2499 -2.5850
10807TIP3    H253837   1.770   1.571   0.162  1.3622  2.2700 -0.4766
10808TIP3   OH253838   3.213   4.074   3.900 -0.2343  0.4451 -0.2561
10808TIP3    H153839   3.123   4.068   3.932 -0.3035  2.0083 -0.0515
10808TIP3    H253840   3.232   4.168   3.902  1.4517  0.1300 -0.1635
10809TIP3   OH253841   6.318   5.814   1.686  0.0070  0.2141 -0.2564
10809TIP3    H153842   6.265   5.825   1.765 -0.8281 -2.2654 -0.3808
10809TIP3    H253843   6.382   5.747   1.709  0.7273  0.5280 -1.2606
10810TIP3   OH253844   4.403   6.049   5.637 -0.2788 -0.1080 -0.4790
10810TIP3    H153845   4.399   5.954   5.631  1.4715 -0.3172  0.8734
10810TIP3    H253846   4.314   6.076   5.658 -0.8320 -1.4178 -1.0379
10811TIP3   OH253847   0.131   0.483   0.900  0.1208 -0.2824 -0.3812
10811TIP3    H153848   0.074   0.527   0.963  0.6551 -0.0413 -0.0531
10811TIP3    H253849   0.136   0.393   0.931  3.4371  0.5933  2.2776
10812TIP3   OH253850   2.344   3.062  12.767  0.5943 -0.6651  0.8168
10812TIP3    H153851   2.258   3.098  12.792  0.4683 -1.4601  1.5631
10812TIP3    H253852   2.395   3.139  12.741 -0.3346 -0.1803  0.3857
10813TIP3   OH253853   6.336   5.880  15.136 -0.4843 -0.0277  0.0091
10813TIP3    H153854   6.393   5.866  15.213  0.5967 -0.4619 -0.8348
10813TIP3    H253855   6.394   5.918  15.070 -0.9523 -1.2791 -1.1713
10814TIP3   OH253856   1.625   1.061  10.996 -0.1572 -0.4088  0.4073
10814TIP3    H153857   1.653   1.033  10.909 -0.0640  1.4819 -0.2257
10814TIP3    H253858   1.704   1.056  11.050 -0.1199 -1.1950  0.2851
10815TIP3   OH253859   1.918   6.134  14.898 -0.0739  0.0575  0.0094
10815TIP3    H153860   1.892   6.042  14.892 -1.0234  0.1758  1.8125
10815TIP3    H253861   2.014   6.131  14.897 -0.0684 -0.7338 -2.2100
10816TIP3   OH253862   2.927   1.260  14.182 -0.3913  0.0525  0.6106
10816TIP3    H153863   2.948   1.245  14.090 -0.6934  2.1423  0.1368
10816TIP3    H253864   2.888   1.178  14.212 -2.4815  0.0388 -1.7995
10817TIP3   OH253865   6.688   4.509  17.023  0.3046 -0.4730  0.5813
10817TIP3    H153866   6.595   4.502  17.043  0.0938 -0.6753 -0.4094
10817TIP3    H253867   6.693   4.569  16.948  1.2372  1.8492  2.3814
10818TIP3   OH253868   0.893   6.024  13.771  0.7520 -0.3614  0.2964
10818TIP3    H153869   0.804   5.989  13.770 -0.7454  2.9507  1.6767
10818TIP3    H253870   0.937   5.975  13.841 -1.4167  0.7043  2.6015
10819TIP3   OH253871   4.677   6.744   6.374 -0.3867  0.0200 -0.1185
10819TIP3    H153872   4.670   6.657   6.415  1.0400 -0.2336 -0.3627
10819TIP3    H253873   4.761   6.742   6.328 -0.0572  1.7312  0.3358
10820TIP3   OH253874   0.640   4.573   1.133 -0.7876 -0.5023 -0.1518
10820TIP3    H153875   0.680   4.619   1.059 -0.4481 -1.1385 -0.3741
10820TIP3    H253876   0.582   4.637   1.173  1.6911  1.0568  1.2429
10821TIP3   OH253877   5.938   1.938   3.762 -0.3675  0.1944  0.3691
10821TIP3    H153878   5.900   2.017   3.724 -0.0877 -0.4385 -1.3040
10821TIP3    H253879   5.866   1.898   3.812 -0.9775  0.6489 -0.1389
10822TIP3   OH253880   4.173   1.705   1.024  0.9488  0.5848 -0.3175
10822TIP3    H153881   4.208   1.618   1.006  0.3902  0.2366  0.2414
10822TIP3    H253882   4.101   1.690   1.086  1.4552  1.5393  0.5259
10823TIP3   OH253883   1.676   1.609   3.086  0.4686  0.8312  0.4286
10823TIP3    H153884   1.693   1.523   3.123 -1.9604 -0.3455 -1.0210
10823TIP3    H253885   1.735   1.615   3.010 -0.7307 -0.4310 -0.6439
10824TIP3   OH253886   2.869   6.175  15.159 -0.4679  0.1822  0.3708
10824TIP3    H153887   2.961   6.192  15.176 -0.3130  0.0264 -0.2715
10824TIP3    H253888   2.852   6.089  15.198 -0.1742 -0.0803 -0.0671
10825TIP3   OH253889   1.798   1.936  13.684 -0.2852 -0.2407  0.3301
10825TIP3    H153890   1.875   1.948  13.628 -1.4695 -0.5708 -1.4568
10825TIP3    H253891   1.807   1.846  13.717  0.6335  0.0933  1.0166
10826TIP3   OH253892   1.763   5.926   1.315 -0.0750  0.2998  0.0433
10826TIP3    H153893   1.733   6.015   1.335 -0.0026 -0.0047  1.7024
10826TIP3    H253894   1.683   5.873   1.318 -0.3831  0.5060 -2.5953
10827TIP3   OH253895   6.485   3.596  15.577  0.0857  0.4601  0.6040
10827TIP3    H153896   6.431   3.674  15.583  0.4678  0.7955 -0.1361
10827TIP3    H253897   6.483   3.572  15.485 -1.8314 -1.7291  1.1249
10828TIP3   OH253898   5.134   6.084  13.418  0.5720  0.6751  0.1542
10828TIP3    H153899   5.223   6.107  13.444  0.1104 -0.7031  3.4029
10828TIP3    H253900   5.123   5.994  13.450 -1.2731 -0.0884 -2.2870
10829TIP3   OH253901   4.332   3.172   1.631  0.1480 -0.4209 -0.0431
10829TIP3    H153902   4.414   3.175   1.680  1.3098  0.0275 -1.8851
10829TIP3    H253903   4.285   3.097   1.666  1.4191 -0.7649  0.9730
10830TIP3   OH253904   1.413   0.151   1.586  0.1011 -0.3995 -0.0921
10830TIP3    H153905   1.442   0.242   1.583 -2.2433  0.5842  2.5975
10830TIP3    H253906   1.483   0.106   1.634  0.1241  0.5611  0.8123
10831TIP3   OH253907   3.366   3.939  15.295 -0.1836  0.0748 -0.1190
10831TIP3    H153908   3.430   3.899  15.353  0.1076 -0.7117 -0.9614
10831TIP3    H253909   3.305   3.868  15.273 -1.5343  0.8680  0.8862
10832TIP3   OH253910   3.565   2.712   1.132  0.2751 -0.4936  0.6450
10832TIP3    H153911   3.514   2.671   1.062 -0.4718 -1.4157  1.6837
10832TIP3    H253912   3.547   2.806   1.122  0.9783 -0.5058 -0.9806
10833TIP3   OH253913   1.993   4.964  11.745 -0.1856  0.3279 -0.1404
10833TIP3    H153914   1.984   4.957  11.840 -0.5789  1.3691 -0.0850
10833TIP3    H253915   1.948   5.045  11.723  1.0553  0.8023 -1.0556
10834TIP3   OH253916   2.182   4.833  13.931  0.1026 -0.6677  0.2139
10834TIP3    H153917   2.252   4.895  13.951  0.1611 -0.9936  1.0810
10834TIP3    H253918   2.212   4.750  13.969  0.9122 -1.7654 -2.5833
10835TIP3   OH253919   6.469   4.779   1.546 -0.9433  0.1839  0.6320
10835TIP3    H153920   6.527   4.705   1.562 -0.6599  0.5137  1.1915
10835TIP3    H253921   6.518   4.855   1.581 -1.2534  0.6173  0.1371
10836TIP3   OH253922   4.808   3.039  13.269  0.1643 -0.2700 -0.4302
10836TIP3    H153923   4.714   3.036  13.252  0.1207  0.6408 -0.3856
10836TIP3    H253924   4.832   3.130  13.256  0.3516  0.3338  3.0375
10837TIP3   OH253925   1.798   4.768   2.787 -0.1574 -0.2352 -0.1643
10837TIP3    H153926   1.881   4.757   2.740 -0.0428  1.0661 -0.2893
10837TIP3    H253927   1.736   4.795   2.719 -0.6817 -1.1415 -0.0622
10838TIP3   OH253928   6.209   5.555   2.612  0.3614 -0.2223 -0.5120
10838TIP3    H153929   6.174   5.640   2.585 -0.2741 -0.4523 -0.4318
10838TIP3    H253930   6.208   5.558   2.708  1.3006  0.0629 -0.5041
10839TIP3   OH253931   0.020   0.158   1.618  0.3524 -0.4941 -0.3769
10839TIP3    H153932   0.050   0.228   1.676  0.7575 -0.2525 -0.8796
10839TIP3    H253933  -0.035   0.103   1.674 -0.7852  0.7591 -0.2096
10840TIP3   OH253934   5.946   6.394  12.957 -0.1413 -0.4511  0.0309
10840TIP3    H153935   5.868   6.388  13.012 -0.5223 -0.1331 -0.4652
10840TIP3    H253936   5.990   6.474  12.985 -0.2705 -0.3550 -0.0402
10841TIP3   OH253937   3.937   2.224  13.303 -0.3794  0.4498 -0.1365
10841TIP3    H153938   3.842   2.219  13.291 -0.3145 -4.0621 -0.4932
10841TIP3    H253939   3.971   2.233  13.214 -0.3086  4.2575  0.1063
10842TIP3   OH253940   5.989   5.373   2.290 -0.0063  0.3883  0.2403
10842TIP3    H153941   6.069   5.385   2.238 -0.0798  0.8404  0.2269
10842TIP3    H253942   6.020   5.361   2.379  0.2687 -2.5181 -0.1203
10843TIP3   OH253943   6.501   1.676  14.724 -0.1040  0.9643  0.0612
10843TIP3    H153944   6.438   1.604  14.726 -0.7618  1.5129 -0.3405
10843TIP3    H253945   6.586   1.634  14.715 -0.4204  0.2130  0.5175
10844TIP3   OH253946   2.483   2.650   1.668 -0.1275 -0.5816 -0.1740
10844TIP3    H153947   2.417   2.624   1.733  1.0032 -0.8716  0.8965
10844TIP3    H253948   2.466   2.742   1.652  0.3173 -0.1881  1.4718
10845TIP3   OH253949   3.791   2.319  10.689 -0.3031 -0.1556  0.0434
10845TIP3    H153950   3.884   2.304  10.706 -0.3807  0.3899  1.0433
10845TIP3    H253951   3.756   2.232  10.669  0.2899 -0.4669  0.3474
10846TIP3   OH253952   6.261   0.627   3.589  0.4028 -0.3523  0.5707
10846TIP3    H153953   6.265   0.657   3.680  1.4199 -0.8554  0.7001
10846TIP3    H253954   6.327   0.679   3.544 -1.3937  1.2908 -0.3372
10847TIP3   OH253955   3.468   4.004  14.009 -0.3421  0.3321 -0.2071
10847TIP3    H153956   3.490   3.919  13.970 -1.2747  0.0010 -0.0403
10847TIP3    H253957   3.438   4.057  13.936 -2.8267 -0.5349  0.1018
10848TIP3   OH253958   5.158   0.746   2.193 -0.7373  0.0315 -0.1161
10848TIP3    H153959   5.090   0.809   2.214 -0.5596 -0.1805  1.1359
10848TIP3    H253960   5.183   0.708   2.277  3.7244  2.9435  0.2120
10849TIP3   OH253961   6.632   5.089   0.694  0.0768  0.2593  0.0950
10849TIP3    H153962   6.710   5.041   0.719  1.9834  1.7285 -2.5953
10849TIP3    H253963   6.623   5.156   0.763  0.2602 -0.8450  1.2237
10850TIP3   OH253964   2.108   1.460  15.068 -0.0890 -0.6937 -0.0849
10850TIP3    H153965   2.107   1.456  15.163 -0.2222 -0.3305 -0.0670
10850TIP3    H253966   2.024   1.500  15.045 -0.0062 -0.6665 -0.3486
10851TIP3   OH253967   0.316   6.296   2.770 -0.2733  0.6031  0.3079
10851TIP3    H153968   0.388   6.241   2.802 -3.1731 -2.6346  1.9303
10851TIP3    H253969   0.277   6.333   2.849 -3.1468 -1.6316  0.1026
10852TIP3   OH253970   0.752   0.019  11.884 -0.2492 -0.1720 -0.0249
10852TIP3    H153971   0.710  -0.027  11.811 -0.1361 -0.9849  0.4054
10852TIP3    H253972   0.827   0.063  11.844  0.1375 -1.0699 -0.3226
10853TIP3   OH253973   2.375   5.353   3.765  0.2935  0.2941 -0.6141
10853TIP3    H153974   2.425   5.434   3.778  1.3625 -0.2898 -0.9203
10853TIP3    H253975   2.370   5.314   3.853  0.4194  0.3281 -0.5919
10854TIP3   OH253976   3.922   6.051   4.414  0.1307  0.1198 -0.0397
10854TIP3    H153977   3.865   6.068   4.339 -2.1008 -3.2922  0.6458
10854TIP3    H253978   3.882   6.102   4.485 -0.9992 -0.7755 -0.0066
10855TIP3   OH253979   6.343   3.692  13.582 -0.1832  0.1191 -0.0623
10855TIP3    H153980   6.335   3.640  13.502  2.0011 -1.8726  0.9099
10855TIP3    H253981   6.385   3.773  13.554  0.7868 -0.6533 -0.9392
10856TIP3   OH253982   1.235   3.172   3.749  0.5396  0.0506  0.2213
10856TIP3    H153983   1.288   3.179   3.829 -0.0964 -1.2368  0.7955
10856TIP3    H253984   1.163   3.235   3.762 -0.2684 -1.0335  1.2792
10857TIP3   OH253985   0.743   5.824   1.389  0.1636  0.5586  0.2944
10857TIP3    H153986   0.718   5.843   1.299 -1.9558  0.5444  0.8120
10857TIP3    H253987   0.802   5.895   1.414  0.0183  1.0811 -0.8042
10858TIP3   OH253988   3.355   1.053   0.018 -0.2165 -0.0706 -0.6984
10858TIP3    H153989   3.396   1.130   0.058 -2.2855 -0.0681  1.6785
10858TIP3    H253990   3.262   1.074   0.015 -0.4296 -1.0113 -3.6627
10859TIP3   OH253991   2.308   1.224  16.531 -0.4363  0.4839 -0.1913
10859TIP3    H153992   2.397   1.233  16.497 -0.4535 -1.7231 -0.9626
10859TIP3    H253993   2.288   1.131  16.524 -3.0658  0.9739 -0.7002
10860TIP3   OH253994   1.972   0.923  15.848  0.0380 -0.5189  0.5082
10860TIP3    H153995   1.939   0.842  15.809  1.0346 -0.9977  0.6291
10860TIP3    H253996   1.908   0.944  15.916 -0.4596 -0.9688  0.1851
10861TIP3   OH253997   1.456   5.738   5.481  0.7929  0.0101 -0.3167
10861TIP3    H153998   1.455   5.740   5.385 -2.1737  0.0455 -0.3716
10861TIP3    H253999   1.462   5.830   5.507  0.9293  0.0420 -0.4556
10862TIP3   OH254000   2.858   2.105   2.217 -1.1578  0.0912  0.4268
10862TIP3    H154001   2.880   2.193   2.248 -3.5278  0.6167  0.7892
10862TIP3    H254002   2.899   2.046   2.280  0.6171  0.8802  0.0804
10863TIP3   OH254003   0.212   5.361   4.490  0.2067  0.0954 -0.3393
10863TIP3    H154004   0.253   5.447   4.494 -0.2331  0.2465  2.1215
10863TIP3    H254005   0.126   5.372   4.530  0.6993 -1.7489  1.3985
10864TIP3   OH254006   3.587   3.280  16.657 -0.3307 -0.5509  0.3446
10864TIP3    H154007   3.541   3.273  16.740 -0.6681 -1.3001  0.1001
10864TIP3    H254008   3.654   3.213  16.660 -1.2738 -1.5774 -0.5620
10865TIP3   OH254009   3.751   5.373  14.018  0.2335  0.8184 -0.0362
10865TIP3    H154010   3.764   5.464  14.045 -0.3532  0.7435  0.5348
10865TIP3    H254011   3.657   5.359  14.026  0.2729  0.2652 -0.4677
10866TIP3   OH254012   5.483   3.444  14.476 -0.0316  0.2612  0.2516
10866TIP3    H154013   5.502   3.365  14.527 -0.3446  0.4353  0.6399
10866TIP3    H254014   5.390   3.460  14.490 -0.6362 -0.8643 -2.0446
10867TIP3   OH254015   3.950   0.011   5.750  0.2924  0.1923  0.1342
10867TIP3    H154016   3.929  -0.026   5.836 -0.4105  1.6367  0.6149
10867TIP3    H254017   3.886  -0.028   5.691 -0.0346  0.1556  0.5051
10868TIP3   OH254018   5.120   2.815  16.043 -0.2755 -0.5885 -0.3820
10868TIP3    H154019   5.190   2.878  16.054 -1.3758  0.7849 -0.9423
10868TIP3    H254020   5.044   2.867  16.019 -1.7468 -1.9134  1.1124
10869TIP3   OH254021   3.560   5.091  15.392  0.1936 -0.0490 -0.1210
10869TIP3    H154022   3.587   5.046  15.472 -0.7175 -1.3563 -0.5105
10869TIP3    H254023   3.572   5.184  15.411 -3.0096 -0.0219  2.7694
10870TIP3   OH254024   4.821   4.652  11.827 -0.2717  0.2077  0.3630
10870TIP3    H154025   4.781   4.666  11.913  3.7898 -0.5073  2.6500
10870TIP3    H254026   4.905   4.698  11.832 -0.1627  0.7955 -3.6070
10871TIP3   OH254027   3.968   5.594  13.392  0.1644  0.3483  0.4376
10871TIP3    H154028   3.880   5.573  13.421 -0.6693 -0.6455 -2.4715
10871TIP3    H254029   4.013   5.510  13.386  0.7302  0.6596  0.1524
10872TIP3   OH254030   4.099   4.373  15.946  0.0014  0.2458 -0.4532
10872TIP3    H154031   4.170   4.401  15.888 -0.6946  0.5957 -1.1585
10872TIP3    H254032   4.029   4.436  15.930 -0.2666  0.2431  0.6562
10873TIP3   OH254033   1.574   5.833  11.477  0.5350 -0.0256 -0.0392
10873TIP3    H154034   1.620   5.837  11.561  0.4715 -0.2120  0.0053
10873TIP3    H254035   1.541   5.921  11.463 -1.3665 -0.4723  1.2082
10874TIP3   OH254036   1.553   2.551  14.854 -0.5002  0.0377  0.3258
10874TIP3    H154037   1.629   2.493  14.856 -1.2232 -0.9104  0.5519
10874TIP3    H254038   1.573   2.613  14.784  0.7729  0.2129  0.8191
10875TIP3   OH254039   0.792   4.881  15.224 -0.1140 -0.0171  0.3083
10875TIP3    H154040   0.736   4.857  15.298  0.6405  0.4788  1.0580
10875TIP3    H254041   0.881   4.868  15.256  0.2774  1.7154  0.0382
10876TIP3   OH254042   4.900   6.147  13.719  0.4134 -0.3108 -0.2879
10876TIP3    H154043   4.895   6.069  13.664  0.8617 -0.0488 -0.7189
10876TIP3    H254044   4.845   6.211  13.675  0.0469 -0.3808  0.0639
10877TIP3   OH254045   6.005   0.899   0.092 -0.0321 -0.1262 -0.6380
10877TIP3    H154046   5.977   0.880   0.181  1.9462 -0.5656 -0.0549
10877TIP3    H254047   5.948   0.971   0.064 -2.1108 -1.3781  0.1513
10878TIP3   OH254048   3.596   2.335   5.044 -0.1761  0.5443 -0.0466
10878TIP3    H154049   3.586   2.293   4.959  0.3265  0.8947 -0.2847
10878TIP3    H254050   3.555   2.274   5.106 -1.6672  0.8823 -0.6765
10879TIP3   OH254051   0.025   4.576   3.580 -0.6984  0.0203  0.7266
10879TIP3    H154052  -0.005   4.524   3.506  0.7381  0.3853 -0.1507
10879TIP3    H254053  -0.047   4.635   3.599 -1.1438 -0.1895 -0.2739
10880TIP3   OH254054   4.464   0.296  14.909 -0.3471  0.5714  0.8174
10880TIP3    H154055   4.406   0.367  14.937  0.5205  1.9530 -0.7465
10880TIP3    H254056   4.410   0.217  14.918 -2.0978  1.6698  0.5085
10881TIP3   OH254057   3.849   3.787  11.523 -0.6224 -0.3037  0.0302
10881TIP3    H154058   3.812   3.870  11.491  0.1768  0.0245 -0.0635
10881TIP3    H254059   3.876   3.741  11.444 -2.2210 -1.2437 -0.0152
10882TIP3   OH254060   6.431   3.294   2.725 -0.0218 -0.1953  0.1040
10882TIP3    H154061   6.386   3.367   2.682  0.3037  1.3825  2.2714
10882TIP3    H254062   6.368   3.223   2.723 -0.7362  0.4357 -1.1974
10883TIP3   OH254063   5.992   3.484   1.751  0.1397  0.4114 -0.2373
10883TIP3    H154064   6.085   3.504   1.743  0.0981  0.1103 -1.7183
10883TIP3    H254065   5.948   3.555   1.704 -0.3861  0.4534  0.2952
10884TIP3   OH254066   5.207   3.219  16.055 -0.3050  0.1506 -0.2644
10884TIP3    H154067   5.135   3.255  16.004  0.1769  2.5937  0.6130
10884TIP3    H254068   5.286   3.250  16.011  0.1749 -0.6496  0.0092
10885TIP3   OH254069   4.948   5.834   5.978  0.5112 -0.6261  0.9724
10885TIP3    H154070   4.871   5.779   5.991  1.6323 -2.1292  1.5522
10885TIP3    H254071   4.968   5.867   6.066 -0.5553  1.3629  0.5347
10886TIP3   OH254072   3.002   0.673   3.028 -0.2309  0.0324  0.0263
10886TIP3    H154073   3.085   0.633   3.054 -0.6306  0.3603  1.9987
10886TIP3    H254074   3.003   0.671   2.933  1.5605 -0.9412  0.0206
10887TIP3   OH254075   5.942   0.481   4.324  0.2753  0.0773  0.1368
10887TIP3    H154076   5.850   0.459   4.305 -0.2615 -1.6888  3.7816
10887TIP3    H254077   5.952   0.571   4.294 -2.0196 -0.3148 -2.1470
10888TIP3   OH254078   0.948   0.528  14.814 -0.3123  0.1825  0.5444
10888TIP3    H154079   0.915   0.617  14.825 -0.2294  0.5097 -1.5665
10888TIP3    H254080   1.043   0.535  14.829  0.7090  1.6536 -4.6059
10889TIP3   OH254081   2.068   4.990  15.323 -0.0077 -0.0992 -0.2385
10889TIP3    H154082   2.138   4.929  15.346 -0.4022 -1.5871 -2.6068
10889TIP3    H254083   1.995   4.935  15.296 -1.4483  1.4422  0.3100
10890TIP3   OH254084   4.306   5.450   1.271  0.0346 -0.2132  0.3289
10890TIP3    H154085   4.398   5.424   1.279 -0.0629 -0.8069 -0.3245
10890TIP3    H254086   4.305   5.508   1.195 -0.3045 -1.1474 -0.3989
10891TIP3   OH254087   3.008   1.518   0.498 -0.0072  0.1879 -0.3861
10891TIP3    H154088   3.089   1.534   0.450  0.4492  0.7992  0.5425
10891TIP3    H254089   2.970   1.605   0.511  0.1181  0.1036  0.7099
10892TIP3   OH254090   0.515   0.363   2.751 -0.0617 -0.2009 -0.5487
10892TIP3    H154091   0.444   0.299   2.745  1.2426 -2.0180  1.7679
10892TIP3    H254092   0.594   0.311   2.763  1.0300  1.7832  1.8831
10893TIP3   OH254093   4.064   5.907   4.678 -0.6378 -0.4772  0.2981
10893TIP3    H154094   4.005   5.853   4.731 -0.2324 -1.3515 -0.1180
10893TIP3    H254095   4.102   5.969   4.740 -2.1840  0.2862  0.5323
10894TIP3   OH254096   6.000   0.668   1.054 -0.2078  0.3720  0.4919
10894TIP3    H154097   5.932   0.675   0.987 -0.5739 -0.3408  0.7741
10894TIP3    H254098   5.982   0.741   1.113 -0.1160  0.7765  0.0242
10895TIP3   OH254099   5.025   4.056   4.304  0.8912 -0.1707 -0.2116
10895TIP3    H154100   5.075   4.030   4.381  0.3336  0.6118  0.4297
10895TIP3    H254101   5.057   4.145   4.284 -0.3065  0.3824  0.2749
10896TIP3   OH254102   1.445   0.290   5.579 -0.2009  0.0612  0.3744
10896TIP3    H154103   1.452   0.256   5.490 -0.8853  0.6389  0.1017
10896TIP3    H254104   1.375   0.354   5.576  0.3242  0.6952  1.1478
10897TIP3   OH254105   1.922   5.813  12.716  0.2808 -0.5074  0.2189
10897TIP3    H154106   1.912   5.726  12.756  0.9087 -1.1622 -0.9920
10897TIP3    H254107   1.992   5.855  12.765 -2.1249  0.6568  2.9681
10898TIP3   OH254108   1.375   4.803  17.275 -0.5292 -0.2555 -0.2503
10898TIP3    H154109   1.347   4.895  17.280  0.2948  0.1187 -1.8060
10898TIP3    H254110   1.312   4.762  17.216  0.1775 -0.2222 -1.0470
10899TIP3   OH254111   2.845   0.606  10.461  0.2249  0.0025  0.6342
10899TIP3    H154112   2.935   0.607  10.494 -0.2666  2.7586  2.2000
10899TIP3    H254113   2.791   0.594  10.539 -0.8243  1.5404  0.1915
10900TIP3   OH254114   5.014   1.183  14.007 -0.2260  0.1840  0.4305
10900TIP3    H154115   5.102   1.153  14.030 -0.5034  0.4509  1.9799
10900TIP3    H254116   4.956   1.110  14.031 -1.0540  2.1087  5.4738
10901TIP3   OH254117   5.281   2.018  14.323 -0.0911  0.3481  0.0197
10901TIP3    H154118   5.222   2.036  14.250  0.8334 -0.3924 -0.9394
10901TIP3    H254119   5.246   1.938  14.362 -0.7027  0.8554  0.5255
10902TIP3   OH254120   3.238   3.775   0.161  0.4372  0.2542  0.5784
10902TIP3    H154121   3.175   3.792   0.231  0.4617 -0.6471  0.8392
10902TIP3    H254122   3.312   3.733   0.206  0.6613  0.1177  0.0847
10903TIP3   OH254123   1.365   5.929  11.245 -0.3167  0.4635  0.0619
10903TIP3    H154124   1.316   5.943  11.326 -0.3389  1.5728 -0.1154
10903TIP3    H254125   1.308   5.965  11.176 -0.3017 -0.4645 -0.4463
10904TIP3   OH254126   0.489   5.776   0.614  0.7013  0.0209 -0.1989
10904TIP3    H154127   0.476   5.698   0.560 -0.2824 -1.7529  2.3938
10904TIP3    H254128   0.422   5.769   0.682  0.9402  2.8938  0.4599
10905TIP3   OH254129   3.167   5.878  16.082  0.1148 -0.1443  0.0083
10905TIP3    H154130   3.121   5.946  16.035 -0.5502  0.3742  1.3574
10905TIP3    H254131   3.233   5.924  16.134  2.5719 -0.8885 -2.1936
10906TIP3   OH254132   1.676   4.179   4.696  0.3448 -0.0624 -0.1660
10906TIP3    H154133   1.587   4.187   4.663  0.5223  0.0698 -0.6215
10906TIP3    H254134   1.705   4.093   4.665  0.5420  0.0978 -0.4268
10907TIP3   OH254135   2.572   2.083   4.371 -0.6870  0.0119 -0.4102
10907TIP3    H154136   2.658   2.087   4.328 -1.2539 -1.8666 -1.8756
10907TIP3    H254137   2.511   2.116   4.305 -1.4081 -1.5444 -0.5760
10908TIP3   OH254138   5.317   1.095   4.224  0.0253 -0.1443  0.0205
10908TIP3    H154139   5.252   1.074   4.290 -1.0045  0.9927 -0.5955
10908TIP3    H254140   5.365   1.169   4.260  0.7348 -0.7174  0.2919
10909TIP3   OH254141   3.618   5.541   6.881  0.2286 -0.4302 -0.7203
10909TIP3    H154142   3.681   5.477   6.914  1.2177  0.8837  0.0818
10909TIP3    H254143   3.603   5.516   6.790  3.0580  0.0055 -1.3922
10910TIP3   OH254144   1.608   5.253   1.230 -0.2044 -0.8386 -0.1403
10910TIP3    H154145   1.544   5.193   1.191  1.3595 -2.3095 -0.5692
10910TIP3    H254146   1.576   5.340   1.208 -2.3380 -1.5049  0.1426
10911TIP3   OH254147   5.329   6.222   3.743  0.2436  0.4387 -0.2515
10911TIP3    H154148   5.257   6.183   3.793  0.1169  0.0066 -0.7728
10911TIP3    H254149   5.384   6.149   3.718  0.1906  0.6331 -0.9393
10912TIP3   OH254150   6.334   2.296  16.030  0.7483 -0.6044  0.2277
10912TIP3    H154151   6.423   2.280  16.061  0.6617  0.9720  1.3941
10912TIP3    H254152   6.335   2.388  16.001 -1.1014  0.2991  2.7067
10913TIP3   OH254153   6.034   4.527  11.786 -0.5207  0.2527  0.2934
10913TIP3    H154154   6.066   4.455  11.840 -1.4055  0.1631  0.7180
10913TIP3    H254155   6.077   4.515  11.702 -1.1508 -1.1649  0.1415
10914TIP3   OH254156   5.095   2.805  12.473  0.0741  0.3784 -0.4070
10914TIP3    H154157   5.128   2.874  12.416 -1.4140  2.1833  0.8061
10914TIP3    H254158   5.140   2.726  12.443  2.4282  1.9659 -1.3596
10915TIP3   OH254159   6.160   2.825  14.149  0.0907  0.7721  0.0689
10915TIP3    H154160   6.192   2.912  14.124  1.3186  0.3717  0.1576
10915TIP3    H254161   6.222   2.765  14.107  0.3320 -0.0056  1.4941
10916TIP3   OH254162   3.303   5.366   3.780 -0.2411 -0.1625  0.6527
10916TIP3    H154163   3.384   5.387   3.825 -0.3068  1.4502  0.0707
10916TIP3    H254164   3.255   5.449   3.775 -0.5635 -0.4132 -1.6612
10917TIP3   OH254165   1.470   0.920  12.908  0.1362  0.6148  0.4725
10917TIP3    H154166   1.458   0.864  12.831 -1.3272  0.8203  0.5215
10917TIP3    H254167   1.440   0.867  12.982  3.3904 -0.3355  1.2654
10918TIP3   OH254168   6.677   2.446  16.775 -0.2414  0.3358 -0.1395
10918TIP3    H154169   6.745   2.453  16.842 -2.1622  0.4723  1.9317
10918TIP3    H254170   6.658   2.353  16.769 -0.7982  0.4140  0.3136
10919TIP3   OH254171   4.721   1.142   4.266  0.0296 -0.5605  0.3557
10919TIP3    H154172   4.791   1.116   4.206 -1.2684 -0.6075 -1.2367
10919TIP3    H254173   4.667   1.202   4.214 -2.0554 -1.8723  0.8836
10920TIP3   OH254174   2.011   6.437   4.908  0.2021  0.3716 -0.5363
10920TIP3    H154175   1.982   6.382   4.835 -0.3730 -0.2828  0.1639
10920TIP3    H254176   1.974   6.395   4.986  3.6964 -1.0129  0.5481
10921TIP3   OH254177   6.100   0.226  17.285  0.8385  0.0270 -0.1428
10921TIP3    H154178   6.019   0.225  17.234  0.8229 -2.0141 -0.1307
10921TIP3    H254179   6.072   0.211  17.375  1.2749 -2.0345 -0.2994
10922TIP3   OH254180   2.370   6.332  16.688 -0.1384 -0.3772 -0.7116
10922TIP3    H154181   2.447   6.359  16.637  0.1502 -1.7185 -1.0201
10922TIP3    H254182   2.298   6.382  16.649  0.0437 -1.4973 -2.6122
10923TIP3   OH254183   2.379   3.099   2.705 -0.1293  0.4504  0.2619
10923TIP3    H154184   2.472   3.093   2.685 -0.5990  0.7204 -2.3478
10923TIP3    H254185   2.346   3.168   2.647 -1.8567  0.8244  1.5957
10924TIP3   OH254186   5.386   5.641  14.162  0.3051  0.5490  0.8188
10924TIP3    H154187   5.355   5.720  14.206 -0.2130  0.4800  0.5894
10924TIP3    H254188   5.475   5.662  14.135  0.2843  0.9390  1.0439
10925TIP3   OH254189   0.917   4.554   2.613 -0.4724  0.8457  0.1843
10925TIP3    H154190   0.954   4.640   2.630  1.9002 -0.0029 -0.2113
10925TIP3    H254191   0.966   4.522   2.537  0.6511 -1.8807  1.9106
10926TIP3   OH254192   3.551   4.062   4.705  0.0547 -0.2364 -0.1505
10926TIP3    H154193   3.498   4.078   4.627 -0.1915 -2.6025 -0.5280
10926TIP3    H254194   3.568   4.149   4.740 -0.0417  0.8882 -2.6885
10927TIP3   OH254195   3.514   2.078  16.283 -0.9352  0.3365  0.8088
10927TIP3    H154196   3.583   2.126  16.236 -2.8368  2.1211 -0.2880
10927TIP3    H254197   3.461   2.039  16.214 -1.7581  0.0372  1.6034
10928TIP3   OH254198   6.334   6.557   5.184 -0.2778 -0.0763 -0.1928
10928TIP3    H154199   6.302   6.555   5.094  0.3750  0.7944 -0.4484
10928TIP3    H254200   6.264   6.514   5.235  0.1923 -2.3355 -1.3431
10929TIP3   OH254201   5.007   6.243  11.365  0.3431 -0.1681 -0.5414
10929TIP3    H154202   5.046   6.210  11.446  0.0367 -2.3993 -1.2547
10929TIP3    H254203   5.081   6.259  11.307  0.4106 -1.6692 -0.9057
10930TIP3   OH254204   5.042   5.265   6.378  0.0250 -0.3276 -0.0781
10930TIP3    H154205   5.082   5.336   6.328  0.7188  0.3315  1.3565
10930TIP3    H254206   4.948   5.270   6.358  0.2938 -0.1347 -1.3343
10931TIP3   OH254207   1.612   2.874  12.479 -0.3734  0.3064 -0.0861
10931TIP3    H154208   1.685   2.890  12.419  0.1465 -0.2258  0.3896
10931TIP3    H254209   1.633   2.790  12.520 -1.7494 -0.3454 -0.6491
10932TIP3   OH254210   0.152   6.745   4.813 -0.2758 -0.0982 -0.0483
10932TIP3    H154211   0.133   6.701   4.730 -1.4090  0.7613 -0.2799
10932TIP3    H254212   0.152   6.674   4.877 -1.2839 -0.5618 -0.5235
10933TIP3   OH254213   5.797   6.353   5.593  0.1263  0.5910 -0.2283
10933TIP3    H154214   5.867   6.289   5.577  0.1733  0.8416 -1.0649
10933TIP3    H254215   5.793   6.404   5.512 -0.9958  0.6096 -0.1684
10934TIP3   OH254216   4.493   2.847   3.268 -0.3723  0.0824 -0.0274
10934TIP3    H154217   4.574   2.888   3.299  1.3203 -1.0091 -2.7005
10934TIP3    H254218   4.433   2.854   3.343  1.7573  1.9988  1.6493
10935TIP3   OH254219   1.756   4.429  16.455  0.2566  0.0046 -0.2673
10935TIP3    H154220   1.809   4.411  16.377 -0.1529 -1.5468 -0.2128
10935TIP3    H254221   1.668   4.443  16.421  0.2602  0.2980 -0.1581
10936TIP3   OH254222   5.768   0.037   1.467  0.4127  0.2842 -0.0082
10936TIP3    H154223   5.762  -0.040   1.524  0.0211  1.0181  0.9673
10936TIP3    H254224   5.834   0.092   1.508  0.2347  0.7560 -0.3534
10937TIP3   OH254225   1.652   0.423   5.252  0.1192 -0.1205 -0.5584
10937TIP3    H154226   1.734   0.472   5.261 -0.2189  0.3724 -0.1772
10937TIP3    H254227   1.619   0.446   5.166 -0.3257  0.7709 -0.1615
10938TIP3   OH254228   1.334   0.801   4.272  0.4543 -0.4287 -0.1584
10938TIP3    H154229   1.314   0.893   4.255 -0.8352 -0.2865  1.8396
10938TIP3    H254230   1.346   0.796   4.367 -0.2117 -2.4514 -0.1335
10939TIP3   OH254231   2.699   5.205  13.369  0.7166 -0.2225  0.2337
10939TIP3    H154232   2.697   5.212  13.274 -0.5077 -0.6013  0.2257
10939TIP3    H254233   2.692   5.112  13.387  0.4394 -0.1122  0.7118
10940TIP3   OH254234   0.384   1.211  12.576  0.8672 -0.1464  0.0385
10940TIP3    H154235   0.433   1.171  12.648  0.2110 -1.0794 -0.0157
10940TIP3    H254236   0.449   1.262  12.528  1.3154  0.4998  1.2823
10941TIP3   OH254237   6.045   1.596  14.057  0.3449 -0.0994 -0.2521
10941TIP3    H154238   6.048   1.683  14.097  2.1720 -0.3518  0.2325
10941TIP3    H254239   6.128   1.589  14.010 -0.0345 -1.3831 -0.7669
10942TIP3   OH254240   2.533   4.157   5.422 -0.4737 -0.3136 -0.8534
10942TIP3    H154241   2.557   4.236   5.374 -1.3646  0.3752 -0.1910
10942TIP3    H254242   2.595   4.153   5.495 -1.2135  0.4729 -0.1708
10943TIP3   OH254243   6.156   0.385   3.573 -0.2610  0.3816  0.2949
10943TIP3    H154244   6.187   0.326   3.641  0.7552  0.6850  0.1122
10943TIP3    H254245   6.188   0.472   3.599 -3.2592  1.2356  1.5157
10944TIP3   OH254246   0.703   3.971  11.609 -0.3660  0.0844  0.1049
10944TIP3    H154247   0.613   3.973  11.577 -1.5576 -0.1013  3.1420
10944TIP3    H254248   0.708   4.043  11.672  2.0958  1.0177 -1.0307
10945TIP3   OH254249   1.046   6.517  11.631  0.2894 -0.7605  0.1721
10945TIP3    H154250   1.076   6.594  11.583 -1.7909 -0.1763 -0.2995
10945TIP3    H254251   1.000   6.553  11.708 -1.8881 -1.3873 -0.7487
10946TIP3   OH254252   2.743   6.019  16.964 -0.5985 -0.1632  0.1154
10946TIP3    H154253   2.758   6.098  17.016 -0.0892  0.0586 -0.3633
10946TIP3    H254254   2.658   5.986  16.994  0.1728 -0.6668  1.9029
10947TIP3   OH254255   5.039   2.614  16.223 -0.1836  0.1082 -0.1244
10947TIP3    H154256   5.092   2.668  16.165 -0.3287  1.8328  1.2411
10947TIP3    H254257   4.969   2.673  16.253 -0.2705 -0.7891  1.5509
10948TIP3   OH254258   0.689   0.316   0.278  0.1381  0.0102  0.1504
10948TIP3    H154259   0.632   0.239   0.276 -0.7840  0.6534  0.9397
10948TIP3    H254260   0.663   0.363   0.356  1.4142  0.6024  0.2408
10949TIP3   OH254261   4.238   4.693  12.231  0.0062 -0.6783 -0.1496
10949TIP3    H154262   4.187   4.767  12.199 -2.9324 -3.1636 -1.8526
10949TIP3    H254263   4.314   4.688  12.173  2.8940  3.3819  2.7200
10950TIP3   OH254264   6.701   0.186   6.226  0.7372  0.4211 -0.3905
10950TIP3    H154265   6.635   0.245   6.192  1.2086  0.8510 -0.5703
10950TIP3    H254266   6.660   0.100   6.223  0.6943  0.4655 -1.8733
10951TIP3   OH254267   1.297   0.730  14.895 -0.0465  0.2078  0.5108
10951TIP3    H154268   1.391   0.733  14.913  0.2280  1.6722 -0.9032
10951TIP3    H254269   1.279   0.638  14.880  0.7838 -0.3434  2.5122
10952TIP3   OH254270   1.433   2.418  16.704 -0.0238 -0.0168  0.5020
10952TIP3    H154271   1.442   2.430  16.610  1.2407 -0.2413  0.5786
10952TIP3    H254272   1.463   2.500  16.742 -0.5834  0.0943  0.7110
10953TIP3   OH254273   0.577   0.219  16.825 -0.3191  0.1666 -0.0174
10953TIP3    H154274   0.594   0.137  16.779  1.6097  0.3703  0.2559
10953TIP3    H254275   0.484   0.215  16.848 -0.8145 -0.8806 -2.0414
10954TIP3   OH254276   1.919   1.972  15.505 -0.0796 -0.0712 -0.6301
10954TIP3    H154277   1.959   1.973  15.418  0.7624 -0.1474 -0.2500
10954TIP3    H254278   1.832   1.935  15.491 -0.1589  0.4201 -1.5240
10955TIP3   OH254279   3.378   3.667   0.863 -0.3348  0.9389  1.0273
10955TIP3    H154280   3.386   3.608   0.788 -1.0565  0.1073  1.5876
10955TIP3    H254281   3.466   3.702   0.876 -0.1404  0.8545 -0.0123
10956TIP3   OH254282   1.824   6.091  10.995 -0.3546  0.7336  0.1987
10956TIP3    H154283   1.778   6.110  11.076  0.3644  0.0496  0.7777
10956TIP3    H254284   1.823   6.173  10.946 -1.8080  0.8541  0.3747
10957TIP3   OH254285   0.866   5.212   0.260  0.5424 -0.9886  0.0375
10957TIP3    H154286   0.883   5.210   0.354  0.0450 -1.5767  0.1263
10957TIP3    H254287   0.771   5.212   0.253  0.5757 -0.4285 -0.4644
10958TIP3   OH254288   0.962   3.213   3.292  0.1780  0.0677  0.1212
10958TIP3    H154289   1.028   3.254   3.349 -0.0207  0.2711  0.2080
10958TIP3    H254290   0.897   3.177   3.353  0.2113 -0.1379  0.0363
10959TIP3   OH254291   3.730   6.279   5.673  0.2640  0.0758  0.1934
10959TIP3    H154292   3.741   6.197   5.625  0.4543 -0.1753  0.6591
10959TIP3    H254293   3.682   6.254   5.752 -0.0503  0.4838  0.1327
10960TIP3   OH254294   5.480   0.351  12.589 -0.0181  0.3316 -0.3127
10960TIP3    H154295   5.529   0.431  12.570 -0.7362  0.8213 -0.1524
10960TIP3    H254296   5.390   0.381  12.604 -0.4862 -0.5880 -1.1108
10961TIP3   OH254297   5.753   4.423   0.663 -0.1754  0.7016 -0.1416
10961TIP3    H154298   5.705   4.366   0.724 -0.4188  0.3500 -0.6518
10961TIP3    H254299   5.727   4.512   0.688  0.1156  0.5883  0.5870
10962TIP3   OH254300   4.951   5.407  12.623  0.6193 -0.0337 -0.1922
10962TIP3    H154301   4.989   5.321  12.639  2.1074  0.7682  0.7321
10962TIP3    H254302   4.971   5.458  12.701 -0.3586  1.1334 -0.6648
10963TIP3   OH254303   0.148   1.139   2.994 -0.1685  0.2179  0.2503
10963TIP3    H154304   0.183   1.120   3.082 -1.5684  0.5767  0.9139
10963TIP3    H254305   0.092   1.215   3.007 -0.3483  0.3026 -0.9827
10964TIP3   OH254306   5.793   4.114  12.219  0.3201  0.0559 -0.7761
10964TIP3    H154307   5.794   4.159  12.304  0.7114  0.7589 -1.1442
10964TIP3    H254308   5.831   4.028  12.238 -2.3490 -0.9915  0.3611
10965TIP3   OH254309   0.174   5.213  12.789 -0.5370  0.1459  0.0353
10965TIP3    H154310   0.085   5.181  12.800 -1.7714  1.7770 -3.5254
10965TIP3    H254311   0.227   5.134  12.779 -1.7765 -0.8316  0.8231
10966TIP3   OH254312   0.350   6.246   5.131  0.8584  0.1455  0.2609
10966TIP3    H154313   0.356   6.274   5.222 -0.9028  0.7928  0.2321
10966TIP3    H254314   0.293   6.169   5.133  0.1534  0.6339 -0.3507
10967TIP3   OH254315   1.230   4.066   4.961  0.3089 -0.0361 -0.0831
10967TIP3    H154316   1.273   4.003   5.018 -0.4043  0.0892  0.6003
10967TIP3    H254317   1.185   4.013   4.896  0.2211 -0.2071  0.1198
10968TIP3   OH254318   1.868   4.883   1.174 -0.0467 -0.5937  0.4196
10968TIP3    H154319   1.888   4.917   1.261 -1.4746 -1.6773  1.2053
10968TIP3    H254320   1.945   4.906   1.122  0.3803  1.0294  1.6648
10969TIP3   OH254321   1.576   0.122  13.262  0.6598 -0.1366 -0.5841
10969TIP3    H154322   1.541   0.033  13.252 -0.2559  0.3359 -1.9356
10969TIP3    H254323   1.546   0.149  13.349 -0.0133 -0.7528 -0.6100
10970TIP3   OH254324   0.579   1.511   3.626  0.3528  1.0398 -0.2346
10970TIP3    H154325   0.593   1.605   3.637  2.8676  0.7277 -0.2358
10970TIP3    H254326   0.556   1.480   3.713  0.0003  1.5841 -0.1294
10971TIP3   OH254327   3.257   5.144   5.227 -0.1019 -0.0346 -0.1465
10971TIP3    H154328   3.302   5.185   5.153  0.4288 -0.0536  0.1635
10971TIP3    H254329   3.164   5.156   5.207 -0.0378 -1.7960 -1.8190
10972TIP3   OH254330   6.566   5.806   5.381 -0.0404  0.2650  0.3541
10972TIP3    H154331   6.558   5.715   5.409 -1.2234 -0.5701 -2.3723
10972TIP3    H254332   6.480   5.844   5.396  0.4129  0.9314  1.3568
10973TIP3   OH254333   4.062   3.010  12.003  0.1789 -0.8022 -0.1669
10973TIP3    H154334   3.970   3.024  11.984  0.1601  1.6184  1.3528
10973TIP3    H254335   4.106   3.018  11.918 -0.8466 -0.3698 -0.6667
10974TIP3   OH254336   4.327   5.756   2.550  0.3622  0.1073 -0.3871
10974TIP3    H154337   4.306   5.728   2.639  0.7318  0.7541 -0.0788
10974TIP3    H254338   4.293   5.846   2.545 -1.1936 -0.5033 -1.4907
10975TIP3   OH254339   2.021   1.916  11.753  0.1354  0.3155 -0.2780
10975TIP3    H154340   2.108   1.913  11.711  1.3072 -1.7856  2.0723
10975TIP3    H254341   2.022   1.998  11.802  0.1448  1.0415 -1.4419
10976TIP3   OH254342   5.150   1.344   0.680 -0.0694  0.6645 -0.5770
10976TIP3    H154343   5.124   1.398   0.754 -2.5233  0.4553 -1.2022
10976TIP3    H254344   5.141   1.401   0.604  2.0817  0.7721 -0.8114
10977TIP3   OH254345   0.664   4.583   5.893 -0.6076 -0.2036  0.1554
10977TIP3    H154346   0.755   4.569   5.867 -0.7865 -1.4172  0.1205
10977TIP3    H254347   0.621   4.617   5.815 -0.3109 -0.1963 -0.0059
10978TIP3   OH254348   0.840   2.304  15.281 -0.5168 -0.6381  0.1981
10978TIP3    H154349   0.758   2.285  15.236 -0.2507 -1.2136 -0.0556
10978TIP3    H254350   0.896   2.228  15.263  0.4233  0.1807 -0.4881
10979TIP3   OH254351   3.763   6.765   5.552  0.4549 -0.1896 -0.1154
10979TIP3    H154352   3.680   6.737   5.513  0.2839  0.4639 -0.2429
10979TIP3    H254353   3.814   6.798   5.477  0.1553  1.0039  0.1750
10980TIP3   OH254354   5.950   4.631   4.862 -0.2006  0.3110  0.8304
10980TIP3    H154355   6.017   4.606   4.925 -0.0169  0.8321  0.8461
10980TIP3    H254356   5.993   4.695   4.805 -0.5721  0.3646  0.6048
10981TIP3   OH254357   0.805   5.403  11.670 -0.2248  0.0231  0.4743
10981TIP3    H154358   0.712   5.378  11.674 -0.2076 -1.0433 -2.6084
10981TIP3    H254359   0.850   5.338  11.724 -1.2824  1.3993  3.2097
10982TIP3   OH254360   2.973   1.346   3.312  0.1397  0.7286  0.0376
10982TIP3    H154361   2.929   1.391   3.239 -1.4362  2.4466  1.9300
10982TIP3    H254362   3.012   1.416   3.364  1.0852 -0.4374  0.9638
10983TIP3   OH254363   0.007   4.987  16.253  0.0164 -0.3928 -0.5398
10983TIP3    H154364  -0.010   5.033  16.336 -0.5998  1.8276 -1.8320
10983TIP3    H254365   0.060   4.911  16.279 -0.0900  0.2651  1.8724
10984TIP3   OH254366   3.799   0.322  14.809 -0.7133 -0.2308 -0.2094
10984TIP3    H154367   3.893   0.309  14.800 -0.6459 -0.0187  0.1771
10984TIP3    H254368   3.781   0.307  14.902 -0.7749  1.4640  0.0878
10985TIP3   OH254369   6.478   5.609   4.179 -0.6313  0.3472  0.2121
10985TIP3    H154370   6.450   5.558   4.255  0.5309  0.4305  0.7159
10985TIP3    H254371   6.485   5.699   4.211 -2.3368  0.8139 -0.5837
10986TIP3   OH254372   0.227   5.335  11.260 -0.0958 -0.3727 -0.6249
10986TIP3    H154373   0.207   5.346  11.167 -1.1446  0.4612 -0.3268
10986TIP3    H254374   0.150   5.292  11.297 -0.7768  1.4781  0.2689
10987TIP3   OH254375   3.677   0.918  15.609 -0.1227  0.8230  0.4498
10987TIP3    H154376   3.656   1.004  15.573  0.1805  0.6554 -0.1359
10987TIP3    H254377   3.618   0.908  15.683 -0.6212  1.2517  0.1153
10988TIP3   OH254378   0.958   1.154   3.571 -0.4813  0.5891  0.2744
10988TIP3    H154379   0.927   1.080   3.519 -2.2530  2.0574 -0.8755
10988TIP3    H254380   1.028   1.192   3.518 -0.1616  0.2614  0.4568
10989TIP3   OH254381   4.819   3.763   5.671  0.1451 -0.2641  0.1398
10989TIP3    H154382   4.850   3.837   5.723  1.0031 -0.2289 -0.4116
10989TIP3    H254383   4.757   3.718   5.729 -0.3946  0.8756  0.4783
10990TIP3   OH254384   0.249   4.714   3.001  0.0788 -0.3178 -0.0145
10990TIP3    H154385   0.316   4.663   3.047 -1.2801 -1.8470  0.3684
10990TIP3    H254386   0.209   4.768   3.069  2.0667  2.0137 -0.5608
10991TIP3   OH254387   2.722   2.795   2.838 -0.1282  0.2236 -0.5586
10991TIP3    H154388   2.700   2.736   2.765 -3.1077 -0.0576  0.4353
10991TIP3    H254389   2.727   2.738   2.914  0.9691  0.7837 -0.1914
10992TIP3   OH254390   0.487   6.687   4.656 -0.1698  0.0281  0.2886
10992TIP3    H154391   0.438   6.768   4.665  1.5923  1.2883 -0.8304
10992TIP3    H254392   0.538   6.681   4.738 -1.5208 -0.8654  1.0994
10993TIP3   OH254393   2.080   0.911   6.222  0.4319  0.0486  0.3667
10993TIP3    H154394   2.023   0.836   6.240 -2.8790  2.2854  0.1634
10993TIP3    H254395   2.121   0.931   6.307  1.2058 -1.7775  0.4611
10994TIP3   OH254396   4.386   4.235  12.698 -0.0984  0.1677  0.3317
10994TIP3    H154397   4.321   4.264  12.633  0.7980 -0.3089 -0.8176
10994TIP3    H254398   4.428   4.316  12.727  0.4472  0.2904 -0.7439
10995TIP3   OH254399   3.278   5.104   4.702  0.2654 -0.1567 -0.0011
10995TIP3    H154400   3.360   5.097   4.751 -1.3779 -2.6257  2.7820
10995TIP3    H254401   3.278   5.028   4.644  0.8222  1.0393 -1.6273
10996TIP3   OH254402   2.667   5.532   5.851 -0.1159 -0.7940  0.6510
10996TIP3    H154403   2.609   5.468   5.808 -0.1057 -1.2016  1.2459
10996TIP3    H254404   2.623   5.553   5.933 -1.1099  1.4219 -0.3566
10997TIP3   OH254405   4.445   6.648  16.250  0.4416 -0.0091  0.3471
10997TIP3    H154406   4.386   6.645  16.325  0.8974  1.2752  0.7742
10997TIP3    H254407   4.524   6.603  16.280  0.3063 -0.2532  0.3396
10998TIP3   OH254408   3.945   6.534  14.895  0.0177 -0.3199 -0.3993
10998TIP3    H154409   4.040   6.542  14.905  0.0154 -2.0305  1.6730
10998TIP3    H254410   3.919   6.613  14.848  2.2757  0.9017  0.2728
10999TIP3   OH254411   5.732   4.367  11.246  0.1343  0.7684 -0.0125
10999TIP3    H154412   5.644   4.385  11.216 -0.2420  2.1398  1.7295
10999TIP3    H254413   5.778   4.450  11.238  0.5050  0.7414  1.4310
11000TIP3   OH254414   3.114   4.726   3.720  0.6001 -0.3488 -0.4828
11000TIP3    H154415   3.099   4.644   3.673 -0.2199 -0.4882 -0.0024
11000TIP3    H254416   3.091   4.707   3.811  2.0627 -0.0499 -0.0301
11001TIP3   OH254417   5.521   1.863   6.077  0.2871 -0.1837 -0.4236
11001TIP3    H154418   5.508   1.899   6.165 -0.4609  0.0328 -0.6227
11001TIP3    H254419   5.553   1.937   6.026  1.0482 -0.3903 -0.2608
11002TIP3   OH254420   0.747   0.744   1.467 -0.0491  0.1952  0.0204
11002TIP3    H154421   0.771   0.727   1.376 -0.8006  0.3722 -0.2163
11002TIP3    H254422   0.828   0.777   1.507  0.1928  0.4802 -0.6776
11003TIP3   OH254423   4.125   6.540  11.617 -0.1773  0.0091  0.2644
11003TIP3    H154424   4.119   6.599  11.541 -1.5837  0.2905  0.5623
11003TIP3    H254425   4.106   6.453  11.581  0.9335 -0.1391 -0.0026
11004TIP3   OH254426   6.232   2.993  16.884  0.1827 -0.4970  0.1782
11004TIP3    H154427   6.219   2.993  16.789  0.0055  0.7058  0.1780
11004TIP3    H254428   6.310   2.940  16.898 -1.0366 -2.5517 -0.4093
11005TIP3   OH254429   1.385   3.085   3.979 -0.1036 -0.3759 -0.8257
11005TIP3    H154430   1.359   3.102   4.069 -1.2713  1.3498 -1.4478
11005TIP3    H254431   1.475   3.116   3.973 -0.0459 -0.4394 -0.2730
11006TIP3   OH254432   0.776   2.473  12.035 -0.1397  0.9060  0.6018
11006TIP3    H154433   0.717   2.400  12.055  2.9656 -2.3130 -0.8082
11006TIP3    H254434   0.829   2.484  12.114 -0.1500  1.1283  0.5770
11007TIP3   OH254435   5.589   2.793   4.720 -0.1805 -0.5241 -0.4586
11007TIP3    H154436   5.662   2.734   4.739 -0.3734 -0.9558 -1.0106
11007TIP3    H254437   5.626   2.858   4.660  0.3799  0.7317  1.1687
11008TIP3   OH254438   3.227   5.446  13.034  0.3547  0.5216 -0.5225
11008TIP3    H154439   3.170   5.470  13.107 -1.5741 -1.1708 -1.3729
11008TIP3    H254440   3.167   5.431  12.961  2.1501  1.4474 -2.3117
11009TIP3   OH254441   0.157   3.085  14.971 -0.5403  0.5064  0.2564
11009TIP3    H154442   0.070   3.062  15.003 -0.3902 -0.3395  0.0617
11009TIP3    H254443   0.152   3.179  14.955 -1.1721  0.6103  1.0099
11010TIP3   OH254444   3.486   3.306   5.107 -0.9375 -0.1293  0.9652
11010TIP3    H154445   3.554   3.368   5.082 -1.2464 -0.1314  0.1196
11010TIP3    H254446   3.505   3.287   5.199  0.1156 -0.0101  0.7894
11011TIP3   OH254447   5.312   0.851  14.585 -0.0049  0.5880 -0.2237
11011TIP3    H154448   5.306   0.886  14.673  0.8606  2.3398 -0.8127
11011TIP3    H254449   5.406   0.844  14.568 -0.1474 -1.0299 -0.5410
11012TIP3   OH254450   4.159   2.941  11.761 -0.1710  0.5629  0.0452
11012TIP3    H154451   4.210   2.861  11.755 -0.4542  0.3289  0.6804
11012TIP3    H254452   4.188   2.994  11.686  0.0247 -0.1217 -0.3684
11013TIP3   OH254453   3.188   0.333   5.080  0.2162  0.0870  0.5120
11013TIP3    H154454   3.270   0.289   5.056 -0.4453 -1.2408  0.6196
11013TIP3    H254455   3.216   0.420   5.110  1.3350  0.6585 -1.9837
11014TIP3   OH254456   0.550   5.704  12.624  0.9850 -0.5898  0.2211
11014TIP3    H154457   0.592   5.709  12.538  1.3666  0.8440  0.4631
11014TIP3    H254458   0.476   5.765  12.618 -0.4024 -2.1916  0.1867
11015TIP3   OH254459   2.669   0.333  16.572  0.2196  0.5278  0.0292
11015TIP3    H154460   2.611   0.258  16.553 -1.4311  2.0938 -1.5728
11015TIP3    H254461   2.751   0.311  16.529  0.3168 -1.0363  0.9409
11016TIP3   OH254462   4.879   0.846   1.818 -0.1121 -0.3565 -0.3070
11016TIP3    H154463   4.875   0.886   1.732  1.3638  0.6976  0.0666
11016TIP3    H254464   4.973   0.840   1.837 -0.2496 -3.5467 -0.1061
11017TIP3   OH254465   6.298   6.213   3.734 -0.0262  0.3074 -0.4244
11017TIP3    H154466   6.354   6.147   3.776  0.7085  0.4007 -1.2230
11017TIP3    H254467   6.331   6.218   3.644 -1.4894  0.1903 -0.9911
11018TIP3   OH254468   2.361   2.044  14.753  0.1932  0.0595  0.4393
11018TIP3    H154469   2.421   2.116  14.769  3.0332 -2.1834  0.6015
11018TIP3    H254470   2.332   2.017  14.841  0.1889  0.1695  0.4713
11019TIP3   OH254471   2.767   5.480  11.872 -0.2341 -0.1538 -0.2896
11019TIP3    H154472   2.755   5.387  11.853  0.9069 -0.3039 -0.3649
11019TIP3    H254473   2.693   5.523  11.829  0.3268 -0.8382 -2.0498
11020TIP3   OH254474   2.051   3.483  13.719 -0.6000 -0.3566 -0.2186
11020TIP3    H154475   2.132   3.496  13.669 -0.3238 -1.2233 -0.0175
11020TIP3    H254476   2.073   3.413  13.781 -1.5906 -0.7956 -0.3521
11021TIP3   OH254477   6.685   3.432   2.745 -0.0309  0.4067 -0.2125
11021TIP3    H154478   6.609   3.482   2.716 -1.2956 -1.2864 -0.0185
11021TIP3    H254479   6.649   3.347   2.772  1.7308  0.0697  1.3536
11022TIP3   OH254480   3.517   1.396  16.763  0.6856 -0.7566  0.2000
11022TIP3    H154481   3.571   1.368  16.836  1.9678 -0.4470 -0.5961
11022TIP3    H254482   3.471   1.474  16.794 -0.3800 -1.8029  1.3360
11023TIP3   OH254483   5.641   3.045  13.070 -0.0775 -0.3953  0.0035
11023TIP3    H154484   5.628   3.017  12.979 -2.8502 -1.4940  0.6235
11023TIP3    H254485   5.698   3.122  13.063 -1.9529  0.9385 -2.9285
11024TIP3   OH254486   3.312   3.313   1.969  0.0045 -0.4488  0.3333
11024TIP3    H154487   3.376   3.350   1.908  1.0828 -1.8694  0.5326
11024TIP3    H254488   3.268   3.388   2.007 -0.3823  0.4998 -1.8347
11025TIP3   OH254489   0.750   1.896   5.646  0.4243  0.5098 -0.4826
11025TIP3    H154490   0.798   1.893   5.729 -0.5943  0.7536  0.1253
11025TIP3    H254491   0.700   1.815   5.644 -0.5507  1.0950 -0.2390
11026TIP3   OH254492   5.283   1.941  13.998  0.8940  0.4009  0.1089
11026TIP3    H154493   5.376   1.946  14.021  1.1266  3.9830 -1.0621
11026TIP3    H254494   5.282   1.941  13.903 -0.3197  0.3329  0.1077
11027TIP3   OH254495   5.778   0.088   0.111  0.0136 -0.2418  0.2158
11027TIP3    H154496   5.702   0.131   0.073  0.1612  0.5904  0.8299
11027TIP3    H254497   5.771  -0.003   0.083  0.2360  0.3666 -1.9533
11028TIP3   OH254498   0.075   2.701  17.074 -0.8261  0.2897  0.2235
11028TIP3    H154499   0.018   2.653  17.134  1.0127 -0.8527  1.1438
11028TIP3    H254500   0.128   2.757  17.130 -0.5725  0.8396 -0.5426
11029TIP3   OH254501   6.611   6.696   4.327 -0.0730 -0.3046 -0.1847
11029TIP3    H154502   6.561   6.708   4.246  1.2775  1.5462 -0.7928
11029TIP3    H254503   6.693   6.656   4.299  0.7208  1.0552  0.1269
11030TIP3   OH254504   4.700   1.332  12.363  0.5728 -0.0106  0.3209
11030TIP3    H154505   4.681   1.295  12.449  2.5196 -1.8612  0.0556
11030TIP3    H254506   4.736   1.419  12.381 -0.9954  0.4946  1.1928
11031TIP3   OH254507   0.300   4.499  11.395 -0.4390  0.3397 -0.3016
11031TIP3    H154508   0.243   4.494  11.318  0.2837 -2.0619 -0.7571
11031TIP3    H254509   0.386   4.521  11.360 -0.1129 -0.7367 -0.2145
11032TIP3   OH254510   1.021   5.508  14.769 -0.1762 -0.1186  0.0228
11032TIP3    H154511   1.011   5.578  14.834 -0.2996  0.3487 -0.4854
11032TIP3    H254512   1.078   5.546  14.701 -1.5860  0.1227 -1.0933
11033TIP3   OH254513   4.622   2.214  13.251  0.5595  0.2659  0.0045
11033TIP3    H154514   4.677   2.289  13.274 -1.3461  0.7008  4.0607
11033TIP3    H254515   4.684   2.146  13.223  2.8488  1.7492  1.1489
11034TIP3   OH254516   5.555   0.545   4.049  0.1540 -0.3122  0.1747
11034TIP3    H154517   5.607   0.624   4.064 -1.3210  1.0751 -1.4470
11034TIP3    H254518   5.465   0.573   4.064 -0.3657 -1.8321  0.0240
11035TIP3   OH254519   1.465   0.106   3.519 -0.3185 -0.0254 -0.1240
11035TIP3    H154520   1.445   0.096   3.612 -1.4550 -1.1490 -0.4701
11035TIP3    H254521   1.451   0.199   3.502  0.0142  0.2186  0.8433
11036TIP3   OH254522   3.468   5.111  15.727 -0.4362  0.4656  0.4670
11036TIP3    H154523   3.519   5.034  15.702 -2.2822 -1.0275  1.0868
11036TIP3    H254524   3.526   5.161  15.785  0.9195 -0.2441 -0.2301
11037TIP3   OH254525   6.044   1.417  13.359  0.1777  0.1745 -0.1459
11037TIP3    H154526   6.111   1.468  13.313 -0.2481 -1.2255 -2.4581
11037TIP3    H254527   6.086   1.333  13.375 -1.5165 -1.5234 -3.5705
11038TIP3   OH254528   6.627   5.969   5.677  0.4388  0.0984 -0.4770
11038TIP3    H154529   6.695   5.928   5.732  1.0905  0.9529 -0.6291
11038TIP3    H254530   6.592   5.897   5.625  1.1596 -0.3809 -0.3191
11039TIP3   OH254531   3.613   3.013   3.072  0.5473  0.1443  0.0835
11039TIP3    H154532   3.648   3.015   2.983  1.7071  1.3008  0.5372
11039TIP3    H254533   3.575   3.099   3.085 -0.5299 -0.3618  0.3819
11040TIP3   OH254534   4.460   0.059   2.520  0.0377 -0.4237  0.5015
11040TIP3    H154535   4.502   0.099   2.444 -0.1173  0.5566  0.9277
11040TIP3    H254536   4.530   0.008   2.562  1.4045  2.5844  2.2087
11041TIP3   OH254537   3.221   0.298   2.919  0.2259 -0.2251  0.1297
11041TIP3    H154538   3.182   0.374   2.962 -2.2542 -1.3533  0.0218
11041TIP3    H254539   3.198   0.308   2.827  2.1602  0.1750 -0.3539
11042TIP3   OH254540   2.284   6.680   0.238 -0.3019 -0.1693  0.1025
11042TIP3    H154541   2.344   6.671   0.164 -0.4189 -0.8646  0.0919
11042TIP3    H254542   2.254   6.771   0.233  1.7547  0.6151  0.8833
11043TIP3   OH254543   4.183   1.219  16.841 -0.4166  0.1265 -0.2886
11043TIP3    H154544   4.109   1.207  16.781  0.5106  0.4291 -1.5451
11043TIP3    H254545   4.217   1.132  16.855  1.1306  0.2729 -2.5917
11044TIP3   OH254546   6.693   2.956   0.869  0.1238  0.1609  0.3072
11044TIP3    H154547   6.659   3.014   0.937 -2.7016 -1.4370  0.4314
11044TIP3    H254548   6.665   2.997   0.787 -2.6154 -1.2417  0.4124
11045TIP3   OH254549   6.436   3.982  14.342 -0.2692  0.0739  0.2519
11045TIP3    H154550   6.477   3.955  14.260 -0.1871  0.5892  0.1194
11045TIP3    H254551   6.433   4.078  14.337  0.1617  0.1371  1.0584
11046TIP3   OH254552   6.676   3.856   5.551  0.4002  0.1081  0.4585
11046TIP3    H154553   6.683   3.906   5.470  1.1809 -1.1844 -0.3245
11046TIP3    H254554   6.724   3.908   5.615 -0.8056  1.4830  0.2943
11047TIP3   OH254555   0.157   5.700  12.034  0.0231  0.0172  0.1439
11047TIP3    H154556   0.218   5.638  11.993 -1.1268 -0.6923 -0.5444
11047TIP3    H254557   0.155   5.675  12.126 -0.5258 -1.0864 -0.1474
11048TIP3   OH254558   6.466   5.203  14.442 -0.0522 -0.0450  0.0313
11048TIP3    H154559   6.540   5.262  14.427 -1.7348  1.6058 -2.7151
11048TIP3    H254560   6.403   5.226  14.374 -2.3033 -2.7133  1.0092
11049TIP3   OH254561   0.679   5.106   3.373  0.2578  0.2983  0.2104
11049TIP3    H154562   0.758   5.157   3.390  0.7880  0.1395 -1.5690
11049TIP3    H254563   0.642   5.090   3.460  2.0111  0.6274  1.0742
11050TIP3   OH254564   1.964   1.458   1.515 -0.2878  0.3430  0.3288
11050TIP3    H154565   1.906   1.451   1.439 -1.4036  0.4002  1.1447
11050TIP3    H254566   1.908   1.492   1.585  0.7790  0.5482  1.1104
11051TIP3   OH254567   0.358   0.877  16.583  0.1988 -0.8317 -0.3060
11051TIP3    H154568   0.443   0.852  16.546  0.1663 -0.9023 -0.3334
11051TIP3    H254569   0.294   0.844  16.520  0.1663 -0.4412 -0.4819
11052TIP3   OH254570   0.943   4.086   5.067 -0.2229  1.0947  0.0223
11052TIP3    H154571   0.891   4.095   4.988  0.8415 -1.8311 -1.1624
11052TIP3    H254572   1.030   4.116   5.042 -0.3306  2.0095  0.7061
11053TIP3   OH254573   6.017   5.737   5.247  0.3336 -0.1869 -0.4753
11053TIP3    H154574   6.098   5.713   5.202  0.1464  0.0421 -0.9480
11053TIP3    H254575   5.948   5.698   5.193 -0.0823  2.7018 -2.1947
11054TIP3   OH254576   2.121   3.989   4.864  0.4029 -0.2187  0.0093
11054TIP3    H154577   2.049   3.930   4.843  0.0470  0.5189 -0.8938
11054TIP3    H254578   2.079   4.074   4.879  0.9299 -0.1260  1.0475
11055TIP3   OH254579   3.216   6.517  12.691  0.4773 -0.5622  0.1315
11055TIP3    H154580   3.307   6.546  12.697  0.3579  0.4534 -2.0035
11055TIP3    H254581   3.192   6.531  12.600 -2.5059  1.2523  1.0595
11056TIP3   OH254582   1.343   6.548   0.443  0.0174 -0.0623  0.0641
11056TIP3    H154583   1.261   6.499   0.445  0.4812 -0.8470  1.4985
11056TIP3    H254584   1.351   6.585   0.531  0.2173  1.7286 -0.6640
11057TIP3   OH254585   4.754   3.714   0.273 -0.2048 -0.3653 -0.7694
11057TIP3    H154586   4.826   3.682   0.327 -1.3511 -2.2076 -0.2160
11057TIP3    H254587   4.697   3.761   0.333  0.0877  0.3409 -1.0341
11058TIP3   OH254588   5.622   4.043   2.255 -0.0809  0.1288  0.5487
11058TIP3    H154589   5.626   3.972   2.319 -1.6325  0.2533  0.8275
11058TIP3    H254590   5.558   4.013   2.191 -1.1382  1.4488  0.9365
11059TIP3   OH254591   3.586   2.844  16.842  0.4558 -0.0642 -0.3911
11059TIP3    H154592   3.542   2.929  16.845  1.5012  0.5539 -1.4601
11059TIP3    H254593   3.539   2.796  16.773 -0.0175 -0.2942  0.0857
11060TIP3   OH254594   3.774   1.474   6.168  0.5266 -0.4964 -0.0486
11060TIP3    H154595   3.780   1.403   6.104  3.1918 -0.1102 -0.3511
11060TIP3    H254596   3.820   1.440   6.245 -0.0945  0.1271  0.6193
11061TIP3   OH254597   2.556   6.044  14.757  0.4889 -0.2285 -0.1006
11061TIP3    H154598   2.523   5.986  14.826 -0.6231  0.1601 -0.2967
11061TIP3    H254599   2.523   6.130  14.781  2.8530  0.5489  0.6790
11062TIP3   OH254600   4.724   6.554   5.851  0.4509 -0.4595 -0.8128
11062TIP3    H154601   4.705   6.461   5.858  0.2484 -0.3517  0.3510
11062TIP3    H254602   4.678   6.583   5.772  0.5852 -1.3478 -1.2269
11063TIP3   OH254603   3.278   3.268   6.161  0.1301  0.4135 -0.0500
11063TIP3    H154604   3.247   3.212   6.232 -1.6898  0.1184 -0.9908
11063TIP3    H254605   3.372   3.275   6.174 -0.2047  0.9367  2.7723
11064TIP3   OH254606   6.208   1.271   1.639 -0.2741 -0.5351  0.5477
11064TIP3    H154607   6.118   1.272   1.608 -0.0163  1.7649 -0.3766
11064TIP3    H254608   6.202   1.253   1.733 -1.6636 -0.6790  0.4495
11065TIP3   OH254609   6.266   0.179   3.440 -0.5498  0.4965 -0.1054
11065TIP3    H154610   6.268   0.137   3.526 -2.6708  1.5847  0.5377
11065TIP3    H254611   6.254   0.272   3.459 -0.0381  0.8904 -1.5796
11066TIP3   OH254612   1.060   2.655   3.243  0.6131 -0.3393 -0.5888
11066TIP3    H154613   0.999   2.622   3.177 -0.0713  0.1938 -0.2421
11066TIP3    H254614   1.093   2.737   3.207 -0.1255  0.1984 -0.0909
11067TIP3   OH254615   5.700   0.533  15.669 -0.2645 -0.0659 -0.3964
11067TIP3    H154616   5.607   0.515  15.653  0.2886 -0.9826 -3.2934
11067TIP3    H254617   5.730   0.460  15.723 -1.1629  0.1117  0.3598
11068TIP3   OH254618   3.081   4.906   5.375 -0.1616 -0.5422 -0.1130
11068TIP3    H154619   3.047   4.996   5.371 -0.8130 -0.7395  0.7158
11068TIP3    H254620   3.173   4.915   5.353 -0.1068  0.4041  0.4453
11069TIP3   OH254621   1.888   6.224  15.209 -0.0849  0.6009  0.0791
11069TIP3    H154622   1.795   6.243  15.223 -0.2223  0.4117 -0.5702
11069TIP3    H254623   1.893   6.190  15.120  0.6661  0.9833 -0.0353
11070TIP3   OH254624   2.126   0.863  13.781  0.0557  0.4821  0.0706
11070TIP3    H154625   2.139   0.795  13.847 -0.1597  2.0153  1.7807
11070TIP3    H254626   2.087   0.818  13.707 -1.0671 -1.0938  1.5459
11071TIP3   OH254627   0.173   2.166  11.199  0.1804 -0.2747 -0.4422
11071TIP3    H154628   0.177   2.199  11.289 -0.4935 -1.9167  0.2530
11071TIP3    H254629   0.125   2.233  11.150 -0.2732  0.2173  0.6459
11072TIP3   OH254630   4.129   2.684  14.909 -0.2800 -0.6560  0.3892
11072TIP3    H154631   4.178   2.725  14.980 -1.2530  0.4341  0.4483
11072TIP3    H254632   4.071   2.622  14.952  1.0857 -2.0662  0.3101
11073TIP3   OH254633   6.658   4.148  16.710  0.7288 -0.2016 -1.0038
11073TIP3    H154634   6.689   4.144  16.800 -1.8978 -2.1133 -0.0660
11073TIP3    H254635   6.637   4.241  16.695  0.8033  0.0771  0.5108
11074TIP3   OH254636   3.079   1.921  13.935 -0.1582 -0.6766  0.1372
11074TIP3    H154637   3.174   1.924  13.925 -0.2037  0.0556 -0.0724
11074TIP3    H254638   3.052   1.845  13.882  0.2746 -0.6985 -0.0546
11075TIP3   OH254639   3.115   2.162  13.021  0.1341  0.4681 -0.0572
11075TIP3    H154640   3.114   2.068  13.038  1.1861  0.7838  2.2153
11075TIP3    H254641   3.129   2.170  12.927 -1.4807 -1.6175 -0.5472
11076TIP3   OH254642   5.403   0.566   4.502 -0.3333  0.3926 -0.2963
11076TIP3    H154643   5.362   0.564   4.588  1.1411 -0.1348  0.4142
11076TIP3    H254644   5.413   0.474   4.478  1.0611  0.4842 -0.1288
11077TIP3   OH254645   4.692   2.600   0.815 -0.2522 -0.0240 -0.5257
11077TIP3    H154646   4.703   2.588   0.721  0.9093  0.1495 -0.4288
11077TIP3    H254647   4.671   2.693   0.826 -1.0630 -0.1841 -0.6535
11078TIP3   OH254648   5.633   5.223   0.524  0.0310 -0.6147  0.4799
11078TIP3    H154649   5.589   5.177   0.595 -2.0222  1.1756  0.4961
11078TIP3    H254650   5.593   5.311   0.525  1.0506 -0.0571 -1.8828
11079TIP3   OH254651   4.677   2.494  15.851 -0.0199 -0.3423 -0.0159
11079TIP3    H154652   4.710   2.584  15.861 -0.1747 -0.5242  2.7517
11079TIP3    H254653   4.730   2.458  15.780  1.0183  1.4972 -0.2545
11080TIP3   OH254654   0.403   0.818   5.668 -0.3257 -0.1744  0.6657
11080TIP3    H154655   0.323   0.821   5.721 -1.2300  1.1388 -0.6733
11080TIP3    H254656   0.372   0.808   5.578  1.1880 -2.9510  0.3629
11081TIP3   OH254657   5.576   6.177   1.600 -0.4959  0.4606 -0.0152
11081TIP3    H154658   5.496   6.132   1.626  0.7373 -1.0466  1.3331
11081TIP3    H254659   5.597   6.141   1.513 -0.9327  0.4002 -0.0980
11082TIP3   OH254660   0.206   4.525  16.928 -0.0240  0.8054  0.3255
11082TIP3    H154661   0.125   4.476  16.912  1.3310 -1.0129 -1.4605
11082TIP3    H254662   0.209   4.536  17.023 -2.2975  0.8516  0.4437
11083TIP3   OH254663   2.961   0.134   0.938  0.1052 -0.5385  0.2157
11083TIP3    H154664   2.886   0.193   0.943  0.6088  0.2660 -1.2420
11083TIP3    H254665   3.012   0.154   1.017  1.1216  2.2600 -1.0092
11084TIP3   OH254666   6.394   1.948   0.617 -0.1643 -0.1772 -0.5187
11084TIP3    H154667   6.359   1.954   0.528 -0.5764 -2.3703 -0.5522
11084TIP3    H254668   6.317   1.950   0.674  0.0483  0.4354 -0.2423
11085TIP3   OH254669   3.771   4.935   1.036 -1.1734 -0.3086  0.4671
11085TIP3    H154670   3.742   4.844   1.028 -1.4641 -0.0604 -2.0106
11085TIP3    H254671   3.691   4.987   1.027 -0.6270  0.2513 -1.4570
11086TIP3   OH254672   3.438   2.036  13.157 -0.7125  0.6391 -0.1242
11086TIP3    H154673   3.464   1.962  13.212 -0.4380 -0.6207 -1.8410
11086TIP3    H254674   3.364   2.002  13.105 -1.6413  2.1136  0.1658
11087TIP3   OH254675   3.886   3.402   4.312 -0.4156  0.1154 -0.2016
11087TIP3    H154676   3.859   3.460   4.240  0.1801  0.3933 -0.2025
11087TIP3    H254677   3.947   3.341   4.272 -1.5026 -0.9242 -0.3403
11088TIP3   OH254678   3.948   0.886   2.517 -0.1915 -0.1417  0.4397
11088TIP3    H154679   3.898   0.919   2.443  0.1121  0.0507  0.3148
11088TIP3    H254680   4.013   0.828   2.478  0.0156  0.0155  0.5439
11089TIP3   OH254681   5.204   4.807  10.982 -0.3748  0.3639  0.4087
11089TIP3    H154682   5.243   4.742  10.923 -0.1239  0.8878 -0.0205
11089TIP3    H254683   5.211   4.889  10.934 -0.3783  0.7656  1.0843
11090TIP3   OH254684   3.986   1.447   2.160  0.1173 -0.0398 -0.5842
11090TIP3    H154685   3.900   1.482   2.137 -0.6805 -1.2499  0.4282
11090TIP3    H254686   4.001   1.377   2.096 -0.4929 -1.0133  0.2880
11091TIP3   OH254687   3.473   2.549  10.735  0.8019 -0.3826 -0.7869
11091TIP3    H154688   3.438   2.537  10.647 -0.8631 -0.6251 -0.1278
11091TIP3    H254689   3.413   2.499  10.792  0.9347  1.0043  0.6485
11092TIP3   OH254690   1.517   4.249   6.035  0.0833 -0.4657  0.7701
11092TIP3    H154691   1.476   4.270   6.119 -1.9732  0.0596 -0.2943
11092TIP3    H254692   1.447   4.258   5.971  2.0346  1.1480 -1.3018
11093TIP3   OH254693   0.509   4.850   4.494 -0.3997 -0.5313  0.3748
11093TIP3    H154694   0.516   4.942   4.470 -0.0940 -0.1431  1.8460
11093TIP3    H254695   0.577   4.806   4.442 -0.2677  0.1355 -0.0173
11094TIP3   OH254696   2.486   6.762   2.274  0.2496 -0.0804  0.0877
11094TIP3    H154697   2.534   6.818   2.335 -1.0980  0.9490  0.2536
11094TIP3    H254698   2.425   6.713   2.330 -1.5881  1.4805 -0.4382
11095TIP3   OH254699   2.002   2.534   4.987  0.5022  0.6834 -0.3432
11095TIP3    H154700   2.036   2.445   4.993  1.7300  1.2011  0.7977
11095TIP3    H254701   1.918   2.524   4.942 -0.0499 -1.2383  0.9816
11096TIP3   OH254702   3.850   5.274  13.782  0.2535  0.3380 -0.6858
11096TIP3    H154703   3.836   5.327  13.861  0.2069  1.7373 -1.5918
11096TIP3    H254704   3.795   5.316  13.715  1.3355  0.0385 -1.8069
11097TIP3   OH254705   0.832   1.734   0.577  0.4214  0.2695 -0.8982
11097TIP3    H154706   0.813   1.827   0.561  4.0579  1.1745 -0.8212
11097TIP3    H254707   0.817   1.723   0.671 -2.4670 -0.0300 -1.2780
11098TIP3   OH254708   1.577   4.074  14.312  0.0036  0.2233  0.1861
11098TIP3    H154709   1.525   4.043  14.239 -2.0224  1.3154  1.0805
11098TIP3    H254710   1.526   4.147  14.349  2.5496  1.9294  0.6336
11099TIP3   OH254711   2.435   6.169   2.200  0.1310 -0.6411 -0.1327
11099TIP3    H154712   2.498   6.117   2.251  0.9405  0.4802  0.0713
11099TIP3    H254713   2.436   6.130   2.113 -1.3871 -2.6865  0.6907
11100TIP3   OH254714   1.925   3.393   0.339 -0.9284  0.1196  0.0861
11100TIP3    H154715   1.891   3.401   0.429 -0.3445  1.9665  0.1995
11100TIP3    H254716   1.900   3.476   0.297 -0.9882 -0.6246 -1.4043
11101TIP3   OH254717   2.649   1.584  15.013  0.0583  0.3563 -0.0204
11101TIP3    H154718   2.724   1.525  15.004 -0.9246 -0.7213 -1.4333
11101TIP3    H254719   2.592   1.541  15.077  0.2597  0.7886  0.4597
11102TIP3   OH254720   3.867   0.216  12.336  0.0550 -0.1340  0.1757
11102TIP3    H154721   3.872   0.151  12.266  0.2615 -0.1494  0.2030
11102TIP3    H254722   3.787   0.193  12.384 -0.5794  0.4234 -0.5897
11103TIP3   OH254723   2.350   5.527  15.695 -0.2301 -0.2819 -0.2485
11103TIP3    H154724   2.286   5.518  15.624 -0.3427  1.7200 -0.4636
11103TIP3    H254725   2.423   5.472  15.668 -0.2142  0.5420 -2.0214
11104TIP3   OH254726   2.752   3.438   4.426  0.0069  0.1567  0.2502
11104TIP3    H154727   2.701   3.371   4.382  2.0458 -0.7911 -0.8262
11104TIP3    H254728   2.823   3.459   4.365  0.2640  2.2716  1.1607
11105TIP3   OH254729   3.605   6.397   3.171 -0.2347  0.3295 -0.5929
11105TIP3    H154730   3.535   6.392   3.105 -0.6534  0.4146 -0.1651
11105TIP3    H254731   3.607   6.489   3.197  1.2795  0.6916 -1.9024
11106TIP3   OH254732   2.541   5.938   4.634 -0.2628 -0.5540  0.4797
11106TIP3    H154733   2.580   5.972   4.553 -1.1677 -0.4121  0.0863
11106TIP3    H254734   2.502   6.015   4.675 -0.9179 -0.8336  0.3983
11107TIP3   OH254735   5.176   5.767   0.790 -0.1834 -0.1141 -0.0457
11107TIP3    H154736   5.134   5.738   0.709  0.7216 -1.1426 -0.1793
11107TIP3    H254737   5.108   5.815   0.837 -0.7885  0.3148 -1.3118
11108TIP3   OH254738   3.972   6.482  12.751 -0.7759  0.1216  0.4203
11108TIP3    H154739   3.885   6.451  12.776 -0.4649 -0.5952  0.6311
11108TIP3    H254740   4.027   6.463  12.827 -0.3367  0.1369  0.1107
11109TIP3   OH254741   2.942   1.648   1.434  0.0518  0.4221  0.4607
11109TIP3    H154742   3.033   1.643   1.463  0.0348 -0.1369  0.4119
11109TIP3    H254743   2.891   1.613   1.507 -0.1764  1.2203  0.7063
11110TIP3   OH254744   4.023   3.195  15.261 -0.2168  0.1793 -0.2206
11110TIP3    H154745   4.005   3.142  15.339 -1.9265  1.1047  0.0441
11110TIP3    H254746   4.026   3.285  15.292  2.2417  0.3633 -0.7411
11111TIP3   OH254747   6.522   6.438  14.317 -0.1840 -0.0603  0.4428
11111TIP3    H154748   6.577   6.477  14.249  0.8699  0.8284  1.7456
11111TIP3    H254749   6.573   6.449  14.397 -1.0343 -1.7793  1.2785
11112TIP3   OH254750   5.944   5.968   5.347 -0.2995 -0.1563 -0.1406
11112TIP3    H154751   5.853   5.942   5.335  0.0516 -0.5953 -2.0900
11112TIP3    H254752   5.995   5.901   5.302  0.9971  0.1898  0.7577
11113TIP3   OH254753   5.252   2.722  15.371 -0.0194  0.0255  0.0004
11113TIP3    H154754   5.346   2.706  15.369  0.6552  3.4566 -0.7588
11113TIP3    H254755   5.226   2.722  15.278 -0.7037 -0.3852  0.1808
11114TIP3   OH254756   2.896   1.926   1.440  0.4239 -0.5918  0.0371
11114TIP3    H154757   2.891   1.831   1.445  1.3594 -0.6899 -0.6369
11114TIP3    H254758   2.978   1.949   1.483 -0.2489 -0.0005  1.0356
11115TIP3   OH254759   1.796   1.329  13.126  0.0643  0.3907 -0.0582
11115TIP3    H154760   1.816   1.276  13.203  1.2872 -1.3673 -1.4876
11115TIP3    H254761   1.755   1.267  13.065  1.8368  0.9452 -1.9276
11116TIP3   OH254762   2.227   6.065   2.336 -0.3841 -0.9879 -0.0559
11116TIP3    H154763   2.157   6.117   2.297  0.1888  1.4355  1.9103
11116TIP3    H254764   2.307   6.115   2.320  0.3545 -1.7873  0.9958
11117TIP3   OH254765   4.373   4.181  11.971 -0.1007 -0.8052 -0.5221
11117TIP3    H154766   4.345   4.272  11.969  0.4551 -0.5712  1.0183
11117TIP3    H254767   4.467   4.185  11.989  0.0023 -1.6682 -0.8413
11118TIP3   OH254768   0.267   3.995  12.146  0.1495 -0.1280  0.0822
11118TIP3    H154769   0.215   4.061  12.192 -0.6406 -1.7433  1.5958
11118TIP3    H254770   0.349   3.991  12.195  0.7402  0.6330 -0.8070
11119TIP3   OH254771   5.767   0.020  14.791  0.2902  0.0795  0.2217
11119TIP3    H154772   5.691   0.076  14.778 -0.7334 -1.1168  0.7760
11119TIP3    H254773   5.732  -0.058  14.835  1.6785 -0.9040 -0.3248
11120TIP3   OH254774   0.094   0.345  14.215  0.0250 -0.0007  0.4502
11120TIP3    H154775   0.095   0.301  14.130 -2.3339  0.7670 -0.0349
11120TIP3    H254776   0.055   0.282  14.274 -3.2069  1.1845 -0.2123
11121TIP3   OH254777   2.281   2.788  11.747  0.2845  0.5963  0.4373
11121TIP3    H154778   2.370   2.819  11.761  0.1340  2.2911 -1.6354
11121TIP3    H254779   2.283   2.695  11.770  2.5903  0.5779  0.3907
11122TIP3   OH254780   4.942   1.767  12.221  0.5449 -0.2509 -0.5391
11122TIP3    H154781   5.025   1.739  12.259 -1.2727 -1.8583  2.6676
11122TIP3    H254782   4.938   1.861  12.238  0.9114 -0.4961  1.1170
11123TIP3   OH254783   3.902   1.717   6.310 -0.3494 -0.1496 -0.4072
11123TIP3    H154784   3.896   1.625   6.284  1.0398 -0.7968  1.3963
11123TIP3    H254785   3.870   1.719   6.400 -0.3102  1.1361 -0.3989
11124TIP3   OH254786   2.426   5.805  14.615 -0.3623  0.7577 -0.1660
11124TIP3    H154787   2.451   5.875  14.555  2.1501 -0.6751 -0.9226
11124TIP3    H254788   2.494   5.807  14.683 -0.9109 -0.2363  0.4286
11125TIP3   OH254789   1.016   4.577  13.952 -0.0511  0.0907 -0.1347
11125TIP3    H154790   1.075   4.571  14.027 -1.9588 -0.9032  1.3839
11125TIP3    H254791   1.054   4.517  13.887  1.0815  0.1786  0.4128
11126TIP3   OH254792   2.179   0.044  13.572  0.0892  0.3250  0.2016
11126TIP3    H154793   2.252   0.005  13.523  1.3737  1.2469  1.2889
11126TIP3    H254794   2.184   0.004  13.658  1.0069  2.2931  1.1231
11127TIP3   OH254795   3.101   0.054  14.706 -0.4651  0.5225 -0.4053
11127TIP3    H154796   3.073   0.002  14.630 -0.3828  0.5008 -0.4207
11127TIP3    H254797   3.196   0.052  14.702 -0.4621  0.8745 -0.5405
11128TIP3   OH254798   5.886   0.819   0.356 -0.0938  0.1643  1.0989
11128TIP3    H154799   5.910   0.868   0.435  1.1924 -0.6448  1.2268
11128TIP3    H254800   5.791   0.834   0.348 -0.2860  0.1780  2.8565
11129TIP3   OH254801   4.237   2.048   4.883  1.0492 -0.0085 -0.8775
11129TIP3    H154802   4.270   2.137   4.894  0.8228  0.0679 -0.8134
11129TIP3    H254803   4.193   2.028   4.965  0.5676  0.0477 -1.1168
11130TIP3   OH254804   3.717   6.225   1.046  0.2597 -0.0861  0.0959
11130TIP3    H154805   3.666   6.156   1.088 -0.6028  0.0862 -0.6414
11130TIP3    H254806   3.735   6.287   1.116 -2.0231  0.7032  0.0595
11131TIP3   OH254807   2.877   1.746   5.980  0.5233 -0.4527  0.4869
11131TIP3    H154808   2.916   1.783   6.059  0.2102  0.1355  0.3763
11131TIP3    H254809   2.892   1.652   5.987 -1.1849 -0.6656  2.2229
11132TIP3   OH254810   4.834   2.505   1.547  0.7432 -0.1726 -0.3587
11132TIP3    H154811   4.830   2.417   1.584 -1.8234 -0.0971 -0.2823
11132TIP3    H254812   4.844   2.490   1.453 -0.0456 -0.5844 -0.3873
11133TIP3   OH254813   1.255   2.957  12.277 -0.4993 -0.2065 -0.0507
11133TIP3    H154814   1.210   2.891  12.223 -2.6859  0.8006  0.4159
11133TIP3    H254815   1.184   3.003  12.322  1.1368  0.4942  1.9502
11134TIP3   OH254816   4.309   3.767  13.897  0.2568 -0.2274  0.0163
11134TIP3    H154817   4.367   3.835  13.863  1.0682 -1.1828 -0.5693
11134TIP3    H254818   4.316   3.776  13.992 -0.6892  1.3476 -0.0230
11135TIP3   OH254819   4.968   2.910   0.129  0.4866  0.4803  0.1729
11135TIP3    H154820   4.930   2.932   0.044 -0.3300 -2.1811 -0.2380
11135TIP3    H254821   4.900   2.858   0.173  2.2859 -1.4731  0.8446
11136TIP3   OH254822   3.913   5.311  14.243  0.1908  0.1800 -0.6388
11136TIP3    H154823   3.884   5.340  14.156  1.5201 -0.6913 -1.4041
11136TIP3    H254824   4.002   5.280  14.229  0.3254 -0.2278  1.0013
11137TIP3   OH254825   3.247   5.971   3.193 -0.2758  0.4247  0.7954
11137TIP3    H154826   3.169   5.973   3.137  1.8139 -0.7501 -2.5008
11137TIP3    H254827   3.263   6.063   3.216 -3.0935  0.5919  2.4415
11138TIP3   OH254828   0.089   1.843  11.998  0.1531 -0.3898 -0.0677
11138TIP3    H154829   0.034   1.919  11.979  1.6592  0.8100  0.1979
11138TIP3    H254830   0.092   1.838  12.094  1.1603  0.0829 -0.0575
11139TIP3   OH254831   6.164   3.473  11.944 -0.3930  0.1563  0.1106
11139TIP3    H154832   6.092   3.452  12.003  0.4880  1.2183  1.6299
11139TIP3    H254833   6.168   3.569  11.945  3.7564  0.2392  3.6774
11140TIP3   OH254834   0.023   5.072   2.269  0.6071  0.0549 -0.0349
11140TIP3    H154835   0.092   5.037   2.212  0.4863  0.6755 -0.5763
11140TIP3    H254836  -0.021   4.995   2.303  0.3511 -0.3462 -1.2000
11141TIP3   OH254837   0.885   1.124   3.916 -0.1340 -0.1549  0.5169
11141TIP3    H154838   0.868   1.086   3.830 -1.7640 -2.1567  1.6328
11141TIP3    H254839   0.980   1.131   3.921  0.0119 -0.4873 -1.2267
11142TIP3   OH254840   1.811   6.367   4.484 -0.5031  0.4167  0.7793
11142TIP3    H154841   1.789   6.454   4.517  0.3608  1.3908 -1.0451
11142TIP3    H254842   1.801   6.374   4.389 -0.1454 -1.4018  0.5624
11143TIP3   OH254843   0.430   0.911  17.070  0.2257  0.1147 -0.7150
11143TIP3    H154844   0.505   0.956  17.029  2.9154 -2.5632  0.8667
11143TIP3    H254845   0.430   0.943  17.161 -0.4634 -0.0559 -0.6498
11144TIP3   OH254846   1.239   5.086   0.456 -0.2247  0.1965 -0.0921
11144TIP3    H154847   1.202   4.998   0.448  0.3077  0.1028 -2.1564
11144TIP3    H254848   1.302   5.078   0.528  0.0119 -1.1926 -0.4112
11145TIP3   OH254849   4.199   3.114   3.055 -0.0105  0.2465 -0.2919
11145TIP3    H154850   4.129   3.084   2.998 -0.7522  0.2629  0.5751
11145TIP3    H254851   4.276   3.063   3.029 -0.8931 -1.4037  0.2222
11146TIP3   OH254852   5.104   0.340   0.879 -0.3198  0.0820 -0.4172
11146TIP3    H154853   5.179   0.282   0.863 -0.5259 -0.4392  0.4394
11146TIP3    H254854   5.072   0.314   0.965 -2.5309 -0.8552 -1.4487
11147TIP3   OH254855   4.759   1.414  15.006  0.5695  0.2352  0.0208
11147TIP3    H154856   4.706   1.370  14.940  1.2923 -1.8124  0.7147
11147TIP3    H254857   4.841   1.434  14.962  0.6218 -0.0676 -0.0222
11148TIP3   OH254858   2.166   2.445  13.462  0.8156  0.5104  0.3032
11148TIP3    H154859   2.185   2.400  13.545  1.5164  1.0403  0.4446
11148TIP3    H254860   2.146   2.374  13.401  0.8004  0.0756  0.8001
11149TIP3   OH254861   2.375   6.610  17.137 -0.2910  0.2945 -0.3474
11149TIP3    H154862   2.370   6.604  17.042 -1.4617 -0.6328 -0.2498
11149TIP3    H254863   2.428   6.535  17.163  0.5109  0.8709 -0.2951
11150TIP3   OH254864   0.651   2.922  16.924 -0.0316  0.2074 -1.1521
11150TIP3    H154865   0.645   3.017  16.936 -0.8913 -0.0899  1.6958
11150TIP3    H254866   0.617   2.907  16.836 -0.3787  2.4751 -1.4863
11151TIP3   OH254867   4.848   2.023  16.936 -0.3991  0.8988  0.3825
11151TIP3    H154868   4.838   1.973  17.016 -0.3485 -0.9784 -0.7190
11151TIP3    H254869   4.925   1.985  16.894  0.6593  3.0484  0.2636
11152TIP3   OH254870   2.429   1.802  14.440  0.2110 -0.4442  0.3951
11152TIP3    H154871   2.391   1.762  14.518 -2.0364 -1.1381 -0.9676
11152TIP3    H254872   2.509   1.752  14.424  0.1136 -1.0171  1.6251
11153TIP3   OH254873   1.687   1.181   4.450  0.3577  0.1127 -0.4446
11153TIP3    H154874   1.639   1.132   4.383  0.7306 -0.6422 -0.1612
11153TIP3    H254875   1.761   1.220   4.403  0.8861 -0.8055 -0.3808
11154TIP3   OH254876   4.173   3.855   1.302  0.1700 -0.3756  0.1231
11154TIP3    H154877   4.199   3.900   1.382 -1.8119  0.0433  0.6072
11154TIP3    H254878   4.156   3.765   1.328  1.8572 -0.8539 -0.3566
11155TIP3   OH254879   6.020   2.743  10.706 -0.1684 -0.4347 -0.0514
11155TIP3    H154880   6.040   2.831  10.672  0.8620 -0.2615  0.9422
11155TIP3    H254881   6.076   2.685  10.655 -0.4075 -0.4518 -0.2972
11156TIP3   OH254882   1.267   6.408  11.764 -0.4297 -0.7100  0.3373
11156TIP3    H154883   1.329   6.475  11.735  0.3248 -1.2620  0.6424
11156TIP3    H254884   1.192   6.418  11.706 -0.1401  0.1030  0.0897
11157TIP3   OH254885   5.272   0.057   1.957 -0.5176 -0.2493  0.0929
11157TIP3    H154886   5.319   0.010   2.026 -1.3156  1.9573  2.2579
11157TIP3    H254887   5.179   0.042   1.977 -0.7664  1.1179  0.0398
11158TIP3   OH254888   2.995   3.987   1.209  0.2324 -0.0047  0.0097
11158TIP3    H154889   2.976   3.894   1.220  2.8371 -0.6873 -0.6067
11158TIP3    H254890   3.033   4.014   1.292  0.9438  0.0733 -0.3292
11159TIP3   OH254891   4.285   2.940  16.408 -0.0507 -0.5192  0.2192
11159TIP3    H154892   4.275   3.026  16.447 -1.7202  0.4196 -2.0400
11159TIP3    H254893   4.379   2.930  16.393  0.1211  1.1166  0.1132
11160TIP3   OH254894   5.657   2.927   2.196 -0.4460 -0.1230 -0.3580
11160TIP3    H154895   5.636   3.001   2.254  0.2361  1.1033 -1.6326
11160TIP3    H254896   5.574   2.879   2.189 -1.1858  1.1014 -0.3186
11161TIP3   OH254897   1.280   2.131  11.567 -0.2376 -0.1568  0.5316
11161TIP3    H154898   1.278   2.057  11.505 -1.7261  0.8008 -0.6332
11161TIP3    H254899   1.331   2.098  11.641  1.9347 -1.2617 -1.2991
11162TIP3   OH254900   4.407   0.986  11.619  0.4375 -0.4836 -0.5102
11162TIP3    H154901   4.461   0.915  11.654 -0.3731 -1.2099 -0.6999
11162TIP3    H254902   4.318   0.953  11.626  0.0323  0.5935 -0.4535
11163TIP3   OH254903   0.398   6.557  17.280  0.0091 -0.3483  0.7134
11163TIP3    H154904   0.384   6.578  17.372  0.1567 -0.0813  0.6767
11163TIP3    H254905   0.310   6.556  17.242  0.0712  1.9215  0.3518
11164TIP3   OH254906   2.220   1.010   2.516  0.0659 -0.4152  0.4854
11164TIP3    H154907   2.272   1.091   2.522 -0.6389  0.2839 -1.7799
11164TIP3    H254908   2.247   0.971   2.433 -1.1632 -1.3670  0.5127
11165TIP3   OH254909   2.536   2.201  11.241 -0.4628  0.0515 -0.6026
11165TIP3    H154910   2.542   2.111  11.274  1.6208  0.1506 -0.6104
11165TIP3    H254911   2.520   2.253  11.320  0.5129 -0.1186 -0.2791
11166TIP3   OH254912   3.874   5.339  11.848 -0.0022 -0.0965  0.7653
11166TIP3    H154913   3.969   5.325  11.846 -0.1183 -0.8282 -0.5162
11166TIP3    H254914   3.859   5.409  11.785 -0.4338 -0.8991 -0.0514
11167TIP3   OH254915   6.744   1.839   4.283  0.2118  0.0996 -0.0635
11167TIP3    H154916   6.715   1.750   4.262  0.8554 -0.6704  2.0743
11167TIP3    H254917   6.675   1.895   4.247 -0.6931 -1.3085 -0.6239
11168TIP3   OH254918   2.302   2.542   3.572 -0.0041 -0.0363 -0.2148
11168TIP3    H154919   2.358   2.486   3.626  0.6044  0.9986  0.2623
11168TIP3    H254920   2.351   2.554   3.491  0.2402  0.4555  0.0026
11169TIP3   OH254921   1.840   3.266  15.138 -1.0455 -0.5332  0.5088
11169TIP3    H154922   1.864   3.345  15.090 -0.3936 -1.7100 -1.2309
11169TIP3    H254923   1.762   3.234  15.094 -1.0261 -1.1163  0.8828
11170TIP3   OH254924   4.680   0.806  16.376  0.4940 -0.3651 -0.5233
11170TIP3    H154925   4.757   0.795  16.320 -0.2470 -1.5571 -1.3545
11170TIP3    H254926   4.614   0.748  16.338 -0.4761 -0.1795  0.8083
11171TIP3   OH254927   5.796   2.301  13.523 -0.2370  0.4361  0.3161
11171TIP3    H154928   5.727   2.273  13.583 -0.1269 -0.5950 -0.0205
11171TIP3    H254929   5.864   2.335  13.580 -0.0004 -0.8197  0.8184
11172TIP3   OH254930   3.328   3.010  12.944 -0.2008 -0.0898 -0.1205
11172TIP3    H154931   3.249   3.003  12.889 -1.1919 -0.8019  1.3305
11172TIP3    H254932   3.376   2.930  12.927 -0.8507 -0.6321  0.5364
11173TIP3   OH254933   2.470   4.945   4.202 -0.2839  0.2043 -0.1255
11173TIP3    H154934   2.491   4.858   4.170  0.6404  0.2854  0.2271
11173TIP3    H254935   2.552   4.994   4.195  0.4735 -0.1803  3.6843
11174TIP3   OH254936   2.471   2.594   0.491 -0.3188  0.4224  0.1961
11174TIP3    H154937   2.393   2.649   0.478  0.7745  2.0283  0.1788
11174TIP3    H254938   2.444   2.530   0.557 -0.9677  2.4410  1.9921
11175TIP3   OH254939   2.864   6.184  12.373 -0.8027 -0.3530  0.0850
11175TIP3    H154940   2.885   6.138  12.454  2.2233  2.6815  1.3063
11175TIP3    H254941   2.872   6.277  12.396  0.7692  0.6512 -3.7338
11176TIP3   OH254942   0.827   1.039  13.371 -0.3243  0.8880  0.0652
11176TIP3    H154943   0.843   0.975  13.302 -0.8615  0.8597 -0.0329
11176TIP3    H254944   0.745   1.011  13.412  1.3916 -0.8225  2.6669
11177TIP3   OH254945   2.663   4.131   5.648  0.7373  0.4410  0.2483
11177TIP3    H154946   2.585   4.093   5.689  1.4455 -0.5241  0.7327
11177TIP3    H254947   2.673   4.217   5.690 -0.0707  0.5818  0.1652
11178TIP3   OH254948   0.734   0.299  11.989 -0.0541 -1.0118  0.6146
11178TIP3    H154949   0.786   0.220  11.970  1.2725 -0.2644  0.9932
11178TIP3    H254950   0.798   0.362  12.023 -1.1939  0.0259  0.9085
11179TIP3   OH254951   3.498   1.654   4.612  0.0500  0.0635  0.2642
11179TIP3    H154952   3.517   1.593   4.541  0.7844  0.7038 -0.1021
11179TIP3    H254953   3.441   1.720   4.571 -1.6062 -0.9017  0.9133
11180TIP3   OH254954   6.325   2.388   5.094 -0.1249  0.2709 -0.4123
11180TIP3    H154955   6.296   2.472   5.060 -0.6240 -0.0313 -0.7534
11180TIP3    H254956   6.253   2.328   5.073  0.9703 -0.6233 -1.7869
11181TIP3   OH254957   6.392   2.233  12.726 -0.2456 -0.2404  0.4237
11181TIP3    H154958   6.458   2.188  12.674 -0.1039  0.2151  0.2019
11181TIP3    H254959   6.340   2.162  12.766  1.2617 -0.6265  1.7842
11182TIP3   OH254960   0.633   5.272   0.479  0.1872 -0.2088 -0.0872
11182TIP3    H154961   0.570   5.339   0.504  1.0610  0.3468  0.7017
11182TIP3    H254962   0.619   5.260   0.385  0.6601  1.8167 -0.4693
11183TIP3   OH254963   2.108   5.665   0.102  0.0279  0.3706 -0.9343
11183TIP3    H154964   2.141   5.596   0.044  3.5705  1.8396 -0.9455
11183TIP3    H254965   2.134   5.747   0.060 -1.6756  1.6760  0.3837
11184TIP3   OH254966   2.876   6.087   1.397  0.1039  0.1078  0.0070
11184TIP3    H154967   2.919   6.148   1.337 -0.3470 -0.2543 -0.6935
11184TIP3    H254968   2.789   6.126   1.411  0.3927  0.4663  0.8519
11185TIP3   OH254969   6.320   1.509  16.785 -0.2742  0.3035 -0.0493
11185TIP3    H154970   6.322   1.600  16.814 -1.0929 -0.2589  2.0117
11185TIP3    H254971   6.232   1.479  16.808  0.7540 -1.6614  1.6583
11186TIP3   OH254972   5.044   1.504  15.339 -0.2878 -0.3452  0.9986
11186TIP3    H154973   5.058   1.587  15.385 -0.7979  0.0794  0.4057
11186TIP3    H254974   4.975   1.460  15.390 -0.2051 -0.2869  1.1620
11187TIP3   OH254975   6.420   2.141  11.719 -0.0225  0.5484 -0.1572
11187TIP3    H154976   6.489   2.104  11.665 -1.1192 -0.8122 -0.6805
11187TIP3    H254977   6.366   2.192  11.658 -1.2101 -0.9167 -0.3991
11188TIP3   OH254978   4.336   1.334  12.401 -0.6152 -0.0468 -0.4151
11188TIP3    H154979   4.405   1.269  12.417 -0.6977 -0.2247 -0.7667
11188TIP3    H254980   4.303   1.312  12.314 -1.2368 -0.0725 -0.1759
11189TIP3   OH254981   1.037   6.099   1.862  0.0109  0.0602 -0.4634
11189TIP3    H154982   1.037   6.049   1.781  0.8455 -1.1941  0.2690
11189TIP3    H254983   1.111   6.064   1.912 -0.8853  0.3019  1.1253
11190TIP3   OH254984   4.051   1.941  14.365 -0.1751 -0.3456  0.4704
11190TIP3    H154985   4.000   1.866  14.396 -0.2411 -0.8716 -0.8493
11190TIP3    H254986   4.141   1.919  14.386 -0.0538 -1.4021 -1.0523
11191TIP3   OH254987   5.626   0.459  14.098 -0.2847  0.7273  0.0504
11191TIP3    H154988   5.720   0.444  14.110  0.0840  1.4766 -1.6234
11191TIP3    H254989   5.600   0.394  14.034 -0.1709  2.5202 -1.9269
11192TIP3   OH254990   2.089   1.099  11.963  0.4318  0.0363 -0.3943
11192TIP3    H154991   2.059   1.033  12.025  0.3295 -0.6440 -1.1651
11192TIP3    H254992   2.180   1.117  11.989  0.1892  0.2312  0.3439
11193TIP3   OH254993   4.212   6.636  15.307  0.1382 -0.2393 -0.4354
11193TIP3    H154994   4.245   6.702  15.368 -0.0726  1.3258 -1.9321
11193TIP3    H254995   4.178   6.566  15.363  1.8494  0.1469  1.1982
11194TIP3   OH254996   2.520   5.786   0.792  0.6674  0.0626 -0.0712
11194TIP3    H154997   2.607   5.789   0.754  0.9302 -0.9822  0.4307
11194TIP3    H254998   2.473   5.859   0.750  1.4773  0.0318 -1.0635
11195TIP3   OH254999   0.727   0.679  11.397  0.0370  0.0180  0.6407
11195TIP3    H155000   0.727   0.585  11.412  0.1054 -0.8556 -3.5200
11195TIP3    H255001   0.819   0.705  11.402  0.2475 -0.5649 -0.0774
11196TIP3   OH255002   3.619   4.451   6.102 -0.4272 -0.0354  0.5550
11196TIP3    H155003   3.706   4.411   6.099  0.3462  1.6107 -0.4673
11196TIP3    H255004   3.627   4.521   6.167 -0.7871  0.5426 -0.0107
11197TIP3   OH255005   4.670   0.769   5.559  0.5877 -0.1579  0.3292
11197TIP3    H155006   4.672   0.809   5.646 -1.5255 -0.4567  0.5692
11197TIP3    H255007   4.698   0.679   5.574 -1.3336 -0.6969  1.0670
11198TIP3   OH255008   2.145   5.031   5.034  0.1094  0.1393 -0.1073
11198TIP3    H155009   2.186   4.989   5.109  2.6233  2.6527  0.0975
11198TIP3    H255010   2.170   4.978   4.959 -2.1104 -2.1796  0.6337
11199TIP3   OH255011   5.083   1.545   4.090  0.0150 -1.2379  0.3009
11199TIP3    H155012   5.064   1.469   4.034 -2.2761 -0.3755 -0.1896
11199TIP3    H255013   4.999   1.564   4.133  1.2055 -0.5916  2.4791
11200TIP3   OH255014   1.703   5.125   3.899  0.3566  0.3780  0.3977
11200TIP3    H155015   1.720   5.217   3.923 -1.6937  0.6496  1.0120
11200TIP3    H255016   1.625   5.101   3.950 -0.0318 -1.2512 -0.8718
11201TIP3   OH255017   0.854   4.182   5.305  0.0491  0.1614 -0.0426
11201TIP3    H155018   0.854   4.146   5.216 -1.1798 -0.1530  0.0583
11201TIP3    H255019   0.809   4.266   5.296 -2.7856 -1.1641  0.7069
11202TIP3   OH255020   5.068   6.138  15.444  0.0197 -0.4352 -0.6290
11202TIP3    H155021   4.991   6.171  15.491 -0.1818 -0.1369 -1.1625
11202TIP3    H255022   5.058   6.043  15.446 -1.1408 -0.3682 -1.9617
11203TIP3   OH255023   5.244   4.886   3.043  0.1379 -0.1923 -0.2439
11203TIP3    H155024   5.232   4.793   3.058  0.1323  0.0490  1.4293
11203TIP3    H255025   5.228   4.898   2.949  0.8946 -1.9648 -0.6276
11204TIP3   OH255026   6.152   5.354  16.948 -0.3525 -0.0104 -0.2421
11204TIP3    H155027   6.074   5.368  16.894 -0.9876  0.4176  0.7580
11204TIP3    H255028   6.167   5.438  16.990 -0.5258 -0.6095  1.0781
11205TIP3   OH255029   5.023   3.372   3.058  0.1016 -0.3392  0.1129
11205TIP3    H155030   5.022   3.397   2.965 -2.6528 -1.4424 -0.2679
11205TIP3    H255031   5.008   3.454   3.105  2.6220  0.4211 -0.2503
11206TIP3   OH255032   2.512   5.209  12.839 -0.3707  0.2276 -0.1707
11206TIP3    H155033   2.430   5.244  12.803 -0.7535 -1.4925 -1.0802
11206TIP3    H255034   2.580   5.247  12.784 -0.7765 -0.4093 -1.1413
11207TIP3   OH255035   1.396   1.580  16.493 -0.1852  0.1323 -0.2116
11207TIP3    H155036   1.477   1.531  16.486 -1.3841 -2.1207  0.7030
11207TIP3    H255037   1.424   1.672  16.497  2.3655 -0.6105  1.0145
11208TIP3   OH255038   2.574   4.061   4.482  0.1083  0.0013  0.0826
11208TIP3    H155039   2.520   4.011   4.544  1.7204 -2.4587 -0.3762
11208TIP3    H255040   2.595   4.141   4.530 -1.6425 -0.1930  1.3017
11209TIP3   OH255041   0.344   1.707  12.464  0.4196  0.4697 -0.5897
11209TIP3    H155042   0.316   1.628  12.509  0.4998 -0.6395 -2.3804
11209TIP3    H255043   0.397   1.676  12.390 -0.2721  2.1230 -1.8673
11210TIP3   OH255044   2.034   1.102  13.564 -0.2308 -0.2469 -0.0102
11210TIP3    H155045   2.042   1.007  13.568 -0.1090 -0.1892  2.3578
11210TIP3    H255046   1.941   1.119  13.577 -0.1009 -0.0399  0.7421
11211TIP3   OH255047   2.731   1.416   3.560  0.2510  0.5511  0.3070
11211TIP3    H155048   2.694   1.366   3.633 -0.1107 -0.3050 -0.4512
11211TIP3    H255049   2.660   1.473   3.531  0.1143  0.2431  0.0411
11212TIP3   OH255050   4.478   6.662  15.568 -0.1856  0.1135 -0.4196
11212TIP3    H155051   4.554   6.688  15.516 -0.8238  0.8051 -1.0162
11212TIP3    H255052   4.481   6.566  15.568  1.9151  0.0875  1.3941
11213TIP3   OH255053   4.185   1.023  16.186 -0.1134 -0.3150  0.1419
11213TIP3    H155054   4.230   1.015  16.102  1.7661 -1.5244  1.1823
11213TIP3    H255055   4.188   0.934  16.223 -0.0244  0.3678  1.8686
11214TIP3   OH255056   1.708   0.425  13.441 -0.3785 -0.3415 -0.2665
11214TIP3    H155057   1.804   0.425  13.430 -0.3968 -1.2182 -0.4906
11214TIP3    H255058   1.688   0.514  13.472  0.2637  0.6061 -2.3319
11215TIP3   OH255059   2.012   6.572   4.064  0.2944 -0.3740  0.9064
11215TIP3    H155060   1.987   6.536   3.979 -1.3614  1.4034  0.5474
11215TIP3    H255061   2.104   6.549   4.075  0.5667 -0.5709 -1.4081
11216TIP3   OH255062   2.326   3.445  14.668  0.2163  0.1368 -0.1028
11216TIP3    H155063   2.379   3.522  14.645 -0.0695  0.5256  0.5229
11216TIP3    H255064   2.235   3.475  14.657  0.1104 -0.2909 -0.4166
11217TIP3   OH255065   6.065   2.925   3.776 -0.0495  0.3086  0.1644
11217TIP3    H155066   6.144   2.931   3.830 -0.5665  0.7954  0.8876
11217TIP3    H255067   6.035   2.834   3.787 -1.6215  1.0595  2.8846
11218TIP3   OH255068   0.032   4.426  15.732  0.1496 -0.5375  0.0237
11218TIP3    H155069   0.050   4.423  15.638 -1.4030 -1.7705 -0.2776
11218TIP3    H255070   0.047   4.517  15.756  2.0004 -0.4848 -1.0950
11219TIP3   OH255071   4.983   5.278  13.564  0.4457  0.2725  0.2756
11219TIP3    H155072   4.934   5.317  13.491 -0.2857 -0.8705  0.1443
11219TIP3    H255073   4.947   5.321  13.642 -2.0539 -1.7201  0.3520
11220TIP3   OH255074   4.141   4.245   5.736  0.0607  0.3455  0.5520
11220TIP3    H155075   4.083   4.312   5.698  0.8537  1.8934  1.9132
11220TIP3    H255076   4.206   4.229   5.668 -1.9767 -1.5709 -1.0805
11221TIP3   OH255077   4.853   1.628   4.189  0.0405  0.4911 -0.2124
11221TIP3    H155078   4.808   1.713   4.186  1.5403  1.3040 -1.3105
11221TIP3    H255079   4.804   1.573   4.127 -0.7613  0.6519  0.2783
11222TIP3   OH255080   3.694   3.293   2.236 -0.1507  0.4987 -0.5982
11222TIP3    H155081   3.672   3.234   2.308  1.6427  0.8421  0.2936
11222TIP3    H255082   3.725   3.235   2.167  1.0300  0.3261  0.0533
11223TIP3   OH255083   4.994   4.469  16.210 -0.0671 -0.3597  0.1567
11223TIP3    H155084   5.049   4.445  16.136 -0.2178 -1.7177  0.4513
11223TIP3    H255085   4.971   4.560  16.195  2.2281  0.2438  0.0107
11224TIP3   OH255086   0.735   1.533   1.000 -0.5453  0.4745 -0.3889
11224TIP3    H155087   0.730   1.568   1.088 -0.1245  0.9974 -0.5712
11224TIP3    H255088   0.794   1.592   0.953  2.1848 -1.7812 -0.0562
11225TIP3   OH255089   2.832   3.052  16.756 -0.4710  0.6535  0.1321
11225TIP3    H155090   2.883   3.073  16.677  1.7281  0.9422  1.5624
11225TIP3    H255091   2.794   3.135  16.782  1.5739  1.3075  1.2143
11226TIP3   OH255092   2.665   3.434  16.178  0.5574  0.1498  0.4642
11226TIP3    H155093   2.735   3.499  16.172 -0.2096  1.1283  1.7000
11226TIP3    H255094   2.711   3.351  16.189  1.5510  0.8146  1.5898
11227TIP3   OH255095   2.768   5.747  11.576 -0.6305 -0.4813 -0.1970
11227TIP3    H155096   2.834   5.778  11.639 -1.9996  1.7507  0.2296
11227TIP3    H255097   2.782   5.652  11.573  2.0769 -0.2134  0.4497
11228TIP3   OH255098   3.971   6.774  15.487 -0.4495  0.0488 -0.2171
11228TIP3    H155099   3.975   6.682  15.461  1.3227 -0.5424  1.8234
11228TIP3    H255100   4.063   6.799  15.498 -0.7015  2.9716 -3.4373
11229TIP3   OH255101   3.574   4.042  14.786 -0.5170 -0.2661  0.1691
11229TIP3    H155102   3.646   4.096  14.817 -0.6031 -0.4278  0.6560
11229TIP3    H255103   3.504   4.105  14.767 -0.0209 -0.0410 -0.9775
11230TIP3   OH255104   0.005   2.557   5.862  0.0569 -0.0390  0.1317
11230TIP3    H155105  -0.082   2.586   5.891 -0.2451  2.0614 -2.5541
11230TIP3    H255106   0.066   2.605   5.919 -0.4805 -0.6250  1.2434
11231TIP3   OH255107   3.662   0.926   1.638  0.4063 -0.4919 -0.3726
11231TIP3    H155108   3.621   0.861   1.580  2.0478 -0.0815 -2.0814
11231TIP3    H255109   3.755   0.920   1.619  1.0736 -0.4410  2.4250
11232TIP3   OH255110   5.291   6.408   4.642 -0.5282 -0.6978 -0.4118
11232TIP3    H155111   5.245   6.331   4.676 -0.7387 -0.3424  0.1170
11232TIP3    H255112   5.367   6.373   4.596  0.4382 -1.1474  1.4399
11233TIP3   OH255113   5.228   1.350   3.236 -0.0293  0.7993  0.1821
11233TIP3    H155114   5.219   1.283   3.303 -0.1441 -0.2550 -0.8672
11233TIP3    H255115   5.265   1.305   3.161  0.0120  1.9395 -0.5133
11234TIP3   OH255116   1.044   3.401   0.188  0.4394  0.1597 -0.5672
11234TIP3    H155117   0.959   3.369   0.218  0.0100  0.3967 -1.4732
11234TIP3    H255118   1.105   3.331   0.209 -0.3516 -0.9839 -1.8866
11235TIP3   OH255119   0.017   0.061  13.585 -0.3234  0.9598 -0.0119
11235TIP3    H155120   0.091   0.037  13.528 -0.7858 -1.7205  0.4222
11235TIP3    H255121  -0.031   0.126  13.534  1.3022  1.4055 -1.0758
11236TIP3   OH255122   1.330   1.041  17.057 -0.1036  0.5765  0.5415
11236TIP3    H155123   1.396   0.978  17.083 -0.6583  0.3487  1.4775
11236TIP3    H255124   1.247   0.995  17.068 -0.4014 -0.2086 -3.5650
11237TIP3   OH255125   2.862   2.725  14.214  0.2900  0.1794  0.0824
11237TIP3    H155126   2.956   2.716  14.196  0.8606  0.2610  2.5476
11237TIP3    H255127   2.857   2.731  14.310 -2.3326 -1.0022  0.1078
11238TIP3   OH255128   3.067   5.428   6.509  0.2237 -0.6324  0.4948
11238TIP3    H155129   3.143   5.414   6.565  0.8831 -0.4529 -0.3274
11238TIP3    H255130   3.033   5.340   6.493  1.8639 -1.0153 -1.2672
11239TIP3   OH255131   0.255   4.632  12.347  0.6178 -0.2334 -0.1639
11239TIP3    H155132   0.295   4.546  12.336 -1.5830 -1.3288 -0.2249
11239TIP3    H255133   0.266   4.675  12.262  1.6482 -0.4686 -0.1628
11240TIP3   OH255134   3.931   5.003   3.322 -0.2427 -0.5468  0.6771
11240TIP3    H155135   3.914   5.074   3.384 -1.4317 -1.1910  1.1218
11240TIP3    H255136   3.978   4.937   3.373 -2.5388 -1.7429  1.3928
11241TIP3   OH255137   1.773   1.818   3.506 -0.1755 -0.2584  0.0517
11241TIP3    H155138   1.708   1.823   3.436 -0.5181 -0.4292  0.3567
11241TIP3    H255139   1.857   1.821   3.460 -0.3963 -0.2593 -0.3601
11242TIP3   OH255140   5.107   5.682   4.868  0.7302 -0.0627 -0.0487
11242TIP3    H155141   5.111   5.588   4.884  1.3783 -0.1326 -0.5946
11242TIP3    H255142   5.162   5.721   4.937  1.1347 -0.1466 -0.3225
11243TIP3   OH255143   3.725   0.701  16.795 -0.4034 -0.3225  0.3480
11243TIP3    H155144   3.736   0.796  16.792 -1.7612 -0.1307  0.6891
11243TIP3    H255145   3.718   0.674  16.704  1.9631 -0.3910  0.1320
11244TIP3   OH255146   2.635   5.280  16.857  0.4615  0.1409 -0.2970
11244TIP3    H155147   2.647   5.372  16.832  0.1451  0.5443  0.9384
11244TIP3    H255148   2.719   5.238  16.839  0.9371  0.9130  0.0765
11245TIP3   OH255149   5.407   5.893  14.266 -0.0918 -0.3371  0.5915
11245TIP3    H155150   5.469   5.842  14.319  0.8045  0.7269  0.5862
11245TIP3    H255151   5.377   5.962  14.325 -1.8662 -1.2638  0.8321
11246TIP3   OH255152   5.261   3.734   3.637 -0.3129  0.3485  0.2056
11246TIP3    H155153   5.269   3.822   3.672 -0.3313  0.1683  0.6699
11246TIP3    H255154   5.168   3.714   3.643 -0.3605  0.4305 -0.2330
11247TIP3   OH255155   3.985   0.741   5.578  0.1737  0.0410  0.1085
11247TIP3    H155156   4.022   0.773   5.496 -0.1201  0.6647  0.2139
11247TIP3    H255157   3.993   0.645   5.572  1.7393  0.1473  0.1036
11248TIP3   OH255158   3.311   0.662  15.999  0.6793 -0.4830 -0.1457
11248TIP3    H155159   3.395   0.620  15.980 -0.4534 -2.6578 -0.7151
11248TIP3    H255160   3.278   0.689  15.913  0.7111  0.2389  0.0600
11249TIP3   OH255161   6.368   5.287   5.408 -0.3617  0.1210 -0.5063
11249TIP3    H155162   6.289   5.254   5.451 -0.7082  0.2150 -1.0655
11249TIP3    H255163   6.411   5.341   5.475 -0.2857 -0.6787  0.1051
11250TIP3   OH255164   3.723   5.933  16.481 -0.5484  0.0634  0.0827
11250TIP3    H155165   3.765   5.852  16.453 -1.2481 -1.0903  2.1496
11250TIP3    H255166   3.637   5.930  16.440  0.2611  0.9974 -1.7913
11251TIP3   OH255167   0.345   5.625   4.053 -0.1217 -0.3755 -0.3848
11251TIP3    H155168   0.323   5.580   4.135  0.4566  0.7128  0.3863
11251TIP3    H255169   0.433   5.595   4.032  0.9444  1.5796  1.0214
11252TIP3   OH255170   1.904   5.772   1.597  0.3778  0.1433 -0.1183
11252TIP3    H155171   1.874   5.700   1.542  1.1178  0.2262 -0.6450
11252TIP3    H255172   1.963   5.822   1.541 -0.4036  1.3759  0.1070
11253TIP3   OH255173   1.161   2.295   4.593  0.2750 -0.1935 -0.0637
11253TIP3    H155174   1.106   2.342   4.530  0.9933  1.0164  0.1911
11253TIP3    H255175   1.153   2.203   4.566 -1.3014  0.0207 -0.4553
11254TIP3   OH255176   4.980   6.351  14.604  0.4187 -0.0202 -0.2977
11254TIP3    H155177   5.065   6.327  14.568  0.2717 -0.9125 -0.0700
11254TIP3    H255178   4.917   6.326  14.537  0.3683  1.2763 -0.7629
11255TIP3   OH255179   4.673   4.397   3.861 -0.2579 -0.1428 -0.2839
11255TIP3    H155180   4.579   4.379   3.860 -0.6701  1.7310 -1.6006
11255TIP3    H255181   4.700   4.389   3.769  0.8402 -0.4541  0.0487
11256TIP3   OH255182   4.864   3.392   0.488 -0.1398  0.4128 -0.6269
11256TIP3    H155183   4.948   3.383   0.532  0.3151  0.9008 -1.3750
11256TIP3    H255184   4.833   3.479   0.512 -0.2372  0.3915 -0.6740
11257TIP3   OH255185   2.651   1.250  17.305 -0.3625  0.4903  0.6909
11257TIP3    H155186   2.558   1.231  17.296 -0.3740  0.3568  1.0746
11257TIP3    H255187   2.658   1.345  17.294 -0.4985  0.4594  0.3212
11258TIP3   OH255188   6.370   5.026   5.100  0.4922 -0.4514  0.3493
11258TIP3    H155189   6.321   5.046   5.180 -0.0212  2.1040 -0.5114
11258TIP3    H255190   6.445   5.086   5.103  2.5628 -2.8850  0.6528
11259TIP3   OH255191   0.765   2.473  11.528 -0.0634 -0.1731 -0.0171
11259TIP3    H155192   0.780   2.452  11.620  1.2148  0.1996 -0.1165
11259TIP3    H255193   0.702   2.545  11.530  0.7264  0.5137  0.6148
11260TIP3   OH255194   4.832   6.278   0.932 -0.1333 -0.3056 -0.2175
11260TIP3    H155195   4.803   6.207   0.989  0.6507 -1.1913 -0.8946
11260TIP3    H255196   4.877   6.339   0.990 -0.9392 -0.2648  0.3927
11261TIP3   OH255197   2.468   2.411  16.719  0.2644 -0.2734  0.0559
11261TIP3    H155198   2.436   2.489  16.765  0.6543  0.2609 -0.5540
11261TIP3    H255199   2.455   2.431  16.626  1.1601 -0.5640 -0.1454
11262TIP3   OH255200   3.280   2.488   2.760 -0.0915 -0.4007 -0.7516
11262TIP3    H155201   3.366   2.495   2.801  0.7970  2.6064 -2.7721
11262TIP3    H255202   3.220   2.528   2.824 -0.0474 -2.3107  0.5687
11263TIP3   OH255203   4.701   1.810  11.245  0.0542  0.8296 -0.2718
11263TIP3    H155204   4.683   1.732  11.297 -0.0231  0.2888 -1.0825
11263TIP3    H255205   4.772   1.854  11.290  0.8067 -0.2672 -0.3595
11264TIP3   OH255206   1.565   5.849   0.807 -0.0964  0.1701  0.0098
11264TIP3    H155207   1.480   5.872   0.768 -0.0627 -0.0451 -0.1924
11264TIP3    H255208   1.550   5.856   0.901 -1.3236 -3.0688  0.1942
11265TIP3   OH255209   0.879   0.660  15.406  0.6085  0.4159 -0.2561
11265TIP3    H155210   0.916   0.739  15.366  0.3929  0.9007  0.4751
11265TIP3    H255211   0.925   0.651  15.489  0.3502 -0.0054 -0.1525
11266TIP3   OH255212   4.193   3.240   0.201  0.1407  0.3938 -0.0242
11266TIP3    H155213   4.171   3.318   0.150 -1.2143 -0.9203 -1.5795
11266TIP3    H255214   4.286   3.225   0.182  0.3563  1.4724  0.1115
11267TIP3   OH255215   0.394   2.260  12.933  0.5288 -0.3149 -0.1076
11267TIP3    H155216   0.307   2.219  12.931  0.2264  0.2349  1.0502
11267TIP3    H255217   0.410   2.277  13.025  0.8183  1.8088 -0.4949
11268TIP3   OH255218   3.339   5.489   2.442  0.2612  0.0172  0.8818
11268TIP3    H155219   3.347   5.584   2.452 -0.6598  0.2118 -0.0646
11268TIP3    H255220   3.383   5.453   2.519  0.3770  1.2139  1.3957
11269TIP3   OH255221   3.503   0.764  13.878  0.0032 -0.2790  0.0610
11269TIP3    H155222   3.442   0.748  13.950 -0.8935 -0.5205 -0.7348
11269TIP3    H255223   3.460   0.726  13.801  0.3321  1.1412 -0.8586
11270TIP3   OH255224   5.568   5.252  17.266  0.2552  0.6208  0.6645
11270TIP3    H155225   5.480   5.216  17.257  0.8452 -0.7759  0.2213
11270TIP3    H255226   5.554   5.346  17.281 -1.2441  0.9481 -2.1333
11271TIP3   OH255227   2.982   5.368  14.597  0.4177 -0.0029  0.4636
11271TIP3    H155228   3.005   5.280  14.569  0.4895 -0.2811  1.3602
11271TIP3    H255229   3.065   5.408  14.624  0.1930 -0.2205  1.5461
11272TIP3   OH255230   6.600   1.743  11.902 -0.5015  0.1735  0.0428
11272TIP3    H155231   6.693   1.747  11.925 -0.7814  1.0818  1.1245
11272TIP3    H255232   6.571   1.657  11.933  0.1448 -0.4378 -1.0193
11273TIP3   OH255233   0.156   6.610   3.583 -0.2750  0.1657 -0.8474
11273TIP3    H155234   0.211   6.618   3.504 -1.1019 -1.6679 -1.6675
11273TIP3    H255235   0.101   6.533   3.566  0.7525 -1.4238  2.2720
11274TIP3   OH255236   5.762   1.895   6.297  0.3013 -0.5438 -0.1483
11274TIP3    H155237   5.729   1.811   6.263 -1.3810 -0.7941  1.8807
11274TIP3    H255238   5.682   1.945   6.315  1.2209  0.6478  0.6986
11275TIP3   OH255239   4.496   4.235  11.140  0.2832  0.2756  0.0007
11275TIP3    H155240   4.514   4.307  11.200 -1.6399  2.8078 -2.1954
11275TIP3    H255241   4.535   4.262  11.057  0.2371 -1.6531 -0.7171
11276TIP3   OH255242   6.421   0.255  12.886 -0.6286  0.3817 -0.2545
11276TIP3    H155243   6.418   0.215  12.799  0.0246  1.0760 -0.6028
11276TIP3    H255244   6.442   0.182  12.945 -0.6239 -0.0074 -0.7300
11277TIP3   OH255245   3.873   1.781  15.399  0.5560 -0.0291  0.0990
11277TIP3    H155246   3.855   1.712  15.335  2.4865 -0.4931 -0.0259
11277TIP3    H255247   3.854   1.740  15.484 -0.6272  0.1148 -0.0821
11278TIP3   OH255248   6.353   3.313   3.861  0.2322  0.2801  0.4983
11278TIP3    H155249   6.329   3.310   3.769 -0.1434  2.1978  0.4998
11278TIP3    H255250   6.276   3.348   3.906  1.3431  2.1514  1.1023
11279TIP3   OH255251   4.657   4.887   1.020 -0.5334  0.6322  0.1710
11279TIP3    H155252   4.702   4.945   1.082  3.0793 -2.2176  0.5133
11279TIP3    H255253   4.616   4.821   1.075  0.1928 -0.2728 -0.3579
11280TIP3   OH255254   6.584   2.329  11.953  0.1737 -0.4904  0.2004
11280TIP3    H155255   6.557   2.418  11.932  0.9223  0.0298  1.3372
11280TIP3    H255256   6.638   2.302  11.879  0.1017  0.0778 -0.0638
11281TIP3   OH255257   6.616   2.774  13.866  0.1550 -0.3361 -0.5410
11281TIP3    H155258   6.681   2.737  13.926 -0.8966 -0.5740  0.4856
11281TIP3    H255259   6.532   2.749  13.904 -0.6341  2.7796  0.0438
11282TIP3   OH255260   1.063   4.732  16.574  0.0918 -0.6984  0.2485
11282TIP3    H155261   1.146   4.780  16.573  0.3164 -0.8507 -3.3708
11282TIP3    H255262   1.084   4.649  16.619  2.1395 -0.9996 -1.1050
11283TIP3   OH255263   2.297   3.493   3.349  0.9685  0.3023 -0.1878
11283TIP3    H155264   2.297   3.461   3.259 -1.9220 -0.1441 -0.1254
11283TIP3    H255265   2.229   3.442   3.393  0.0365  2.6896  1.3789
11284TIP3   OH255266   2.902   3.253   3.151  0.2460  0.0823 -0.0416
11284TIP3    H155267   2.858   3.247   3.065  1.3121  0.3223 -0.6157
11284TIP3    H255268   2.896   3.165   3.187  1.1008 -0.4056 -1.0397
11285TIP3   OH255269   5.980   5.155  12.715 -0.5366 -0.3454 -0.1582
11285TIP3    H155270   5.930   5.182  12.638 -1.1838  1.7118  0.9181
11285TIP3    H255271   6.026   5.235  12.742  0.8500 -1.4094  0.7352
11286TIP3   OH255272   5.005   3.025  12.824  0.3419  0.0528  0.2664
11286TIP3    H155273   5.019   3.059  12.735  1.2108  2.0057  1.1034
11286TIP3    H255274   4.929   3.071  12.856 -0.5171 -1.3094  0.2642
11287TIP3   OH255275   0.442   5.628  12.904 -0.3697  0.0849  0.2088
11287TIP3    H155276   0.463   5.564  12.836 -0.7791  2.2040 -2.0277
11287TIP3    H255277   0.515   5.689  12.905 -1.1252  1.0237  0.4781
11288TIP3   OH255278   6.350   1.806  16.269  0.3079 -1.1769  0.1155
11288TIP3    H155279   6.370   1.895  16.300 -0.7831 -0.9390  0.1847
11288TIP3    H255280   6.268   1.783  16.314 -0.9790 -1.0789 -2.0427
11289TIP3   OH255281   4.459   5.189   4.307 -0.1160  0.0506 -0.0408
11289TIP3    H155282   4.475   5.127   4.236  1.8471 -0.1083  0.4718
11289TIP3    H255283   4.541   5.237   4.316 -0.7415  0.9370  1.2815
11290TIP3   OH255284   5.486   4.943  12.254  0.4847  0.1813  0.1939
11290TIP3    H155285   5.453   4.921  12.167  0.2719  0.3870  0.2190
11290TIP3    H255286   5.581   4.933  12.248  0.2860 -2.9991  0.8276
11291TIP3   OH255287   5.306   3.634   5.023  0.2403 -0.0411 -0.1480
11291TIP3    H155288   5.261   3.708   5.065 -0.0176  0.7238 -1.6770
11291TIP3    H255289   5.399   3.649   5.041  0.2086  0.7956 -0.6192
11292TIP3   OH255290   1.824   1.736  12.581  0.4656  0.2483  0.5882
11292TIP3    H155291   1.766   1.677  12.533  1.3448  0.7079 -1.1344
11292TIP3    H255292   1.783   1.746  12.667 -0.0231 -2.3531  0.7313
11293TIP3   OH255293   3.395   0.520   5.094  0.0705 -0.3909  0.0311
11293TIP3    H155294   3.409   0.566   5.177  1.8624 -0.1926 -0.3457
11293TIP3    H255295   3.461   0.452   5.094  1.1805  0.6232 -1.9361
11294TIP3   OH255296   2.008   1.218  17.234  0.2126  0.5413  0.4088
11294TIP3    H155297   1.918   1.188  17.224  0.0847  0.7286  0.9232
11294TIP3    H255298   2.041   1.230  17.145  0.8153 -2.6594  0.0777
11295TIP3   OH255299   2.802   2.179   6.080  0.0710  0.3039 -0.0909
11295TIP3    H155300   2.757   2.200   6.162 -0.3533  0.0867 -0.2706
11295TIP3    H255301   2.895   2.189   6.101  0.1037 -1.9458  1.0479
11296TIP3   OH255302   4.808   6.774  13.395 -0.3815  0.4626 -0.2915
11296TIP3    H155303   4.779   6.797  13.483  0.3487  0.8546 -0.1474
11296TIP3    H255304   4.866   6.846  13.369 -0.5900  0.3499 -1.0917
11297TIP3   OH255305   3.433   6.136  11.440  0.1953 -0.7108 -0.4226
11297TIP3    H155306   3.429   6.049  11.479  0.4125 -0.2135  0.7756
11297TIP3    H255307   3.524   6.145  11.410  0.3436 -0.6808  0.0198
11298TIP3   OH255308   3.795   6.635   2.812  0.3797 -0.1259 -0.1775
11298TIP3    H155309   3.808   6.563   2.874  0.7469  1.3837  1.5478
11298TIP3    H255310   3.846   6.608   2.735  0.7775 -1.5651  0.5442
11299TIP3   OH255311   1.931   1.966  12.984  0.3821  0.4210 -0.0631
11299TIP3    H155312   1.968   2.034  13.040 -0.9532  2.3756 -1.4505
11299TIP3    H255313   1.993   1.958  12.912  0.9041 -0.4065  0.4554
11300TIP3   OH255314   2.820   5.644   4.591 -0.4219 -0.3743 -0.5043
11300TIP3    H155315   2.783   5.687   4.668 -0.1623  0.5219 -0.8587
11300TIP3    H255316   2.839   5.555   4.619  2.6432  0.7362  1.4706
11301TIP3   OH255317   3.957   5.805  13.192  0.1946  0.4530  0.0877
11301TIP3    H155318   3.904   5.841  13.264 -2.4743 -0.4485 -1.2927
11301TIP3    H255319   3.982   5.718  13.222 -0.5594  0.2385  0.1180
11302TIP3   OH255320   4.040   6.503   5.355  0.0404 -0.0365 -0.4977
11302TIP3    H155321   3.976   6.509   5.425  1.3403  0.7810  0.6689
11302TIP3    H255322   4.052   6.593   5.325  0.3220 -0.2379 -1.0146
11303TIP3   OH255323   1.209   3.714   1.958 -0.3118 -0.0654  0.0426
11303TIP3    H155324   1.247   3.666   1.885  1.0757 -0.4386  0.9796
11303TIP3    H255325   1.195   3.647   2.026  2.0696  0.8097  1.5349
11304TIP3   OH255326   1.534   3.933   1.356 -0.2390 -0.0389 -0.4488
11304TIP3    H155327   1.595   3.921   1.429  1.2475 -0.5102 -1.7342
11304TIP3    H255328   1.523   3.845   1.320 -1.1519  0.1526 -0.6650
11305TIP3   OH255329   3.687   2.398  13.036 -0.3072 -0.4735 -0.1496
11305TIP3    H155330   3.696   2.424  12.945  0.6980  1.5475  0.4628
11305TIP3    H255331   3.722   2.472  13.086  2.3373 -2.7946  1.8001
11306TIP3   OH255332   4.656   6.285  11.743 -0.0299 -0.7757 -0.1145
11306TIP3    H155333   4.594   6.232  11.693  0.5130  0.5303 -2.3349
11306TIP3    H255334   4.643   6.374  11.709  0.0287  0.3096  2.5013
11307TIP3   OH255335   5.798   3.627  16.583 -0.1813  0.3304 -0.1452
11307TIP3    H155336   5.826   3.712  16.616 -0.5533  0.4250 -0.0677
11307TIP3    H255337   5.741   3.592  16.652  1.0241 -0.5674  0.4255
11308TIP3   OH255338   4.024   0.788  17.172  0.8052  0.4786 -0.2423
11308TIP3    H155339   3.957   0.843  17.131 -1.2055  1.2299  3.5488
11308TIP3    H255340   4.107   0.825  17.142 -0.4895  3.5466 -0.4704
11309TIP3   OH255341   5.246   6.122   0.215  0.1330  0.6741  0.2658
11309TIP3    H155342   5.318   6.174   0.179 -0.0813 -0.8853 -2.7257
11309TIP3    H255343   5.225   6.165   0.298  2.5227  2.9431 -0.1574
11310TIP3   OH255344   3.261   4.465  15.639 -0.2676 -0.2914 -0.0991
11310TIP3    H155345   3.345   4.419  15.641 -0.2776 -0.3273 -0.5077
11310TIP3    H255346   3.196   4.395  15.630 -0.3074 -0.2274 -0.3122
11311TIP3   OH255347   0.683   2.040  16.894 -0.0020  0.4128 -0.3707
11311TIP3    H155348   0.684   2.090  16.976  0.1955  0.3693 -0.3455
11311TIP3    H255349   0.752   2.080  16.841 -0.4078  0.7041 -0.6776
11312TIP3   OH255350   2.087   4.181   5.321  0.3492 -0.1024 -0.3562
11312TIP3    H155351   2.034   4.226   5.255  0.2408  0.5294  0.1501
11312TIP3    H255352   2.136   4.251   5.364  1.8775 -0.6977 -1.0322
11313TIP3   OH255353   5.353   0.829  15.798  0.1122  0.3603  0.1474
11313TIP3    H155354   5.270   0.790  15.826  0.8911 -2.1846 -0.8299
11313TIP3    H255355   5.401   0.842  15.879 -0.7923  0.7970  0.6313
11314TIP3   OH255356   2.434   2.196  12.728 -0.1905 -0.9133  0.7305
11314TIP3    H155357   2.436   2.166  12.637  0.6452  0.7041  0.1821
11314TIP3    H255358   2.524   2.219  12.748 -0.4649 -0.6951  1.7683
11315TIP3   OH255359   1.734   2.553   2.685  0.2236  0.4528  0.2782
11315TIP3    H155360   1.650   2.505   2.687 -0.5234  1.7408  1.2273
11315TIP3    H255361   1.779   2.517   2.608 -1.5635  0.3244 -0.7961
11316TIP3   OH255362   0.202   4.999  14.848 -0.2920 -0.2903  0.6224
11316TIP3    H155363   0.251   4.971  14.770  0.5183  1.6317  0.3860
11316TIP3    H255364   0.158   5.080  14.821  0.1757  0.5381  2.2002
11317TIP3   OH255365   5.662   1.017   4.352 -0.7165 -0.3400 -0.0748
11317TIP3    H155366   5.613   1.026   4.433  0.6807  2.7514  0.5946
11317TIP3    H255367   5.681   0.924   4.345  0.4355 -0.6055  4.0196
11318TIP3   OH255368   3.792   6.378  16.455 -0.2790 -0.7143 -0.1525
11318TIP3    H155369   3.802   6.466  16.419  0.1895 -0.4500  0.5950
11318TIP3    H255370   3.725   6.337  16.400  0.1339 -0.2051 -1.0667
11319TIP3   OH255371   3.043   4.800  16.934  0.1795 -0.5137 -0.0573
11319TIP3    H155372   3.015   4.731  16.995 -0.8662 -2.1372 -2.2275
11319TIP3    H255373   2.973   4.865  16.938  0.6486 -0.0538  1.2191
11320TIP3   OH255374   5.329   4.839  16.029  0.5461  0.7511 -0.0774
11320TIP3    H155375   5.280   4.919  16.048 -0.2014  0.2226  0.2674
11320TIP3    H255376   5.269   4.786  15.976  0.1672 -0.5059  1.5273
11321TIP3   OH255377   3.523   6.438  12.991 -0.5975 -0.5007  0.3625
11321TIP3    H155378   3.534   6.440  13.086 -1.0626 -1.0791  0.4347
11321TIP3    H255379   3.462   6.510  12.973 -2.2073 -1.7038  0.7644
11322TIP3   OH255380   3.709   4.687  13.075 -0.2657 -0.4222 -0.0639
11322TIP3    H155381   3.658   4.646  13.005 -0.2744  1.7944 -1.4430
11322TIP3    H255382   3.642   4.726  13.132 -0.2084 -1.0021  0.4101
11323TIP3   OH255383   3.126   4.143  17.030  0.3641  0.2155 -0.0696
11323TIP3    H155384   3.056   4.119  17.091  0.0727  0.2002 -0.4010
11323TIP3    H255385   3.200   4.166  17.085  0.3334 -0.4972  0.2747
11324TIP3   OH255386   3.307   5.202  12.790  0.2307  0.1860 -0.4292
11324TIP3    H155387   3.392   5.236  12.816 -0.1641  0.5821  0.3793
11324TIP3    H255388   3.272   5.161  12.869  0.9650 -2.7695 -1.4970
11325TIP3   OH255389   4.309   1.763  11.848  0.0495  0.1629  0.4011
11325TIP3    H155390   4.336   1.675  11.823 -0.5858  0.1283 -0.2001
11325TIP3    H255391   4.220   1.751  11.883  1.1165  0.1063  3.3383
11326TIP3   OH255392   3.937   2.615  12.397 -0.0807 -0.9625 -0.1579
11326TIP3    H155393   3.934   2.661  12.313 -2.0259  0.7671  0.7920
11326TIP3    H255394   3.896   2.530  12.380 -0.2385 -0.7248 -0.9927
11327TIP3   OH255395   4.749   0.265  11.731 -0.1850 -0.1069 -0.5650
11327TIP3    H155396   4.665   0.230  11.700 -1.4964  2.3362 -0.0433
11327TIP3    H255397   4.746   0.357  11.707  3.4203 -0.3561 -2.6301
11328TIP3   OH255398   3.378   4.753  15.440  0.2419  0.0035  0.5245
11328TIP3    H155399   3.313   4.683  15.428  0.9763 -0.3923 -1.5809
11328TIP3    H255400   3.462   4.708  15.440  0.6048  0.6248  2.1521
11329TIP3   OH255401   2.148   3.128   1.171  0.1437  0.0420  0.0737
11329TIP3    H155402   2.058   3.149   1.148 -0.4493 -1.7429  0.6170
11329TIP3    H255403   2.195   3.127   1.088 -0.4955  0.2242 -0.2960
11330TIP3   OH255404   0.963   5.843   3.190 -0.7141 -0.7250 -0.1566
11330TIP3    H155405   0.943   5.811   3.277 -0.0431 -2.1368 -0.4972
11330TIP3    H255406   1.031   5.909   3.204 -0.1228 -1.4203  0.3493
11331TIP3   OH255407   1.757   0.265   4.837 -0.2767  0.2959  0.0507
11331TIP3    H155408   1.805   0.184   4.856  0.0959  0.3639 -0.5692
11331TIP3    H255409   1.720   0.292   4.921  1.5216  0.7157  0.7530
11332TIP3   OH255410   2.936   2.546   1.626 -0.3280  0.6320 -0.1749
11332TIP3    H155411   2.896   2.470   1.669  0.2743 -1.5239 -3.1225
11332TIP3    H255412   2.862   2.599   1.599 -0.8587  0.1848  0.3656
11333TIP3   OH255413   4.804   1.324  10.485 -0.4377  1.0465  0.5402
11333TIP3    H155414   4.813   1.260  10.555  1.2926  1.1655  0.4590
11333TIP3    H255415   4.894   1.348  10.462 -0.9892  1.6256 -1.1597
11334TIP3   OH255416   3.637   4.002   1.915 -0.5507 -0.2036  0.5346
11334TIP3    H155417   3.659   3.913   1.889  0.6452  0.0387  0.6498
11334TIP3    H255418   3.719   4.050   1.908 -0.0699 -0.0913  4.6291
11335TIP3   OH255419   5.564   1.905  13.735  0.8125  0.3205  0.4088
11335TIP3    H155420   5.586   1.812  13.744  0.6612  0.1257 -1.0227
11335TIP3    H255421   5.630   1.951  13.787  1.4497 -0.5338  0.3683
11336TIP3   OH255422   2.820   3.400   3.953 -0.1427  1.0032  0.3397
11336TIP3    H155423   2.862   3.416   4.037 -0.7727  1.3809  0.5948
11336TIP3    H255424   2.782   3.485   3.929  0.1770  0.9385 -0.4065
11337TIP3   OH255425   4.314   4.786   6.739  0.0987 -0.1098  0.1073
11337TIP3    H155426   4.306   4.738   6.656 -0.8405 -0.4443  0.3828
11337TIP3    H255427   4.319   4.718   6.806 -0.5885  0.1663  0.4459
11338TIP3   OH255428   4.755   1.223  13.478  0.1997 -0.2232  0.3107
11338TIP3    H155429   4.669   1.228  13.437  0.2478 -0.3595  0.1909
11338TIP3    H255430   4.770   1.129  13.490  0.0312 -0.1717  0.9725
11339TIP3   OH255431   6.500   5.041  12.466 -0.4792  0.0820 -0.2382
11339TIP3    H155432   6.591   5.036  12.437 -0.1489  0.4025  0.6945
11339TIP3    H255433   6.451   4.986  12.404  0.6217 -1.5869  0.3141
11340TIP3   OH255434   3.995   5.731   1.507 -0.4495 -0.0694 -0.0418
11340TIP3    H155435   3.905   5.757   1.529 -0.4416  0.6161 -0.7601
11340TIP3    H255436   3.985   5.646   1.464 -0.8548  0.3602 -0.8365
11341TIP3   OH255437   5.077   4.270  11.872 -0.1145 -0.1897 -0.4874
11341TIP3    H155438   4.994   4.302  11.837  0.6215  0.8255 -1.3419
11341TIP3    H255439   5.054   4.186  11.913 -1.7672  0.5742  0.2764
11342TIP3   OH255440   0.539   5.603  11.630 -0.0761 -0.3757  0.3389
11342TIP3    H155441   0.537   5.519  11.584  0.9845  0.5923 -1.5781
11342TIP3    H255442   0.471   5.655  11.588 -0.6166 -0.1723  1.4101
11343TIP3   OH255443   2.102   0.113  13.087  0.3598 -0.5298  0.1955
11343TIP3    H155444   2.017   0.095  13.126 -0.1349  1.4156  0.1114
11343TIP3    H255445   2.120   0.205  13.109  2.2576 -0.7791 -0.1185
11344TIP3   OH255446   4.574   1.153  12.968  0.2365  0.0896  0.0706
11344TIP3    H155447   4.633   1.228  12.977 -0.5104  0.5918  1.0482
11344TIP3    H255448   4.487   1.191  12.976 -0.1828 -0.7778 -0.2928
11345TIP3   OH255449   1.079   3.289   6.690 -0.2295  0.1826  0.1336
11345TIP3    H155450   1.051   3.327   6.607  0.6773 -0.2296 -0.3841
11345TIP3    H255451   1.068   3.194   6.677 -2.3046  0.2066  1.3381
11346TIP3   OH255452   3.790   0.377   3.125  0.1380  0.3336 -0.5114
11346TIP3    H155453   3.788   0.443   3.195  1.6179 -0.0970 -0.0370
11346TIP3    H255454   3.827   0.299   3.167  0.5833 -0.0887 -1.6599
11347TIP3   OH255455   3.657   5.582  12.539 -0.5407 -0.7225  0.6920
11347TIP3    H155456   3.609   5.537  12.470 -2.7341 -1.2421  2.4548
11347TIP3    H255457   3.639   5.532  12.618  0.1140  1.0391  2.0311
11348TIP3   OH255458   4.192   3.703  12.187  0.0431  0.9084 -0.4013
11348TIP3    H155459   4.192   3.729  12.280  0.3565 -2.8502  0.8076
11348TIP3    H255460   4.285   3.695  12.165  0.0522 -2.2802  0.3877
11349TIP3   OH255461   5.037   5.182   1.828  0.1442 -0.1007 -0.5729
11349TIP3    H155462   5.023   5.138   1.744 -0.0882 -0.5839 -0.2859
11349TIP3    H255463   5.130   5.167   1.847 -0.2124 -1.6128  0.1456
11350TIP3   OH255464   4.734   2.218   3.722  0.5693 -0.1916 -0.3858
11350TIP3    H155465   4.766   2.277   3.790  2.0152 -1.7329  0.3620
11350TIP3    H255466   4.683   2.152   3.769  0.7536 -0.7207 -0.9125
11351TIP3   OH255467   3.644   5.562  16.056 -0.2153 -0.3090 -0.8663
11351TIP3    H155468   3.592   5.487  16.085 -0.8899  0.1221 -0.9468
11351TIP3    H255469   3.580   5.625  16.024 -0.0271  1.8414  2.4860
11352TIP3   OH255470   1.368   0.709  16.008  0.8447 -0.1768  0.1361
11352TIP3    H155471   1.350   0.649  15.935 -0.5453  1.5281 -1.0124
11352TIP3    H255472   1.320   0.672  16.081 -0.6887 -0.0793 -0.7767
11353TIP3   OH255473   4.054   5.328  13.454 -0.1893  0.8573 -0.1440
11353TIP3    H155474   3.999   5.296  13.382  0.3440  0.3737 -0.3454
11353TIP3    H255475   3.993   5.344  13.526 -0.4200 -1.1665  0.1563
11354TIP3   OH255476   4.832   3.653  14.294 -0.4451  0.1199  0.5311
11354TIP3    H155477   4.847   3.745  14.274 -0.9155 -0.0922 -0.9196
11354TIP3    H255478   4.779   3.654  14.373  0.2573  1.0563  1.0173
11355TIP3   OH255479   1.562   3.072  15.797 -0.7070  0.0171  0.0803
11355TIP3    H155480   1.471   3.042  15.796 -0.7400  0.1199 -1.0368
11355TIP3    H255481   1.597   3.044  15.712 -0.1054  1.2234 -0.0831
11356TIP3   OH255482   4.031   6.064  14.689 -0.2482  0.1612 -0.4934
11356TIP3    H155483   4.031   6.133  14.754  2.3764 -2.8718  3.1600
11356TIP3    H255484   4.095   6.093  14.623  2.5564  0.4252  2.1418
11357TIP3   OH255485   0.510   4.620   4.939 -0.0762 -0.3256  0.1669
11357TIP3    H155486   0.419   4.603   4.963 -0.3711  1.0374  0.0807
11357TIP3    H255487   0.506   4.643   4.846  0.5838 -1.8894 -0.2785
11358TIP3   OH255488   4.255   3.775   6.000 -0.0461 -0.3407  0.4324
11358TIP3    H155489   4.331   3.835   6.000 -0.7419  0.5832 -0.3313
11358TIP3    H255490   4.179   3.833   6.004 -0.7239 -1.2784  1.6367
11359TIP3   OH255491   2.619   4.706   1.609 -0.6297  0.0582  0.1938
11359TIP3    H155492   2.546   4.705   1.671 -1.3708 -1.5334 -0.6237
11359TIP3    H255493   2.603   4.784   1.555 -0.5673  0.8566  1.2887
11360TIP3   OH255494   4.561   2.130  14.953  1.1145  0.1899 -0.3656
11360TIP3    H155495   4.558   2.156  14.861  1.4388 -1.3878 -0.8516
11360TIP3    H255496   4.488   2.071  14.964  1.6529 -0.3949  0.1331
11361TIP3   OH255497   0.824   4.633  12.028  0.4358  0.1151  0.1081
11361TIP3    H155498   0.733   4.618  12.057  0.4009  1.0668  0.5380
11361TIP3    H255499   0.875   4.570  12.079  0.0118 -0.5286 -0.2380
11362TIP3   OH255500   5.722   4.619   1.317 -0.3151  0.0276 -0.6610
11362TIP3    H155501   5.637   4.577   1.329 -0.2827  0.0595 -0.2956
11362TIP3    H255502   5.731   4.629   1.223 -0.0488 -1.3606 -0.8077
11363TIP3   OH255503   2.526   4.821  13.812  0.2990  0.0595  0.1006
11363TIP3    H155504   2.480   4.827  13.729  0.0266 -0.9246  0.1696
11363TIP3    H255505   2.611   4.783  13.790  0.3287  0.0484  0.2321
11364TIP3   OH255506   5.598   0.148  11.149  0.1762  0.1704  0.2204
11364TIP3    H155507   5.514   0.192  11.155 -0.5375 -0.9460 -0.9921
11364TIP3    H255508   5.613   0.112  11.236  1.3168  3.6006  1.6037
11365TIP3   OH255509   2.349   0.329  12.478 -0.3600  0.2198  0.1142
11365TIP3    H155510   2.401   0.252  12.502 -1.5528 -1.2192 -1.6441
11365TIP3    H255511   2.406   0.379  12.419  0.2218  0.4058  0.8274
11366TIP3   OH255512   1.050   3.045  15.036  0.4828 -0.0472 -0.2732
11366TIP3    H155513   0.955   3.048  15.045  0.4206  0.4013 -0.9750
11366TIP3    H255514   1.083   3.034  15.125 -0.0958  3.8069  0.6229
11367TIP3   OH255515   5.659   2.256  12.123 -0.3047  0.0058 -0.1420
11367TIP3    H155516   5.679   2.332  12.176 -1.3805 -0.3392  0.7954
11367TIP3    H255517   5.742   2.234  12.079 -0.0426  1.8151 -0.6037
11368TIP3   OH255518   3.122   2.074   5.885 -0.5404  0.0105  0.1495
11368TIP3    H155519   3.152   1.984   5.873  0.5109  0.4604 -0.7187
11368TIP3    H255520   3.115   2.084   5.980 -2.9396 -1.6810  0.2284
11369TIP3   OH255521   5.670   2.731  15.108  0.1971  0.6724  0.1725
11369TIP3    H155522   5.754   2.762  15.075 -0.1094  1.9134  0.5144
11369TIP3    H255523   5.647   2.792  15.178 -1.8349  1.4672 -1.0928
11370TIP3   OH255524   5.478   2.375  11.165 -0.0884 -0.1838 -0.8359
11370TIP3    H155525   5.449   2.434  11.095  2.0440 -0.3141 -1.9249
11370TIP3    H255526   5.462   2.287  11.129 -0.4335 -0.2635 -0.4922
11371TIP3   OH255527   2.102   5.716  13.530  0.1756 -0.0440 -0.1782
11371TIP3    H155528   2.039   5.688  13.596  0.6542  0.0927  0.3509
11371TIP3    H255529   2.183   5.669  13.553  0.1027 -0.7370 -1.2412
11372TIP3   OH255530   4.382   1.691  12.951  0.6149 -0.2617 -0.0291
11372TIP3    H155531   4.411   1.724  13.036  1.0609 -1.5372  0.3375
11372TIP3    H255532   4.384   1.768  12.894 -1.1607  0.9718  1.4468
11373TIP3   OH255533   4.482   1.265   4.055  0.1777  0.0484 -0.7057
11373TIP3    H155534   4.480   1.282   4.149  1.3770 -1.8054 -0.3106
11373TIP3    H255535   4.394   1.231   4.035 -0.9371  2.7483 -0.7954
11374TIP3   OH255536   5.037   5.279  17.118  0.2713 -0.4500 -0.4260
11374TIP3    H155537   4.963   5.271  17.178 -0.4595  1.0410 -1.0758
11374TIP3    H255538   4.997   5.306  17.035  1.6027  1.1008 -0.6063
11375TIP3   OH255539   0.219   0.636   2.348  0.6657 -0.6243 -0.4976
11375TIP3    H155540   0.284   0.625   2.279 -1.9344  2.2983 -3.8253
11375TIP3    H255541   0.190   0.727   2.340  0.3998  0.1443  4.9181
11376TIP3   OH255542   4.561   3.196  13.939 -0.2114  0.1883  0.2512
11376TIP3    H155543   4.495   3.243  13.990 -0.5407  0.1166 -0.1012
11376TIP3    H255544   4.585   3.258  13.870  1.0462  0.7158  1.1197
11377TIP3   OH255545   2.758   6.039   2.261  0.6341 -0.6164 -0.2027
11377TIP3    H155546   2.695   6.008   2.326  0.8972 -1.6541 -0.4193
11377TIP3    H255547   2.828   5.974   2.263  0.9120 -0.3663 -1.1446
11378TIP3   OH255548   0.129   1.284  13.205  0.4501  0.1374  0.2595
11378TIP3    H155549   0.189   1.209  13.209  0.3186  0.0679  1.3851
11378TIP3    H255550   0.116   1.309  13.296  0.6888  1.7183 -0.1104
11379TIP3   OH255551   0.826   4.779  14.959 -0.4342 -0.3670  0.4178
11379TIP3    H155552   0.790   4.811  15.042 -0.1525  0.8040  0.1065
11379TIP3    H255553   0.873   4.854  14.923  0.1958 -1.1328 -0.3839
11380TIP3   OH255554   2.010   2.758   0.417 -0.0168 -0.2735  0.2591
11380TIP3    H155555   2.099   2.771   0.451 -0.0530  0.2617  0.1556
11380TIP3    H255556   2.019   2.766   0.322 -0.2920  0.5283  0.2921
11381TIP3   OH255557   0.747   4.248  13.549 -0.5205  0.1247  0.0863
11381TIP3    H155558   0.735   4.158  13.517  0.7654 -0.3190  0.7601
11381TIP3    H255559   0.701   4.303  13.486 -0.7071 -0.9515 -0.7439
11382TIP3   OH255560   1.184   4.035  17.121 -0.3117  0.0397  0.8272
11382TIP3    H155561   1.219   4.104  17.064 -1.0122 -0.1153  0.1989
11382TIP3    H255562   1.252   4.022  17.188  0.8770 -0.3091 -0.4033
11383TIP3   OH255563   2.805   4.592  11.265 -0.3412 -0.5286 -0.1069
11383TIP3    H155564   2.779   4.655  11.198  2.4111  0.5610 -0.2357
11383TIP3    H255565   2.850   4.522  11.217  3.5158  1.2530  0.6018
11384TIP3   OH255566   5.164   0.237   4.607  0.5194 -0.2659  0.9334
11384TIP3    H155567   5.224   0.215   4.536 -0.3311 -1.1286  0.4528
11384TIP3    H255568   5.209   0.212   4.687  0.5996 -1.3838  0.5469
11385TIP3   OH255569   3.535   3.720   0.130 -0.1345 -0.4961  0.0327
11385TIP3    H155570   3.588   3.756   0.059 -0.4494 -1.2472 -0.5998
11385TIP3    H255571   3.574   3.634   0.149 -0.2043 -0.4091  0.5966
11386TIP3   OH255572   3.818   1.904   4.741  0.2478 -0.3011 -0.3931
11386TIP3    H155573   3.750   1.947   4.793  1.2481  0.0262  0.6808
11386TIP3    H255574   3.781   1.900   4.652 -0.2805  1.8729 -0.3221
11387TIP3   OH255575   5.915   4.108   6.284  0.1524 -0.5210  0.5555
11387TIP3    H155576   5.989   4.048   6.276  0.3541 -0.4671  1.7860
11387TIP3    H255577   5.941   4.169   6.353  0.3015  1.5448 -1.2261
11388TIP3   OH255578   2.904   2.501  13.881 -0.2451  0.1834  0.4239
11388TIP3    H155579   2.956   2.560  13.827 -0.0758 -0.8347 -0.5516
11388TIP3    H255580   2.822   2.548  13.896  0.4481  1.2926  0.9616
11389TIP3   OH255581   2.071   6.220  11.178  0.6818 -0.0365 -0.3381
11389TIP3    H155582   2.119   6.303  11.177  1.6743 -0.5683 -2.3853
11389TIP3    H255583   2.052   6.203  11.086 -0.7484 -1.3965  0.1782
11390TIP3   OH255584   2.950   4.970   3.236  0.0794 -0.2983 -0.5456
11390TIP3    H155585   2.888   5.003   3.171 -1.2124 -2.2520 -0.3768
11390TIP3    H255586   2.916   5.001   3.320 -1.6536 -2.6307 -0.2961
11391TIP3   OH255587   0.464   4.196   2.431  0.0612 -0.1219  0.4177
11391TIP3    H155588   0.395   4.262   2.437  1.2959  1.1055  1.6361
11391TIP3    H255589   0.421   4.115   2.461 -0.6609  0.7745  1.9376
11392TIP3   OH255590   3.937   5.740   3.291  0.4174  0.0736 -0.1421
11392TIP3    H155591   3.996   5.767   3.362  0.4904  1.9140 -0.8641
11392TIP3    H255592   3.911   5.651   3.315  2.9618 -0.5583  0.5329
11393TIP3   OH255593   5.961   0.871   6.154 -0.3534  0.0955  0.0330
11393TIP3    H155594   6.030   0.936   6.142 -0.7042  0.4240 -0.2726
11393TIP3    H255595   5.902   0.910   6.218 -0.2591 -0.1781  0.2851
11394TIP3   OH255596   1.980   0.389  14.157  0.1542 -0.4609 -0.2486
11394TIP3    H155597   1.987   0.484  14.149  0.7523 -0.6602 -2.8943
11394TIP3    H255598   2.070   0.358  14.151 -0.0892 -1.2262 -0.0104
11395TIP3   OH255599   3.680   6.096   3.881  0.4304  0.3451  0.1179
11395TIP3    H155600   3.768   6.061   3.891  0.1832 -0.9087 -1.6317
11395TIP3    H255601   3.680   6.138   3.794 -1.4536 -2.3413 -1.3118
11396TIP3   OH255602   2.180   1.597  13.678 -0.0351 -0.0861  0.0768
11396TIP3    H155603   2.168   1.508  13.647 -4.2729 -0.6845  2.6839
11396TIP3    H255604   2.201   1.588  13.771  1.5761  1.6585 -0.0665
11397TIP3   OH255605   5.255   2.114   4.115  0.3481  0.1650  0.3055
11397TIP3    H155606   5.316   2.179   4.149  0.6287  0.8829 -1.4686
11397TIP3    H255607   5.168   2.148   4.135  0.3664  2.6088 -2.9459
11398TIP3   OH255608   2.270   1.494  12.906 -0.2551 -0.4499 -0.3573
11398TIP3    H155609   2.314   1.544  12.837 -0.7707 -1.1538 -1.2139
11398TIP3    H255610   2.273   1.403  12.876  0.1620 -0.8779  0.9066
11399TIP3   OH255611   0.068   2.891   1.239  0.3685  0.4161 -0.0060
11399TIP3    H155612   0.065   2.815   1.181 -1.0277  1.0980 -0.8865
11399TIP3    H255613   0.105   2.961   1.185 -0.3407  0.8923  0.1140
11400TIP3   OH255614   6.711   2.454  12.337  0.3986  0.3081 -0.2220
11400TIP3    H155615   6.723   2.535  12.287  0.3905  0.1661 -0.4540
11400TIP3    H255616   6.799   2.433  12.369  0.5155  0.0506 -0.7134
11401TIP3   OH255617   3.482   4.305  15.772  0.2846  0.0856  0.2666
11401TIP3    H155618   3.478   4.209  15.766 -1.5358  0.1648 -0.4227
11401TIP3    H255619   3.425   4.327  15.845 -0.1069  0.6823 -0.2116
11402TIP3   OH255620   3.386   4.618  12.484  0.7122  0.1982  0.0838
11402TIP3    H155621   3.296   4.592  12.503  0.8588 -0.6214 -0.2823
11402TIP3    H255622   3.377   4.693  12.425  0.2721  0.3541  0.3399
11403TIP3   OH255623   4.051   6.234   2.314 -0.7327  0.1967 -0.2798
11403TIP3    H155624   4.076   6.173   2.384  0.1487  1.6831  0.7673
11403TIP3    H255625   4.134   6.262   2.276 -1.0111  1.6907  0.1278
11404TIP3   OH255626   3.845   2.471   0.659  0.8837 -0.1604 -0.0982
11404TIP3    H155627   3.856   2.377   0.674  0.6834  0.0146  1.2200
11404TIP3    H255628   3.750   2.482   0.650  0.7553  0.1123  1.3279
11405TIP3   OH255629   2.620   0.816  16.499  0.5317 -0.0561 -0.1348
11405TIP3    H155630   2.662   0.733  16.519  0.5965 -0.0055 -0.0611
11405TIP3    H255631   2.674   0.882  16.543  0.5469  0.0348 -0.2919
11406TIP3   OH255632   2.398   0.042   4.792  0.6063  0.1496  0.1920
11406TIP3    H155633   2.304   0.059   4.789  0.8298  1.3837 -0.2010
11406TIP3    H255634   2.414   0.009   4.880 -0.1379  0.2275  0.3641
11407TIP3   OH255635   3.628   3.603   4.521  0.2909  0.2201 -0.0783
11407TIP3    H155636   3.645   3.666   4.452 -1.3225  2.6675  1.5562
11407TIP3    H255637   3.540   3.570   4.502 -0.8961  2.2028  1.5757
11408TIP3   OH255638   6.311   5.520   4.409 -0.3459 -0.8522  0.0377
11408TIP3    H155639   6.251   5.539   4.481  0.1289 -2.1287  0.8061
11408TIP3    H255640   6.255   5.499   4.335 -0.8527 -0.9295  0.4397
11409TIP3   OH255641   5.587   3.855   5.052  0.5037  0.1930  0.0762
11409TIP3    H155642   5.592   3.825   5.143 -1.6674  2.3705  1.0498
11409TIP3    H255643   5.525   3.928   5.055  1.3632  1.1839 -2.9699
11410TIP3   OH255644   0.470   6.332  11.546  0.7747 -0.0493  0.2481
11410TIP3    H155645   0.468   6.326  11.451  0.5492 -1.8039  0.3201
11410TIP3    H255646   0.393   6.283  11.575  2.9512 -3.1985  1.3584
11411TIP3   OH255647   4.463   6.503  15.256  0.4923 -0.1657 -0.5095
11411TIP3    H155648   4.461   6.407  15.261  0.1462 -0.2387 -1.7493
11411TIP3    H255649   4.377   6.531  15.287  0.2718 -0.3129 -0.9773
11412TIP3   OH255650   5.687   1.914   4.498 -0.1404 -0.0731 -0.0680
11412TIP3    H155651   5.736   1.988   4.463  1.5891 -0.8055  0.6422
11412TIP3    H255652   5.699   1.845   4.433 -0.7463 -0.0819 -0.1708
11413TIP3   OH255653   6.320   5.940  11.822 -0.6709 -0.8141 -0.5637
11413TIP3    H155654   6.358   5.983  11.898 -1.0071 -0.3202 -0.6758
11413TIP3    H255655   6.367   5.856  11.817  0.5645 -0.1416 -0.8146
11414TIP3   OH255656   1.052   2.103   5.410  0.0343 -0.5835 -0.2493
11414TIP3    H155657   0.993   2.128   5.338 -0.9269 -0.3782  0.5915
11414TIP3    H255658   1.086   2.017   5.383  0.6322  0.0187 -1.5045
11415TIP3   OH255659   1.866   4.152   4.913 -0.4031  0.5077 -0.5913
11415TIP3    H155660   1.786   4.152   4.861 -0.9724  1.0849  0.2643
11415TIP3    H255661   1.847   4.093   4.986 -0.6826  1.9386  0.5350
11416TIP3   OH255662   0.565   0.699  11.643 -0.5222 -0.2240  0.0265
11416TIP3    H155663   0.616   0.691  11.563 -0.2550 -2.7249  0.3713
11416TIP3    H255664   0.601   0.634  11.702 -1.3049  0.9343  1.8959
11417TIP3   OH255665   4.665   0.791   1.302  0.1166 -0.0035 -0.2130
11417TIP3    H155666   4.742   0.794   1.245  0.4661 -0.3231  0.2465
11417TIP3    H255667   4.666   0.704   1.341 -0.1627  0.1917  0.2360
11418TIP3   OH255668   2.347   4.542  14.756  0.2416 -0.0323 -0.2926
11418TIP3    H155669   2.388   4.627  14.764 -1.5170  1.0257 -1.6555
11418TIP3    H255670   2.361   4.500  14.841  2.5230  0.9321 -0.1392
11419TIP3   OH255671   3.383   2.269   2.076  0.0228  0.8133  0.5126
11419TIP3    H155672   3.441   2.341   2.103 -0.0064  0.4599  1.5692
11419TIP3    H255673   3.376   2.214   2.154  1.4341 -1.2797 -0.7319
11420TIP3   OH255674   3.744   4.064   4.397 -0.3164 -0.6302 -0.2750
11420TIP3    H155675   3.661   4.111   4.400 -0.3499 -0.5593 -1.5823
11420TIP3    H255676   3.719   3.972   4.386 -0.2504 -0.4832 -1.9327
11421TIP3   OH255677   1.204   5.144  14.454 -0.2062 -0.4518 -0.2082
11421TIP3    H155678   1.189   5.066  14.506 -0.5702  0.1645  0.6347
11421TIP3    H255679   1.165   5.215  14.504  1.3916  0.5086 -0.2228
11422TIP3   OH255680   1.551   2.818   2.429 -0.1370  0.0723 -0.6390
11422TIP3    H155681   1.538   2.788   2.518  1.1246 -1.1068 -0.8251
11422TIP3    H255682   1.577   2.910   2.438  1.6114 -0.4838  0.3264
11423TIP3   OH255683   1.813   2.012  12.183 -0.3672 -0.4348  0.5127
11423TIP3    H155684   1.719   1.991  12.184 -0.2757 -0.8456  0.4051
11423TIP3    H255685   1.856   1.929  12.164 -0.1627  0.2784 -2.8400
11424TIP3   OH255686   5.821   5.294  13.001 -0.1692 -0.1198  0.5444
11424TIP3    H155687   5.871   5.335  12.930 -1.2601 -0.7862 -0.6489
11424TIP3    H255688   5.792   5.367  13.055  1.2690  0.3450  0.7262
11425TIP3   OH255689   1.193   1.710   0.302 -0.0052 -0.6218 -0.5003
11425TIP3    H155690   1.280   1.683   0.275  0.3999  0.1602 -0.0273
11425TIP3    H255691   1.159   1.636   0.352  1.1326 -0.2718  0.8897
11426TIP3   OH255692   6.057   6.537  11.717  0.7882  0.1089  0.3661
11426TIP3    H155693   6.014   6.608  11.669 -1.6176 -0.2721  1.8010
11426TIP3    H255694   6.093   6.481  11.648 -2.8888 -0.6481 -1.1802
11427TIP3   OH255695   0.878   2.454  14.013  0.3921  0.1330 -0.2183
11427TIP3    H155696   0.828   2.499  13.944  2.5190 -0.0044 -1.9757
11427TIP3    H255697   0.926   2.524  14.057  1.5882 -0.0680 -1.1402
11428TIP3   OH255698   4.319   5.697   6.453  0.0057  0.7726 -0.0279
11428TIP3    H155699   4.239   5.659   6.491  1.2247 -0.7069  1.2152
11428TIP3    H255700   4.362   5.623   6.411  1.6958  1.0595  1.1048
11429TIP3   OH255701   4.775   1.146   3.976 -0.4556 -0.1925  0.5606
11429TIP3    H155702   4.784   1.136   3.882 -3.4167  0.8305  0.0703
11429TIP3    H255703   4.743   1.062   4.007  1.1420 -0.7441  0.8235
11430TIP3   OH255704   1.265   4.639  15.023 -0.2596 -0.0902  0.2483
11430TIP3    H155705   1.318   4.622  15.101  1.0829 -0.7034 -0.7668
11430TIP3    H255706   1.264   4.735  15.015 -0.8929  0.0080  1.3174
11431TIP3   OH255707   4.102   5.045  11.337  0.5311 -0.1809 -0.1341
11431TIP3    H155708   4.124   4.953  11.326  1.9237  0.2620 -1.3870
11431TIP3    H255709   4.119   5.085  11.251 -0.0417  1.2411  0.3756
11432TIP3   OH255710   2.363   0.998  15.537 -0.3497 -0.5473 -0.1697
11432TIP3    H155711   2.393   1.083  15.569  1.6501 -0.8855 -1.0159
11432TIP3    H255712   2.306   1.019  15.462 -1.0719  0.0667  0.5375
11433TIP3   OH255713   4.764   5.609  12.549 -0.1317  1.0814 -0.4037
11433TIP3    H155714   4.778   5.659  12.629 -0.3351  0.0980  0.2656
11433TIP3    H255715   4.827   5.536  12.555 -1.0605  0.2491 -0.4785
11434TIP3   OH255716   1.771   0.829   0.707 -0.8773  0.0768 -0.6328
11434TIP3    H155717   1.771   0.832   0.803 -2.6034  1.8004 -0.6399
11434TIP3    H255718   1.691   0.875   0.682  0.9772  2.2516 -2.9772
11435TIP3   OH255719   6.601   6.489  16.553  0.1129 -0.2904 -0.3260
11435TIP3    H155720   6.667   6.550  16.587 -1.2470  0.8853  0.2816
11435TIP3    H255721   6.598   6.419  16.617  0.0596  0.1564  0.1690
11436TIP3   OH255722   5.673   1.505  16.616  0.8300  0.3605 -0.0730
11436TIP3    H155723   5.738   1.435  16.611  1.3230  0.6927  1.2958
11436TIP3    H255724   5.716   1.574  16.666  0.0345  1.3052 -0.6551
11437TIP3   OH255725   6.436   1.272  13.898  0.0063  0.1573  0.1918
11437TIP3    H155726   6.450   1.307  13.810 -0.4439  0.3573  0.1955
11437TIP3    H255727   6.514   1.297  13.947 -0.4540  1.4718  0.2882
11438TIP3   OH255728   4.550   2.216  15.219 -0.1250 -0.1616  0.1241
11438TIP3    H155729   4.457   2.209  15.241  0.0457 -1.1123  0.5638
11438TIP3    H255730   4.552   2.213  15.124 -0.4642 -1.2223  0.1429
11439TIP3   OH255731   4.926   6.470   1.152 -0.0333  0.0473 -0.3230
11439TIP3    H155732   4.984   6.438   1.221 -1.4596 -1.5831  0.1958
11439TIP3    H255733   4.984   6.516   1.092  1.5636 -0.2542  0.9076
11440TIP3   OH255734   2.948   3.113  16.509 -0.1850  0.8333 -0.2773
11440TIP3    H155735   3.000   3.119  16.428 -0.7141 -0.4493 -0.7301
11440TIP3    H255736   2.883   3.045  16.491 -1.2884  1.5996  0.7001
11441TIP3   OH255737   1.889   0.028   1.694  0.5181 -0.4788 -0.5476
11441TIP3    H155738   1.916   0.035   1.786 -0.7319 -1.7728 -0.0427
11441TIP3    H255739   1.968   0.046   1.644  0.6439  3.2318  0.6759
11442TIP3   OH255740   2.904   1.375   5.682  0.1215 -0.3703 -0.3832
11442TIP3    H155741   2.967   1.441   5.710  1.4476 -1.3414 -0.9984
11442TIP3    H255742   2.956   1.298   5.663 -1.4661 -2.0075  1.3839
11443TIP3   OH255743   2.643   3.332  15.646  0.0844  0.4801  0.5154
11443TIP3    H155744   2.559   3.373  15.629  0.1552  0.9861  1.3465
11443TIP3    H255745   2.622   3.253  15.696 -0.0892 -0.7925 -1.4385
11444TIP3   OH255746   4.313   2.080  11.712  0.3049  0.0268 -0.8013
11444TIP3    H155747   4.254   2.058  11.784  2.3954 -1.8543  0.4862
11444TIP3    H255748   4.304   2.174  11.701  0.2124  0.4869  2.2795
11445TIP3   OH255749   0.434   1.487   4.991  0.3760  0.2910 -0.3573
11445TIP3    H155750   0.522   1.504   4.958  0.6244  0.7508  0.5223
11445TIP3    H255751   0.427   1.538   5.071 -0.8297  0.5606 -0.6032
11446TIP3   OH255752   1.641   4.702  16.862 -0.2616  0.3699  0.1757
11446TIP3    H155753   1.630   4.731  16.953  0.5511  0.9610  0.1020
11446TIP3    H255754   1.735   4.697  16.850 -0.3533 -2.0714  0.0718
11447TIP3   OH255755   1.949   1.561   0.664 -0.6817  0.4541 -0.1484
11447TIP3    H155756   1.867   1.523   0.693 -1.0646  2.9082  2.4619
11447TIP3    H255757   2.017   1.505   0.701 -1.1699 -0.5786 -0.8009
11448TIP3   OH255758   5.749   2.823   1.963  0.1703  0.4738 -0.1079
11448TIP3    H155759   5.722   2.875   2.039 -0.1511  0.7477 -0.4101
11448TIP3    H255760   5.716   2.871   1.888  1.7399  0.9690 -0.5206
11449TIP3   OH255761   5.775   6.123   2.390  0.0505  0.6966 -0.0705
11449TIP3    H155762   5.870   6.111   2.397  0.2179  0.0721 -2.4391
11449TIP3    H255763   5.738   6.037   2.405 -0.1421  0.8834  0.5637
11450TIP3   OH255764   1.412   3.448   5.491 -0.2867  0.4439  0.2737
11450TIP3    H155765   1.360   3.482   5.419 -0.4512 -0.8367 -0.2390
11450TIP3    H255766   1.348   3.433   5.561 -0.8919 -2.1788 -0.7226
11451TIP3   OH255767   0.844   1.278  14.300 -0.6267  0.1874  0.2437
11451TIP3    H155768   0.804   1.339  14.362 -0.5103  0.1688  0.3390
11451TIP3    H255769   0.931   1.314  14.284 -0.8128  0.4201 -0.2390
11452TIP3   OH255770   6.756   1.549   4.687  0.6868  0.3390 -0.5838
11452TIP3    H155771   6.699   1.526   4.760  1.6343  0.8305  0.3303
11452TIP3    H255772   6.826   1.601   4.726  1.4172  0.2978 -1.7831
11453TIP3   OH255773   1.901   0.073   4.511 -0.3142 -0.0200 -0.5063
11453TIP3    H155774   1.826   0.131   4.510  0.9960  1.7465 -0.3949
11453TIP3    H255775   1.976   0.130   4.529  0.9484 -1.8384  0.3402
11454TIP3   OH255776   3.026   6.563   2.411 -0.3421  0.1025  0.2122
11454TIP3    H155777   2.965   6.539   2.481 -0.6728  0.6640  0.1323
11454TIP3    H255778   2.983   6.532   2.331  0.9319 -2.2755  0.3784
11455TIP3   OH255779   2.354   3.918   2.519  0.0072  0.6434  0.4466
11455TIP3    H155780   2.427   3.896   2.462  1.0532  4.9017 -0.2436
11455TIP3    H255781   2.391   3.919   2.607  0.7437  2.3124  0.1505
11456TIP3   OH255782   3.200   2.741  12.122 -0.6492  0.1746 -0.6322
11456TIP3    H155783   3.287   2.759  12.087 -0.3302 -0.7882 -0.3662
11456TIP3    H255784   3.169   2.664  12.074  0.2614 -1.8766  1.8410
11457TIP3   OH255785   6.392   6.102   0.391  0.2708 -0.5833 -0.1730
11457TIP3    H155786   6.336   6.087   0.467  0.4653 -0.5923 -0.0308
11457TIP3    H255787   6.460   6.035   0.398  0.9235  0.1025  0.2495
11458TIP3   OH255788   1.345   3.252  15.278  0.3971  0.4716  0.0654
11458TIP3    H155789   1.355   3.160  15.256 -1.8276  0.2757 -0.3955
11458TIP3    H255790   1.346   3.254  15.374 -3.3635 -0.7063  0.3082
11459TIP3   OH255791   3.229   0.831  16.174  0.1834 -0.1950 -0.3547
11459TIP3    H155792   3.246   0.748  16.129  2.0950 -2.0771  3.3414
11459TIP3    H255793   3.142   0.819  16.212  0.6243 -0.7829  0.5222
11460TIP3   OH255794   0.179   0.119  16.250 -0.4776 -0.4206  0.0739
11460TIP3    H155795   0.106   0.174  16.277 -1.4100 -0.3039 -2.4496
11460TIP3    H255796   0.154   0.030  16.275 -1.7501 -0.4498 -1.2233
11461TIP3   OH255797   1.198   1.850  16.440  0.0976  0.1852 -0.2462
11461TIP3    H155798   1.223   1.797  16.364  2.2025 -0.0291  0.5348
11461TIP3    H255799   1.280   1.885  16.473 -0.9527  1.6106  0.9871
11462TIP3   OH255800   5.725   3.844  15.421 -0.4563 -0.5091  0.5532
11462TIP3    H155801   5.736   3.796  15.339 -1.3010  1.3998 -0.7413
11462TIP3    H255802   5.633   3.833  15.444 -0.5729  0.1482  0.4373
11463TIP3   OH255803   2.518   4.295  11.367 -0.1132  0.0832 -0.2201
11463TIP3    H155804   2.461   4.363  11.332 -0.1501  0.1832  0.0376
11463TIP3    H255805   2.588   4.342  11.413  0.0276 -0.0454 -0.3008
11464TIP3   OH255806   3.011   2.405   0.409  0.0609 -0.5037 -0.1322
11464TIP3    H155807   3.035   2.407   0.316 -0.3805 -1.4097 -0.2838
11464TIP3    H255808   2.989   2.496   0.430 -2.3831 -0.6527 -1.6384
11465TIP3   OH255809   0.583   5.646  11.910  0.7014  0.1020 -0.5911
11465TIP3    H155810   0.562   5.634  11.818  3.1482 -1.9155 -0.9925
11465TIP3    H255811   0.547   5.569  11.954 -0.1815  0.8978  0.1416
11466TIP3   OH255812   5.616   2.455   0.428 -0.0592  0.5212  0.4002
11466TIP3    H155813   5.527   2.486   0.442  0.2014  0.6175  1.9277
11466TIP3    H255814   5.662   2.531   0.390 -0.5088  0.6164  0.0428
11467TIP3   OH255815   0.309   1.325  15.166  0.3318  0.3077  0.4070
11467TIP3    H155816   0.256   1.245  15.160  0.5148  0.1742  0.5344
11467TIP3    H255817   0.275   1.371  15.242 -0.7313  1.0669 -0.4908
11468TIP3   OH255818   4.734   3.397  13.828  0.0410  0.2015  0.4288
11468TIP3    H155819   4.664   3.457  13.852 -0.1766 -0.1269  0.6243
11468TIP3    H255820   4.812   3.433  13.871 -0.1948  0.0487  0.9980
11469TIP3   OH255821   4.308   5.767  13.872 -0.4376  0.7469  0.0259
11469TIP3    H155822   4.308   5.859  13.899 -0.3327  1.0132 -0.8377
11469TIP3    H255823   4.221   5.755  13.833 -0.9266  0.1230  1.2692
11470TIP3   OH255824   3.573   0.280  14.633  0.0771 -0.2819  0.9073
11470TIP3    H155825   3.641   0.297  14.698 -0.7016 -0.3787  1.7722
11470TIP3    H255826   3.492   0.309  14.675 -0.1682  2.1555 -1.0257
11471TIP3   OH255827   1.974   3.444   3.667 -0.2933 -0.4466  0.3021
11471TIP3    H155828   2.014   3.529   3.646 -0.7224  0.0584  1.4222
11471TIP3    H255829   2.000   3.428   3.758 -0.0917 -1.5986  0.0506
11472TIP3   OH255830   4.084   5.596   4.439 -0.1965 -0.7224 -0.1252
11472TIP3    H155831   4.160   5.561   4.485 -1.0900 -1.3510  0.9127
11472TIP3    H255832   4.099   5.691   4.437  0.1578 -0.7377  0.9433
11473TIP3   OH255833   1.839   3.563   1.527  0.3485 -0.0128  0.1780
11473TIP3    H155834   1.829   3.482   1.476  2.1298 -0.0409 -0.1754
11473TIP3    H255835   1.840   3.633   1.462 -0.8940  0.2985  0.4643
11474TIP3   OH255836   1.183   5.665  11.846  0.6098 -0.1121 -0.0475
11474TIP3    H155837   1.149   5.696  11.762  0.4202 -1.6603 -0.5589
11474TIP3    H255838   1.278   5.664  11.835  0.5288 -2.9187 -1.2636
11475TIP3   OH255839   3.060   1.645  11.466 -0.2091  0.3464  0.6859
11475TIP3    H155840   3.027   1.610  11.384 -1.1481 -0.4798  1.3927
11475TIP3    H255841   3.078   1.737  11.447  1.4648 -0.2722 -0.9588
11476TIP3   OH255842   3.375   2.648  12.796 -0.1344  0.0876 -0.0413
11476TIP3    H155843   3.361   2.559  12.830  0.1052 -0.0274 -0.2470
11476TIP3    H255844   3.289   2.674  12.763 -0.1466 -0.1631 -0.2113
11477TIP3   OH255845   4.725   1.388   6.375 -0.4923  0.5486 -0.0322
11477TIP3    H155846   4.789   1.398   6.304 -0.1857  1.0194  0.3089
11477TIP3    H255847   4.656   1.450   6.353 -0.5929  0.4048 -0.1285
11478TIP3   OH255848   3.652   4.724  15.870 -0.2385  0.0889  0.1254
11478TIP3    H155849   3.712   4.769  15.930  0.9526 -1.8065  0.4787
11478TIP3    H255850   3.570   4.718  15.919 -0.5749  2.1906 -0.1181
11479TIP3   OH255851   6.252   4.357  13.536  0.0584  0.1750 -0.1250
11479TIP3    H155852   6.242   4.381  13.444 -1.8761 -0.1305 -0.0503
11479TIP3    H255853   6.182   4.293  13.552 -0.1458  0.7863  1.7238
11480TIP3   OH255854   6.413   4.679  11.804  0.4201  0.0514  0.2957
11480TIP3    H155855   6.334   4.733  11.802  0.0291 -0.4526  1.1080
11480TIP3    H255856   6.436   4.665  11.713  0.0708  0.9244  0.0665
11481TIP3   OH255857   2.262   6.754   1.855 -0.1307  0.1639 -0.0308
11481TIP3    H155858   2.217   6.736   1.938  2.5397 -0.5646  1.3812
11481TIP3    H255859   2.312   6.834   1.873  1.0237 -0.3924 -0.6698
11482TIP3   OH255860   2.074   3.196  17.204 -0.0594 -0.6497 -0.1319
11482TIP3    H155861   2.117   3.277  17.231 -0.1687 -0.4835 -0.4578
11482TIP3    H255862   2.088   3.192  17.110 -2.3864  0.3684 -0.5714
11483TIP3   OH255863   1.095   0.763  11.911 -0.0766 -0.5804  0.0213
11483TIP3    H155864   1.057   0.790  11.994 -3.0286 -2.9080 -0.3812
11483TIP3    H255865   1.069   0.831  11.849 -0.0075 -0.0615  0.5621
11484TIP3   OH255866   2.564   3.447  14.403  0.1162  0.1956 -0.1459
11484TIP3    H155867   2.535   3.531  14.440  0.7880  0.7379 -0.8339
11484TIP3    H255868   2.646   3.467  14.359 -0.3384 -0.5578 -1.3965
11485TIP3   OH255869   6.218   2.640   5.046  0.1312 -0.2651 -0.1599
11485TIP3    H155870   6.127   2.625   5.074  0.1865 -1.3242 -0.5069
11485TIP3    H255871   6.247   2.713   5.100 -0.5228 -0.7467  0.8834
11486TIP3   OH255872   5.554   3.025  14.129  0.0962  0.1323  0.0120
11486TIP3    H155873   5.474   3.073  14.106  0.3968 -0.0513 -1.5423
11486TIP3    H255874   5.569   3.045  14.221 -1.3200  0.7794  0.1211
11487TIP3   OH255875   2.248   4.679   0.403  0.0351 -0.3197  0.1919
11487TIP3    H155876   2.323   4.621   0.411  0.0049 -0.1711  1.8466
11487TIP3    H255877   2.285   4.762   0.373  0.4318 -0.4597  0.2895
11488TIP3   OH255878   6.348   1.872  10.608 -0.0181  0.5286  0.3852
11488TIP3    H155879   6.263   1.901  10.642 -0.6350  0.7807 -1.2952
11488TIP3    H255880   6.389   1.953  10.577  0.7393  0.3690  0.9641
11489TIP3   OH255881   0.232   2.493  17.250  0.0801 -0.6329  0.3083
11489TIP3    H155882   0.160   2.528  17.302 -0.4920  0.3333 -1.0877
11489TIP3    H255883   0.268   2.423  17.304 -1.9695 -1.2314  0.9908
11490TIP3   OH255884   1.133   3.955   3.326  0.4773  0.3787  0.5804
11490TIP3    H155885   1.195   4.027   3.314 -0.1117  1.2908  2.6130
11490TIP3    H255886   1.151   3.922   3.413  0.8603 -2.1420 -0.3874
11491TIP3   OH255887   4.367   2.975   0.881  0.2002  0.0809 -0.3643
11491TIP3    H155888   4.345   3.000   0.970  1.3750 -1.1201  0.2968
11491TIP3    H255889   4.347   3.053   0.828 -0.9904  0.6330  0.8501
11492TIP3   OH255890   3.701   5.125   1.829  0.2507  0.0212 -0.2980
11492TIP3    H155891   3.687   5.201   1.773  0.0369  0.6609  0.6135
11492TIP3    H255892   3.613   5.096   1.853  0.3216 -0.7052 -0.8836
11493TIP3   OH255893   5.876   0.265  14.929 -0.5484  0.3271  0.3171
11493TIP3    H155894   5.853   0.182  14.887  1.1740  0.1954 -0.4554
11493TIP3    H255895   5.840   0.332  14.871  1.9116  0.1551 -1.6197
11494TIP3   OH255896   3.967   6.203  17.266 -0.2794  0.4375 -0.4253
11494TIP3    H155897   3.967   6.291  17.304 -0.9782 -0.4358  1.7888
11494TIP3    H255898   4.058   6.175  17.272 -0.0366  1.0163 -1.2250
11495TIP3   OH255899   5.426   5.505  16.484 -0.2806  0.2410  0.1251
11495TIP3    H155900   5.380   5.438  16.534 -0.5752  0.8148  0.6364
11495TIP3    H255901   5.444   5.464  16.399  0.1441 -0.7098  0.6602
11496TIP3   OH255902   5.556   4.960   5.207  0.1044 -0.3903  0.1054
11496TIP3    H155903   5.557   5.048   5.244  0.4386 -0.7866  1.0752
11496TIP3    H255904   5.626   4.914   5.253  0.1021 -1.0926 -0.5739
11497TIP3   OH255905   4.870   1.398   0.575  0.7676 -0.0406 -0.1616
11497TIP3    H155906   4.804   1.346   0.530  0.9575  0.3051 -0.8541
11497TIP3    H255907   4.822   1.473   0.610  0.5149 -0.6108  0.7328
11498TIP3   OH255908   4.733   5.707   3.774 -0.3001  0.2496  0.0244
11498TIP3    H155909   4.696   5.784   3.730  1.5572  0.6980 -0.8326
11498TIP3    H255910   4.706   5.717   3.865 -0.7753  1.5005 -0.2239
11499TIP3   OH255911   0.412   0.230   4.602  0.1124 -0.7252  0.5874
11499TIP3    H155912   0.412   0.325   4.615 -0.4319 -0.6171 -0.1661
11499TIP3    H255913   0.503   0.204   4.617  0.6268  0.1581 -0.8402
11500TIP3   OH255914   2.080   0.337   3.140  0.5048  0.0384  0.3433
11500TIP3    H155915   2.121   0.267   3.089  0.6867  0.0297  0.5011
11500TIP3    H255916   2.106   0.418   3.096 -0.3782 -0.0245 -0.3293
11501TIP3   OH255917   2.503   0.636  15.848 -0.1480 -0.1881  0.1472
11501TIP3    H155918   2.473   0.675  15.930  1.8552  0.6229  0.5678
11501TIP3    H255919   2.484   0.543  15.857  2.2819 -0.5769  2.6935
11502TIP3   OH255920   0.401   6.439   4.963  0.2553  0.2572 -0.1896
11502TIP3    H155921   0.380   6.383   5.038 -1.7305  1.7355  0.4652
11502TIP3    H255922   0.496   6.439   4.958  0.4127 -0.3845  1.9773
11503TIP3   OH255923   3.292   6.317   1.000 -0.3489  0.7866  0.4513
11503TIP3    H155924   3.204   6.348   0.980 -0.4216  0.0830 -0.3499
11503TIP3    H255925   3.339   6.396   1.026 -0.6343  1.5533 -1.2052
11504TIP3   OH255926   1.716   6.340  17.113  0.3201 -0.0666  0.2376
11504TIP3    H155927   1.717   6.372  17.023  0.4855 -2.3194 -0.6367
11504TIP3    H255928   1.623   6.330  17.133  0.2204  2.0338  0.9732
11505TIP3   OH255929   1.386   1.901   1.264  0.2503 -0.5001  0.6457
11505TIP3    H155930   1.361   1.810   1.249 -0.8681 -0.1362  0.1892
11505TIP3    H255931   1.331   1.951   1.203  1.7537  0.3958 -0.0475
11506TIP3   OH255932   6.095   5.929  11.645 -0.1346 -0.1274 -0.2866
11506TIP3    H155933   6.084   5.852  11.589 -2.8138 -1.1727  1.4380
11506TIP3    H255934   6.175   5.911  11.694 -0.7691 -1.9402  0.1761
11507TIP3   OH255935   0.487   1.972  17.314  0.3203 -0.1605 -0.5272
11507TIP3    H155936   0.535   1.988  17.395 -0.7452  0.2850  0.0495
11507TIP3    H255937   0.481   1.877  17.307 -3.9726 -0.4736  2.7800
11508TIP3   OH255938   6.746   3.624   5.990  0.7669 -0.3966  0.0885
11508TIP3    H155939   6.725   3.539   5.952 -2.2905  0.6016 -0.7571
11508TIP3    H255940   6.772   3.604   6.080  0.0950 -2.2247 -0.0844
11509TIP3   OH255941   2.790   3.599  14.347 -0.9970 -0.2134  0.5510
11509TIP3    H155942   2.832   3.631  14.427 -1.1553 -0.2608  0.6546
11509TIP3    H255943   2.790   3.674  14.288 -1.3977 -0.0123  0.8052
11510TIP3   OH255944   6.397   2.582  15.276  0.1732  0.3475 -0.6307
11510TIP3    H155945   6.335   2.560  15.346  0.8918 -0.4977 -0.2367
11510TIP3    H255946   6.407   2.501  15.227  0.9123  0.4932 -0.7310
11511TIP3   OH255947   5.095   2.414  16.439  0.2785 -0.0890 -0.1091
11511TIP3    H155948   5.080   2.467  16.360 -0.5824  3.0536  1.9845
11511TIP3    H255949   5.137   2.334  16.406 -0.4394  0.8335 -3.7688
11512TIP3   OH255950   1.088   1.446   2.250 -0.0084 -0.2403  0.2323
11512TIP3    H155951   1.002   1.447   2.293  0.4622 -1.3368  1.2631
11512TIP3    H255952   1.120   1.536   2.257 -2.1623  0.9009 -2.5534
11513TIP3   OH255953   3.690   2.708  17.049  0.1041  0.1256  0.0802
11513TIP3    H155954   3.780   2.702  17.018  0.0477  1.9664 -0.5454
11513TIP3    H255955   3.645   2.759  16.981 -0.8277  1.3347  1.5447
11514TIP3   OH255956   5.304   0.485  15.310 -0.0523 -0.9696  0.0897
11514TIP3    H155957   5.263   0.436  15.239  0.4899  1.0902 -1.7806
11514TIP3    H255958   5.395   0.457  15.310  0.0542 -0.6390 -0.3776
11515TIP3   OH255959   3.970   6.247  12.224 -0.3514 -0.1351 -0.4103
11515TIP3    H155960   4.001   6.164  12.259 -1.8611 -0.8387 -0.6499
11515TIP3    H255961   3.934   6.225  12.138  1.3606  1.1983 -1.5299
11516TIP3   OH255962   4.083   2.522   3.212  0.3881  0.6938  0.8126
11516TIP3    H155963   4.015   2.455   3.202  2.4799 -1.7391  1.7626
11516TIP3    H255964   4.065   2.561   3.297 -1.8667  2.6992 -0.4761
11517TIP3   OH255965   0.944   6.277  17.304  0.4271 -0.1093 -0.4325
11517TIP3    H155966   0.961   6.357  17.353  1.0072 -0.2159 -0.4499
11517TIP3    H255967   0.896   6.221  17.365  0.7347 -0.0612 -0.1414
11518TIP3   OH255968   4.264   0.042  15.505  0.0368 -0.9514  0.7334
11518TIP3    H155969   4.322  -0.022  15.546  1.0125 -0.5736 -0.0159
11518TIP3    H255970   4.322   0.114  15.481 -0.9359 -0.0480  1.0002
11519TIP3   OH255971   3.356   2.344   5.259  0.5506  0.5607  0.6023
11519TIP3    H155972   3.319   2.367   5.344 -1.0117 -0.8953  0.3674
11519TIP3    H255973   3.451   2.345   5.273  0.3329  0.6108  2.2741
11520TIP3   OH255974   2.749   1.248  13.712  0.0791  0.3314 -0.0343
11520TIP3    H155975   2.657   1.223  13.701 -0.2802  1.4058  0.3418
11520TIP3    H255976   2.797   1.166  13.712 -0.7394 -0.1756 -1.5671
11521TIP3   OH255977   6.288   5.230  12.368  0.3479  0.3930  0.0774
11521TIP3    H155978   6.379   5.203  12.352  1.0280  1.8643  1.2506
11521TIP3    H255979   6.262   5.275  12.288 -0.0691 -1.6933 -1.0477
11522TIP3   OH255980   3.939   3.791  13.685 -0.4994  0.1037 -0.1401
11522TIP3    H155981   3.886   3.714  13.662 -1.2863  0.3429  0.8121
11522TIP3    H255982   3.932   3.848  13.609  0.6397 -1.0195 -1.1454
11523TIP3   OH255983   6.567   3.793   3.988  0.4163  0.5264 -0.4091
11523TIP3    H155984   6.505   3.825   3.921  0.2682 -0.9748 -1.0278
11523TIP3    H255985   6.651   3.789   3.943 -0.0944 -2.7398 -1.3392
11524TIP3   OH255986   0.517   2.140  11.038  0.2056  0.0615  0.5027
11524TIP3    H155987   0.610   2.125  11.022  0.0370  0.6312 -1.1555
11524TIP3    H255988   0.513   2.229  11.075  0.3584 -0.2406  1.2780
11525TIP3   OH255989   6.329   2.683   0.331 -0.6279 -0.2803  0.0425
11525TIP3    H155990   6.282   2.715   0.408 -0.6813 -0.0494 -0.0830
11525TIP3    H255991   6.341   2.761   0.277 -0.0210 -0.3245  0.1122
11526TIP3   OH255992   5.110   3.295  11.946 -0.0980  0.0984  0.2079
11526TIP3    H155993   5.039   3.240  11.913  1.1246 -0.4826 -1.5867
11526TIP3    H255994   5.103   3.376  11.895  1.0899 -0.3369 -0.6720
11527TIP3   OH255995   1.137   4.218  13.137 -0.4329 -0.1598  0.5247
11527TIP3    H155996   1.144   4.309  13.109  2.1970 -0.4493  0.0043
11527TIP3    H255997   1.134   4.222  13.233 -1.0154  0.4965  0.4787
11528TIP3   OH255998   3.462   0.630   3.725 -0.0826 -0.0424  0.2163
11528TIP3    H155999   3.524   0.583   3.781 -0.6814 -1.4137 -0.2257
11528TIP3    H256000   3.484   0.722   3.737  0.5590 -0.3655  1.8134
11529TIP3   OH256001   2.494   5.443   3.153 -0.1279 -0.3454  0.0206
11529TIP3    H156002   2.565   5.484   3.103  1.6686 -1.3293  1.6451
11529TIP3    H256003   2.505   5.477   3.242 -2.0023 -0.1895  0.2243
11530TIP3   OH256004   3.803   5.035   2.842  0.0627 -0.4735 -0.0865
11530TIP3    H156005   3.853   4.955   2.830  1.2597  0.1305  0.6558
11530TIP3    H256006   3.841   5.097   2.779  0.6416  0.1403  0.8286
11531TIP3   OH256007   0.726   4.320  14.431  0.3398  0.3069 -0.3147
11531TIP3    H156008   0.777   4.262  14.487  0.8732  0.9026 -0.1747
11531TIP3    H256009   0.679   4.377  14.492  1.1266  1.1360 -0.4488
11532TIP3   OH256010   2.064   5.111   4.658  0.1878 -0.6045  0.7235
11532TIP3    H156011   2.077   5.206   4.663 -0.0662 -0.5898  1.0923
11532TIP3    H256012   2.153   5.075   4.661  0.3242 -0.3569 -0.0173
11533TIP3   OH256013   4.359   4.791  11.585 -0.2895 -0.0025  0.0630
11533TIP3    H156014   4.288   4.818  11.643 -0.2724  2.4805 -0.9419
11533TIP3    H256015   4.425   4.754  11.643 -1.0734  0.6398  1.4010
11534TIP3   OH256016   1.181   4.302   1.963  0.2329  0.4583  0.1568
11534TIP3    H156017   1.121   4.229   1.958 -0.1564  0.7095  0.9202
11534TIP3    H256018   1.258   4.268   2.009 -0.2704  0.7157  1.2210
11535TIP3   OH256019   5.662   6.650  11.608 -0.1998 -0.3268  0.8723
11535TIP3    H156020   5.624   6.575  11.653  2.0294 -0.9132  1.8975
11535TIP3    H256021   5.706   6.700  11.677  2.1648 -0.5132 -0.4030
11536TIP3   OH256022   6.779   2.520  15.587 -0.5970  0.1423 -0.5808
11536TIP3    H156023   6.865   2.554  15.609 -0.3327 -0.9985  0.2107
11536TIP3    H256024   6.795   2.437  15.542 -1.2762 -1.1294  1.3993
11537TIP3   OH256025   5.158   0.039   2.782 -0.3143 -0.1341  0.3839
11537TIP3    H156026   5.236  -0.001   2.745  0.0074  1.2171 -0.4646
11537TIP3    H256027   5.181   0.059   2.872 -0.4594 -1.7331  0.8093
11538TIP3   OH256028   1.802   1.228  16.159 -0.0482  0.0020  0.5032
11538TIP3    H156029   1.816   1.321  16.144  0.9192  0.3704  3.1570
11538TIP3    H256030   1.889   1.190  16.157 -0.2618 -0.5385  1.1784
11539TIP3   OH256031   4.253   6.060   0.480  0.6677  0.3826 -0.1885
11539TIP3    H156032   4.257   6.045   0.574 -1.3562  0.5790 -0.0391
11539TIP3    H256033   4.220   5.978   0.444  0.9063  0.4952 -0.6658
11540TIP3   OH256034   4.892   6.547   3.282 -0.3907  0.7963  0.1713
11540TIP3    H156035   4.880   6.614   3.215 -2.4287 -0.4450 -0.7966
11540TIP3    H256036   4.856   6.467   3.243  1.2933 -0.7170  1.5594
11541TIP3   OH256037   3.215   4.535   2.305 -0.0516 -0.1010 -0.1334
11541TIP3    H156038   3.151   4.571   2.243  0.5022  0.9107 -0.1316
11541TIP3    H256039   3.297   4.535   2.257  0.5562  1.4665  0.8346
11542TIP3   OH256040   1.570   2.248  12.934 -0.0375 -0.3125  0.8999
11542TIP3    H156041   1.514   2.289  12.868  0.5492 -0.8093  0.0718
11542TIP3    H256042   1.635   2.200  12.884 -0.6819 -2.2600  1.8037
11543TIP3   OH256043   3.226   0.974  14.268  0.4738  0.4008  0.1094
11543TIP3    H156044   3.233   0.885  14.301 -0.6045 -0.5231 -1.9883
11543TIP3    H256045   3.202   1.026  14.345  4.7519 -0.3479  2.2546
11544TIP3   OH256046   3.540   5.347   0.976 -0.0275  0.3438  0.2754
11544TIP3    H156047   3.621   5.378   0.938 -0.3307  0.5799 -0.1826
11544TIP3    H256048   3.483   5.329   0.902 -0.2616 -0.2072  0.5741
11545TIP3   OH256049   4.013   1.699   4.067 -0.3810  0.3178 -0.0157
11545TIP3    H156050   4.067   1.633   4.025  0.9111  2.0305 -1.1917
11545TIP3    H256051   4.065   1.730   4.141 -2.1887 -1.9083  2.3954
11546TIP3   OH256052   1.915   4.047  15.156  0.4875 -0.7097  0.1053
11546TIP3    H156053   1.946   4.134  15.131 -1.3642  0.2978  1.0899
11546TIP3    H256054   1.917   3.996  15.075 -2.1725  1.4564 -1.4929
11547TIP3   OH256055   4.259   2.385  14.699  0.8202 -0.1505 -0.1790
11547TIP3    H156056   4.309   2.316  14.743 -0.1603 -0.4264  0.5230
11547TIP3    H256057   4.306   2.465  14.720 -0.6966  0.0209  3.1684
11548TIP3   OH256058   2.570   1.195  16.481  0.1850  0.1598  0.2604
11548TIP3    H156059   2.651   1.187  16.530 -0.1514 -0.9966  0.6469
11548TIP3    H256060   2.589   1.155  16.396  0.4298  1.1615 -0.1742
11549TIP3   OH256061   6.279   5.995   1.467 -0.2305  0.1742 -0.2285
11549TIP3    H156062   6.313   6.079   1.498  0.8807 -0.1745 -0.4477
11549TIP3    H256063   6.354   5.953   1.426 -0.7686 -0.9398 -0.1092
11550TIP3   OH256064   2.099   5.319  16.371 -0.5044  0.5148 -0.1104
11550TIP3    H156065   2.087   5.315  16.466 -0.0951 -2.0424 -0.0726
11550TIP3    H256066   2.177   5.373  16.359  1.1395 -1.3735  1.3015
11551TIP3   OH256067   0.610   2.335   1.694 -0.6895 -0.2579 -0.1481
11551TIP3    H156068   0.558   2.380   1.761 -0.7535  0.7221 -0.8338
11551TIP3    H256069   0.678   2.398   1.670  1.5525 -1.8902  1.4817
11552TIP3   OH256070   2.190   0.168   0.137  0.3082  0.6856  0.1122
11552TIP3    H156071   2.250   0.191   0.066  0.7869  1.8268  0.8623
11552TIP3    H256072   2.104   0.196   0.105 -0.0094 -1.5461 -1.2413
11553TIP3   OH256073   5.852   3.296   4.321  0.5139 -0.1021  0.3001
11553TIP3    H156074   5.816   3.245   4.248 -1.1467  0.5013  0.6466
11553TIP3    H256075   5.918   3.239   4.360 -0.5198 -1.5605  0.0210
11554TIP3   OH256076   5.568   0.923  12.658  0.3748  0.2467 -0.0547
11554TIP3    H156077   5.571   0.928  12.753  0.0448 -1.0286  0.0405
11554TIP3    H256078   5.646   0.872  12.634  0.5220  0.6623 -0.4763
11555TIP3   OH256079   0.918   0.656  12.924 -0.3526 -0.4049 -0.2964
11555TIP3    H156080   0.987   0.667  12.858 -0.7931  1.5980 -0.4964
11555TIP3    H256081   0.850   0.719  12.898 -1.7380 -1.4986  0.5613
11556TIP3   OH256082   6.275   5.583  13.823 -1.0954  0.1686  0.5733
11556TIP3    H156083   6.320   5.627  13.895  1.0987 -0.7646 -0.1583
11556TIP3    H256084   6.222   5.515  13.866 -0.1522 -0.1036  1.3516
11557TIP3   OH256085   2.746   4.212  15.243  0.4630 -0.3853 -0.2355
11557TIP3    H156086   2.828   4.186  15.201  1.9560 -0.3344  2.4323
11557TIP3    H256087   2.749   4.171  15.329 -2.3731 -0.3935 -0.0412
11558TIP3   OH256088   4.058   3.362   5.750  0.5546  0.5090  0.3071
11558TIP3    H156089   4.057   3.270   5.778  2.0299  0.2846 -0.2811
11558TIP3    H256090   4.150   3.388   5.757  0.5666  1.2260 -1.7887
11559TIP3   OH256091   3.781   4.037  11.416 -0.2391 -0.1608  0.2453
11559TIP3    H156092   3.728   4.108  11.454 -1.8487 -1.5103  0.6397
11559TIP3    H256093   3.832   4.079  11.347 -1.7514  1.2440 -0.0779
11560TIP3   OH256094   0.445   5.457  16.966  0.2419  0.3301 -0.5434
11560TIP3    H156095   0.382   5.386  16.954 -0.7217  1.1374 -0.3871
11560TIP3    H256096   0.530   5.413  16.967 -0.3562 -0.8819  0.0265
11561TIP3   OH256097   6.668   0.371  12.904 -1.0420 -0.5319 -0.5750
11561TIP3    H156098   6.715   0.352  12.985 -0.1193  1.2178 -0.6740
11561TIP3    H256099   6.580   0.334  12.919 -0.8002 -0.5183  1.0902
11562TIP3   OH256100   5.696   6.161   3.448  0.0549  0.0069 -0.4098
11562TIP3    H156101   5.691   6.091   3.513  0.1314  0.7133  0.3605
11562TIP3    H256102   5.774   6.210   3.472  0.1358  0.2195 -1.0929
11563TIP3   OH256103   4.961   0.978  13.772 -0.4469  0.3480 -0.5624
11563TIP3    H156104   4.896   1.018  13.830 -0.8283 -0.1462 -0.6401
11563TIP3    H256105   4.936   1.008  13.684  0.1492  1.1214 -0.4805
11564TIP3   OH256106   3.902   5.451   3.352 -0.0838  0.2597 -0.4582
11564TIP3    H156107   3.828   5.390   3.348  0.6694 -0.6601 -0.5190
11564TIP3    H256108   3.979   5.398   3.334  0.7454  0.9523  0.8676
11565TIP3   OH256109   1.855   6.311   1.625  0.2017  0.0747  0.0546
11565TIP3    H156110   1.878   6.404   1.620 -0.9812  0.4292  0.6997
11565TIP3    H256111   1.835   6.296   1.718 -1.0087 -0.4434 -0.2640
11566TIP3   OH256112   3.446   3.987   1.252 -0.3614 -0.0024 -0.0072
11566TIP3    H156113   3.391   3.912   1.228 -1.7202  1.1015 -0.4775
11566TIP3    H256114   3.403   4.026   1.327 -0.4371  1.0932 -0.5976
11567TIP3   OH256115   0.476   3.866   0.191  0.4221  0.3207  0.0666
11567TIP3    H156116   0.402   3.926   0.194  0.8724  1.0564 -1.7982
11567TIP3    H256117   0.487   3.837   0.281 -2.3677 -0.1530  0.3465
11568TIP3   OH256118   6.258   3.312   1.283  0.1152 -0.0139 -0.3098
11568TIP3    H156119   6.195   3.350   1.345 -1.4580  1.8923 -2.8534
11568TIP3    H256120   6.332   3.373   1.284  0.0480  0.0690 -0.3707
11569TIP3   OH256121   2.345   6.077  16.822 -0.6100 -0.0021 -0.0052
11569TIP3    H156122   2.414   6.038  16.768  1.7884 -0.3659  3.0344
11569TIP3    H256123   2.322   6.158  16.776  0.6237 -0.6844 -1.9599
11570TIP3   OH256124   4.568   4.826  17.201  0.0615 -0.2860 -0.0698
11570TIP3    H156125   4.538   4.911  17.170 -0.2387 -0.5649 -0.5773
11570TIP3    H256126   4.593   4.840  17.292  0.6146  0.4773 -0.3355
11571TIP3   OH256127   3.982   1.983  17.070 -0.0230  0.4690 -0.3052
11571TIP3    H156128   3.976   1.895  17.031 -1.3695  1.1864 -1.8468
11571TIP3    H256129   3.952   2.041  17.000 -0.9138  2.0003  1.2926
11572TIP3   OH256130   2.561   5.409  10.510 -0.1392  0.3417  0.5375
11572TIP3    H156131   2.552   5.466  10.434  0.0581  0.9595  0.9700
11572TIP3    H256132   2.507   5.332  10.489 -0.0748  0.4981 -0.2241
11573TIP3   OH256133   0.239   3.270  15.271  0.6682 -0.4933 -0.0905
11573TIP3    H156134   0.260   3.214  15.196  1.8146  0.4034 -0.4726
11573TIP3    H256135   0.181   3.337  15.234 -4.5574 -3.6665  1.1871
11574TIP3   OH256136   1.917   1.608   1.191  0.0512 -0.1904  0.1451
11574TIP3    H156137   1.920   1.635   1.100  0.0016 -0.0591  0.1827
11574TIP3    H256138   2.003   1.629   1.226 -0.7509  2.2696  0.8469
11575TIP3   OH256139   2.298   6.489  15.545 -0.1108  0.1319  0.3106
11575TIP3    H156140   2.258   6.447  15.621  0.7060  0.3706  0.8869
11575TIP3    H256141   2.250   6.571  15.535 -1.4206 -0.7080 -0.5536
11576TIP3   OH256142   4.669   2.999  14.857  0.0732 -0.0926 -0.2261
11576TIP3    H156143   4.585   3.028  14.822  1.1171  1.7365 -1.3802
11576TIP3    H256144   4.720   2.974  14.780  1.1115  0.3308  0.3013
11577TIP3   OH256145   4.866   1.240   1.983 -0.1571 -0.3019 -0.3387
11577TIP3    H156146   4.954   1.203   1.992 -0.1552 -1.0780 -2.7826
11577TIP3    H256147   4.809   1.163   1.973 -0.9278  0.2392 -0.1981
11578TIP3   OH256148   4.440   1.636   1.892 -0.1074  0.5675  0.2554
11578TIP3    H156149   4.389   1.692   1.833 -0.0811  1.3965  1.0007
11578TIP3    H256150   4.452   1.554   1.843 -2.4820  0.1815  0.1680
11579TIP3   OH256151   5.779   0.963   5.651  0.3915  0.7074 -0.0246
11579TIP3    H156152   5.793   0.874   5.616 -1.4907  0.1793  0.4244
11579TIP3    H256153   5.768   1.017   5.573 -0.3662  0.1651 -0.3148
11580TIP3   OH256154   1.081   3.763   1.555  0.4862  0.6530  0.0001
11580TIP3    H156155   1.146   3.741   1.622 -1.3764 -2.9884  0.8924
11580TIP3    H256156   1.119   3.730   1.474  0.9471  1.1934 -0.0099
11581TIP3   OH256157   2.841   4.104   3.621 -0.0341  0.0661 -0.0940
11581TIP3    H156158   2.847   4.049   3.543  1.1188  0.3850 -0.2469
11581TIP3    H256159   2.821   4.044   3.692  1.0342 -0.5469 -0.2906
11582TIP3   OH256160   0.453   6.359  12.052  0.0536 -0.0810 -0.2287
11582TIP3    H156161   0.510   6.282  12.043  1.0680  0.6603 -0.3111
11582TIP3    H256162   0.493   6.410  12.123 -0.1230  0.7710 -0.7276
11583TIP3   OH256163   5.118   6.513   6.236 -0.3628 -0.2590  0.4501
11583TIP3    H156164   5.096   6.595   6.280 -2.5316 -1.1252  1.0982
11583TIP3    H256165   5.214   6.510   6.238 -0.2812  0.6517  3.4871
11584TIP3   OH256166   3.780   2.365   3.851  0.1496  0.1396  0.0188
11584TIP3    H156167   3.843   2.301   3.884  0.9909  0.1477 -1.4719
11584TIP3    H256168   3.835   2.434   3.812 -0.7677  0.9030  0.0532
11585TIP3   OH256169   2.102   2.479  11.752  0.0476 -1.0307  0.2908
11585TIP3    H156170   2.159   2.467  11.828 -0.2736  1.8600  1.0829
11585TIP3    H256171   2.028   2.530  11.785 -0.7004 -0.7366 -1.7230
11586TIP3   OH256172   0.201   4.118  14.902 -0.7104 -0.4498  0.2928
11586TIP3    H156173   0.210   4.209  14.930  0.8508 -0.4644 -0.0985
11586TIP3    H256174   0.276   4.073  14.942  0.8308 -0.7544 -2.6912
11587TIP3   OH256175   1.464   4.250  17.281  1.1038  0.0473 -0.2518
11587TIP3    H156176   1.449   4.157  17.262  1.7676  0.2062 -1.6932
11587TIP3    H256177   1.547   4.252  17.328  0.9370 -0.1018  0.0565
11588TIP3   OH256178   4.849   4.330   5.101 -0.2204  0.2719  0.2890
11588TIP3    H156179   4.935   4.358   5.134  0.4885 -0.6582 -0.7032
11588TIP3    H256180   4.859   4.236   5.086 -1.9057 -0.1755  1.5930
11589TIP3   OH256181   2.980   0.296   3.320 -0.4181  0.3492  0.2219
11589TIP3    H156182   3.031   0.218   3.342 -0.8875 -0.1911 -0.5870
11589TIP3    H256183   3.043   0.368   3.327  0.1136 -0.1452  0.5991
11590TIP3   OH256184   2.653   1.328   1.860 -0.2707 -0.1845  0.3000
11590TIP3    H156185   2.639   1.376   1.942 -0.6911 -0.2753  0.2825
11590TIP3    H256186   2.571   1.339   1.812 -0.0913 -0.2866 -0.0319
11591TIP3   OH256187   3.144   0.577  13.557  0.8326  0.7774 -0.2498
11591TIP3    H156188   3.117   0.645  13.496 -0.8005  0.2708 -0.1310
11591TIP3    H256189   3.146   0.496  13.504 -1.3155  0.2014  0.4636
11592TIP3   OH256190   0.095   2.628  12.609  0.1283 -0.0129  0.0706
11592TIP3    H156191   0.006   2.604  12.581  0.6329 -0.2196 -1.4584
11592TIP3    H256192   0.152   2.568  12.561  1.2011  1.5288 -0.6776
11593TIP3   OH256193   4.970   6.122   1.705 -0.2841 -0.5297  0.1509
11593TIP3    H156194   4.966   6.063   1.630 -0.1153  0.6826 -0.8437
11593TIP3    H256195   4.896   6.096   1.760 -0.7114 -1.1218 -0.6829
11594TIP3   OH256196   3.096   2.922   4.529  0.2932  0.0700 -0.3332
11594TIP3    H156197   3.057   2.835   4.517  1.2457 -0.3142 -0.7452
11594TIP3    H256198   3.024   2.976   4.564  0.3676 -1.5374  2.6111
11595TIP3   OH256199   0.103   1.137  14.202 -0.1904  0.0466 -0.8469
11595TIP3    H156200   0.175   1.074  14.206 -0.4092 -0.2739 -1.7833
11595TIP3    H256201   0.102   1.177  14.289  1.2323  0.1888 -0.8673
11596TIP3   OH256202   0.405   2.541   1.789 -0.1773 -0.3077 -0.5310
11596TIP3    H156203   0.402   2.569   1.698 -2.7308  0.2637 -0.3320
11596TIP3    H256204   0.347   2.466   1.793  0.2708 -0.6184  0.5577
11597TIP3   OH256205   5.449   4.511   1.634 -0.8610  0.2600  0.0177
11597TIP3    H156206   5.537   4.517   1.670 -0.0128  1.1513 -2.0555
11597TIP3    H256207   5.418   4.425   1.661  1.5297 -1.0293 -1.0006
11598TIP3   OH256208   5.413   6.758  12.940 -0.2743  0.0917  0.2454
11598TIP3    H156209   5.375   6.845  12.952  0.8066  0.6461 -0.1819
11598TIP3    H256210   5.339   6.703  12.916 -1.1549  0.6451  1.5747
11599TIP3   OH256211   0.927   4.669   2.331  0.4634  0.1552  0.1665
11599TIP3    H156212   0.881   4.595   2.291  0.7440 -0.8505  1.6273
11599TIP3    H256213   1.003   4.683   2.274  0.9429 -1.3409  0.3810
11600TIP3   OH256214   1.986   2.721   0.148 -0.0905 -0.0373  0.4614
11600TIP3    H156215   1.901   2.732   0.105  0.6082 -0.9803 -1.2751
11600TIP3    H256216   2.044   2.781   0.101  0.1282  0.9526  1.9493
11601TIP3   OH256217   6.006   6.185   4.977 -0.9432 -0.5959  0.3373
11601TIP3    H156218   6.090   6.220   5.006 -1.5530  1.1072  0.1651
11601TIP3    H256219   6.023   6.092   4.962  1.0774 -0.1904 -0.2786
11602TIP3   OH256220   5.164   5.005   3.991 -0.5847 -0.5928  0.2291
11602TIP3    H156221   5.174   4.966   3.905  0.0784 -0.3610  0.1966
11602TIP3    H256222   5.096   5.071   3.980 -0.2000 -0.2691 -0.2157
11603TIP3   OH256223   6.538   5.824  14.483  0.6491  0.2106 -0.1715
11603TIP3    H156224   6.519   5.833  14.389 -1.2514  1.6948  0.2853
11603TIP3    H256225   6.621   5.870  14.496 -0.0754  1.7753 -0.8350
11604TIP3   OH256226   5.607   4.814   4.192  0.2902  0.0385  0.4653
11604TIP3    H156227   5.546   4.885   4.171 -0.5921 -1.0135 -0.6963
11604TIP3    H256228   5.694   4.851   4.175 -0.1623  0.8002 -0.3060
11605TIP3   OH256229   2.726   5.497   4.944 -0.1436 -0.1920  0.0376
11605TIP3    H156230   2.643   5.545   4.937 -0.2246  0.1359  2.3344
11605TIP3    H256231   2.703   5.416   4.988  0.6120 -0.5357 -0.1923
11606TIP3   OH256232   0.320   3.502   0.202 -0.2223  0.5642 -0.6033
11606TIP3    H156233   0.327   3.576   0.263 -0.2268 -1.0859  1.5194
11606TIP3    H256234   0.226   3.482   0.199 -0.2712  0.8877 -1.5094
11607TIP3   OH256235   4.023   0.178  11.023 -0.2355 -0.0384  0.2553
11607TIP3    H156236   4.029   0.267  10.987 -0.2229  0.2512  0.9466
11607TIP3    H256237   3.937   0.146  10.993 -0.4208  0.3665  0.3461
11608TIP3   OH256238   5.628   5.424  16.007  0.1846  0.1846  0.3153
11608TIP3    H156239   5.616   5.518  16.016 -2.3580  0.0978 -1.2347
11608TIP3    H256240   5.651   5.411  15.915  0.5855 -0.7061  0.5277
11609TIP3   OH256241   6.380   6.612  11.173 -0.1371 -0.3386 -0.4594
11609TIP3    H156242   6.291   6.619  11.208 -0.2761 -0.5566 -0.7597
11609TIP3    H256243   6.411   6.702  11.167 -0.2945 -0.2708 -0.2430
11610TIP3   OH256244   2.375   0.566  14.120 -0.5677  0.4674  0.3587
11610TIP3    H156245   2.448   0.545  14.061 -2.5269 -2.8414 -1.2485
11610TIP3    H256246   2.367   0.661  14.116  3.2162  0.9354  0.1978
11611TIP3   OH256247   5.352   1.355   0.373  0.0004 -0.0525 -0.1352
11611TIP3    H156248   5.409   1.417   0.326 -2.4820  2.2087 -0.3842
11611TIP3    H256249   5.264   1.389   0.359 -1.2585 -2.1623  2.0609
11612TIP3   OH256250   3.528   5.688   1.442  0.3964 -0.1171 -0.7217
11612TIP3    H156251   3.562   5.599   1.455 -1.3195 -0.9292 -1.5498
11612TIP3    H256252   3.606   5.739   1.420  1.6613 -1.0536  1.2389
11613TIP3   OH256253   1.050   2.607   0.735  0.2930  0.5233  0.6492
11613TIP3    H156254   1.100   2.688   0.736  1.2333 -0.0244 -0.2325
11613TIP3    H256255   0.979   2.623   0.672  1.0401  0.3504 -0.2562
11614TIP3   OH256256   0.166   5.622   1.774  0.1957 -0.3845 -0.1176
11614TIP3    H156257   0.077   5.655   1.764  0.1860  0.1427  1.4349
11614TIP3    H256258   0.157   5.541   1.823  0.6117 -0.0043  0.5959
11615TIP3   OH256259   6.679   1.382   0.103  0.4201  0.6220  0.6231
11615TIP3    H156260   6.647   1.469   0.126  1.2306  0.9202  0.6833
11615TIP3    H256261   6.769   1.381   0.135  0.2024 -0.4982  1.2477
11616TIP3   OH256262   4.993   5.564  12.844 -0.1024  0.0393  0.3114
11616TIP3    H156263   4.956   5.589  12.928 -0.9106  1.2953 -0.3691
11616TIP3    H256264   5.080   5.604  12.843 -0.4204  0.7434  0.2282
11617TIP3   OH256265   6.085   5.789  16.008  0.1008 -0.2191  0.1248
11617TIP3    H156266   6.001   5.769  15.966  0.4758 -0.0678 -0.7298
11617TIP3    H256267   6.071   5.769  16.100 -0.9808  0.1239  0.0513
11618TIP3   OH256268   1.053   1.496   1.204  0.3106  0.8277  0.1545
11618TIP3    H156269   1.082   1.435   1.136 -0.8278  1.8070 -1.2710
11618TIP3    H256270   0.965   1.465   1.227  1.2189 -0.3929  2.3425
11619TIP3   OH256271   1.421   4.808  13.383  0.0419  0.0856  0.6300
11619TIP3    H156272   1.392   4.717  13.391 -1.2311  0.4553  0.4930
11619TIP3    H256273   1.504   4.811  13.430  1.0503 -1.5453 -0.9378
11620TIP3   OH256274   1.990   4.272  15.389  0.0217  0.4801 -0.0456
11620TIP3    H156275   2.005   4.202  15.325  0.6365  1.8364 -1.4490
11620TIP3    H256276   2.002   4.353  15.340  0.9370  1.6006  1.9020
11621TIP3   OH256277   5.523   3.380   6.338 -0.1042  0.3523  0.4600
11621TIP3    H156278   5.487   3.409   6.422 -1.2550  0.8892 -0.1938
11621TIP3    H256279   5.561   3.294   6.357  1.4109  1.2981  1.9417
11622TIP3   OH256280   0.033   2.387   1.002  0.2799  0.1373 -0.0755
11622TIP3    H156281   0.018   2.365   1.094 -3.0926 -0.1652 -0.5744
11622TIP3    H256282   0.043   2.302   0.958 -2.6881 -0.0740 -0.5434
11623TIP3   OH256283   5.464   5.418   0.632 -0.6064 -0.2135 -0.0203
11623TIP3    H156284   5.487   5.463   0.713 -1.0481 -1.5620  0.8853
11623TIP3    H256285   5.497   5.475   0.563 -0.2842  1.0015  1.0988
11624TIP3   OH256286   2.543   2.469   2.816 -0.1995  0.0842 -0.2783
11624TIP3    H156287   2.579   2.415   2.886 -1.7184 -0.5051  0.0732
11624TIP3    H256288   2.620   2.506   2.773  0.8366 -1.4258  0.1981
11625TIP3   OH256289   0.989   6.487   5.280 -0.3464 -0.5921 -0.0722
11625TIP3    H156290   1.059   6.553   5.285 -2.8735  2.1807  2.0796
11625TIP3    H256291   0.985   6.448   5.367 -1.7135 -0.4063 -0.0278
11626TIP3   OH256292   3.231   3.217  15.253  0.1884 -0.0631  0.3621
11626TIP3    H156293   3.252   3.171  15.172  1.1856  1.3547 -0.2391
11626TIP3    H256294   3.305   3.199  15.310 -0.0789 -0.3241  0.6260
11627TIP3   OH256295   0.250   1.278   4.173 -0.5909  0.4741  0.1108
11627TIP3    H156296   0.307   1.202   4.184  0.1611  0.8653 -0.9570
11627TIP3    H256297   0.278   1.340   4.241 -1.3690 -0.2783  1.1434
11628TIP3   OH256298   5.967   6.303   3.480  0.0945 -0.6487  0.0765
11628TIP3    H156299   5.997   6.229   3.426  1.8329 -0.4412  0.6831
11628TIP3    H256300   5.967   6.378   3.420  2.9444 -0.2136  0.4412
11629TIP3   OH256301   1.389   5.163   4.337 -0.1627  0.1247 -0.4283
11629TIP3    H156302   1.320   5.207   4.388 -1.1441 -0.4566 -1.2165
11629TIP3    H256303   1.391   5.074   4.373  0.6751  0.3285  0.0546
11630TIP3   OH256304   2.743   6.691   4.818 -0.1192  0.4284 -0.0187
11630TIP3    H156305   2.659   6.645   4.829 -0.0384 -0.4653 -2.5821
11630TIP3    H256306   2.803   6.624   4.784  1.9134  0.8671  2.4017
11631TIP3   OH256307   2.159   5.292   4.385  0.7198 -0.2336  0.6163
11631TIP3    H156308   2.078   5.274   4.433 -0.5976  0.5059 -1.2392
11631TIP3    H256309   2.167   5.219   4.323 -0.2719  1.2542 -1.3563
11632TIP3   OH256310   4.445   6.403   6.215 -0.3838 -0.0544  0.1587
11632TIP3    H156311   4.528   6.426   6.173 -1.3329 -0.0850 -1.8272
11632TIP3    H256312   4.388   6.478   6.199 -1.1382 -0.5668  0.3840
11633TIP3   OH256313   3.814   4.229   3.416 -0.4211  0.4629 -0.1498
11633TIP3    H156314   3.782   4.231   3.326 -1.0750 -0.4988  0.0448
11633TIP3    H256315   3.896   4.280   3.414  0.4684 -0.9309 -1.6389
11634TIP3   OH256316   2.792   1.317   2.927  0.2113  0.1162  0.3542
11634TIP3    H156317   2.714   1.358   2.964  0.1564 -0.0684  0.4441
11634TIP3    H256318   2.771   1.302   2.835  0.3677  0.6266  0.2322
11635TIP3   OH256319   6.287   2.321  14.699  0.0174  0.6307 -0.2139
11635TIP3    H156320   6.340   2.395  14.669  0.4377 -0.0876 -1.3205
11635TIP3    H256321   6.350   2.250  14.709 -0.3744  0.4284  0.9021
11636TIP3   OH256322   3.131   2.065   0.821 -0.4929 -0.2440  0.4901
11636TIP3    H156323   3.093   2.122   0.755 -1.0634 -2.7702 -1.4955
11636TIP3    H256324   3.189   2.006   0.773  0.9850 -0.6370  2.5899
11637TIP3   OH256325   3.500   1.582   3.272 -0.0994 -0.2906 -0.3411
11637TIP3    H156326   3.481   1.665   3.228  1.7155  0.4705  0.2446
11637TIP3    H256327   3.582   1.552   3.233  0.1493 -0.9355  0.6517
11638TIP3   OH256328   1.713   3.924  11.922  0.9936  0.1694 -0.3355
11638TIP3    H156329   1.783   3.892  11.979  0.5436 -3.0572 -1.4120
11638TIP3    H256330   1.632   3.909  11.971  0.8220  0.7738 -0.4208
11639TIP3   OH256331   1.877   5.670  13.683 -0.2713  0.6692  0.5720
11639TIP3    H156332   1.844   5.657  13.595  0.9882 -0.2830  0.2075
11639TIP3    H256333   1.846   5.594  13.732  2.1881 -0.8749 -0.0665
11640TIP3   OH256334   5.762   0.733   0.019 -0.0440 -0.0280 -0.1808
11640TIP3    H156335   5.855   0.721  -0.001 -0.1356 -0.4127 -0.3884
11640TIP3    H256336   5.727   0.644   0.024 -0.6408  0.1293 -1.2556
11641TIP3   OH256337   3.796   5.724  14.505 -0.1361  0.2512  0.0290
11641TIP3    H156338   3.763   5.789  14.566  2.1817  1.0620  0.5389
11641TIP3    H256339   3.813   5.646  14.559  0.3472  0.4109  0.1150
11642TIP3   OH256340   1.597   5.829   4.910  0.2851  0.4946 -0.0236
11642TIP3    H156341   1.585   5.747   4.958 -1.4881  0.7404  0.0299
11642TIP3    H256342   1.663   5.809   4.844  1.4402 -0.3557  1.3166
11643TIP3   OH256343   6.155   6.393   0.016  0.0693 -0.2633  0.0856
11643TIP3    H156344   6.140   6.339  -0.062 -1.1402 -0.7415  0.6175
11643TIP3    H256345   6.248   6.380   0.036 -0.2307 -2.4484  0.3727
11644TIP3   OH256346   5.986   4.274   4.297  0.3057  0.1929  0.1578
11644TIP3    H156347   6.017   4.229   4.219 -0.3545 -1.1751  0.6514
11644TIP3    H256348   5.909   4.224   4.324 -0.6335  1.7884  0.5887
11645TIP3   OH256349   2.695   5.727  11.294 -0.1968  0.1965  0.0271
11645TIP3    H156350   2.672   5.724  11.387 -0.8104 -1.3167 -0.1577
11645TIP3    H256351   2.767   5.664  11.285 -0.0187  0.4672 -0.5036
11646TIP3   OH256352   2.170   1.997  16.180  0.4358 -0.3863  0.1937
11646TIP3    H156353   2.123   1.995  16.263  0.6611  0.5117  0.3539
11646TIP3    H256354   2.259   2.025  16.203 -0.3454  3.2602 -0.6863
11647TIP3   OH256355   5.409   6.571   0.466 -0.9819  1.0259  0.1401
11647TIP3    H156356   5.491   6.559   0.515 -0.9909  2.9782  0.7404
11647TIP3    H256357   5.349   6.608   0.531 -2.1668  0.1854 -0.4535
11648TIP3   OH256358   2.460   4.904   0.430 -0.5550  0.7655 -0.8077
11648TIP3    H156359   2.503   4.948   0.357 -0.4851  1.8751 -0.1171
11648TIP3    H256360   2.407   4.972   0.471 -1.3193 -0.0739 -0.3729
11649TIP3   OH256361   2.060   4.614  17.090 -0.3482  0.0099 -0.0558
11649TIP3    H156362   2.084   4.704  17.064 -1.5441  0.1557 -0.6995
11649TIP3    H256363   2.020   4.577  17.012  0.2891 -1.1658  0.1547
11650TIP3   OH256364   1.315   5.165  11.569 -0.1069  0.1304 -0.0035
11650TIP3    H156365   1.243   5.105  11.588 -0.4385  0.4533 -0.2404
11650TIP3    H256366   1.279   5.227  11.505 -0.1036  1.2441  1.0443
11651TIP3   OH256367   0.276   0.901   5.381  0.2724 -0.1321  0.1704
11651TIP3    H156368   0.242   0.963   5.317 -0.2657  0.3017  0.8616
11651TIP3    H256369   0.367   0.928   5.395  0.3574 -0.1570 -0.3054
11652TIP3   OH256370   5.519   2.396   5.612  0.2164 -0.0192  0.4167
11652TIP3    H156371   5.495   2.413   5.703 -0.9932  0.3462  0.0500
11652TIP3    H256372   5.530   2.301   5.607 -2.6395 -0.4423  0.3252
11653TIP3   OH256373   6.595   0.072   3.048 -0.0417  0.6623  0.9085
11653TIP3    H156374   6.504   0.098   3.032 -0.3960 -1.5550 -1.1270
11653TIP3    H256375   6.626   0.039   2.964  1.6031 -1.6638  2.3219
11654TIP3   OH256376   1.327   5.559   2.382 -0.2994  0.3945 -0.0832
11654TIP3    H156377   1.411   5.515   2.389 -1.2173 -1.2070  2.9000
11654TIP3    H256378   1.330   5.628   2.449 -0.3406  2.4027 -2.0191
11655TIP3   OH256379   4.507   0.155  13.466  0.1182 -1.0348 -0.0447
11655TIP3    H156380   4.459   0.115  13.539  0.0255 -0.9313 -0.0498
11655TIP3    H256381   4.599   0.154  13.494  0.1947 -1.7939 -0.2868
11656TIP3   OH256382   6.055   4.871  11.521 -0.4865  0.7201 -0.7287
11656TIP3    H156383   6.057   4.924  11.441 -2.0480  1.1779 -0.5062
11656TIP3    H256384   5.969   4.829  11.519  0.4453 -1.2824 -0.5405
11657TIP3   OH256385   3.332   4.338   4.770 -0.6375 -0.0534  0.1821
11657TIP3    H156386   3.391   4.308   4.839 -0.5982  0.0716  0.2049
11657TIP3    H256387   3.288   4.260   4.739 -1.2838  0.0071  0.9369
11658TIP3   OH256388   2.229   3.088   5.188  0.0829  0.0278  0.1814
11658TIP3    H156389   2.248   2.997   5.163 -0.3664  0.3487 -1.4467
11658TIP3    H256390   2.182   3.081   5.271  1.5992 -1.1165  0.9818
11659TIP3   OH256391   6.061   0.900   2.953  0.2213 -0.4744  0.7653
11659TIP3    H156392   6.006   0.933   3.024 -2.8971 -1.5585 -0.9454
11659TIP3    H256393   6.053   0.805   2.958 -1.4511 -0.5745 -1.8920
11660TIP3   OH256394   6.179   1.201   3.278  0.0393  0.2006  0.1292
11660TIP3    H156395   6.125   1.268   3.320  0.8494  0.6884  0.4207
11660TIP3    H256396   6.127   1.122   3.282 -0.5605  0.6116  0.6107
11661TIP3   OH256397   1.679   4.867   1.625  0.4972  0.4681  0.1379
11661TIP3    H156398   1.587   4.844   1.629  0.7075 -0.4109  0.1053
11661TIP3    H256399   1.711   4.850   1.714  1.3475 -2.4780 -0.6051
11662TIP3   OH256400   0.719   0.094   2.256  0.0538 -0.0933  0.0722
11662TIP3    H156401   0.795   0.071   2.203 -0.3316 -1.2066 -0.0314
11662TIP3    H256402   0.676   0.010   2.274 -1.9064  0.5937 -1.0351
11663TIP3   OH256403   1.320   3.351   1.375 -0.0580  0.3060 -0.0996
11663TIP3    H156404   1.242   3.350   1.320 -0.6337  1.2272  0.6635
11663TIP3    H256405   1.385   3.398   1.323  0.1435 -0.8129 -0.9040
11664TIP3   OH256406   4.905   2.530   6.552 -0.0145 -0.1751  0.0696
11664TIP3    H156407   4.843   2.462   6.525 -1.0800 -0.4789  2.8825
11664TIP3    H256408   4.855   2.611   6.549  0.8728  0.3472 -2.0213
11665TIP3   OH256409   1.774   0.363  11.895 -0.1525  0.4670  0.4504
11665TIP3    H156410   1.762   0.402  11.809  0.4261  0.9535  0.5785
11665TIP3    H256411   1.687   0.330  11.919 -0.7291  1.8507  0.4028
11666TIP3   OH256412   0.774   2.560   3.314  0.2952 -0.1392 -0.1778
11666TIP3    H156413   0.758   2.638   3.261  2.2645  1.2373  1.1062
11666TIP3    H256414   0.851   2.520   3.275  0.6419 -0.1599  0.5165
11667TIP3   OH256415   3.543   3.910   3.571  0.3576 -0.0163  0.6937
11667TIP3    H156416   3.567   4.002   3.578  1.2627 -0.1928  0.0014
11667TIP3    H256417   3.449   3.911   3.551  0.3191  0.7388  0.8904
11668TIP3   OH256418   3.246   3.994  17.325  0.3935  0.4270 -0.1452
11668TIP3    H156419   3.180   4.050  17.365  0.6049 -0.4269  1.4510
11668TIP3    H256420   3.240   3.911  17.372  0.1341 -0.9307 -2.4126
11669TIP3   OH256421   6.026   4.189   0.101 -0.0830 -0.4314 -0.1616
11669TIP3    H156422   5.980   4.248   0.041 -1.0445 -1.3236 -0.3230
11669TIP3    H256423   5.969   4.183   0.177 -0.7504 -2.2809 -0.7429
11670TIP3   OH256424   3.468   0.420  15.414 -0.3585  0.7477  0.2132
11670TIP3    H156425   3.490   0.395  15.503  1.3737 -0.0783 -0.4111
11670TIP3    H256426   3.376   0.447  15.419 -1.1883 -1.9682  1.7083
11671TIP3   OH256427   2.784   1.981   4.685  0.2773  0.2144 -0.0015
11671TIP3    H156428   2.709   1.924   4.700  0.0010  0.6641  0.3622
11671TIP3    H256429   2.747   2.070   4.688  0.6357  0.4021 -0.9040
11672TIP3   OH256430   6.007   2.113   0.485 -0.2668  0.3555  0.1285
11672TIP3    H156431   6.073   2.169   0.525 -0.5879  1.8805 -1.3691
11672TIP3    H256432   5.933   2.171   0.468 -0.9391 -0.7041 -0.7313
11673TIP3   OH256433   5.002   0.548  15.310  0.1456 -0.0920  0.5977
11673TIP3    H156434   5.096   0.561  15.303 -0.2589  2.6522 -1.1465
11673TIP3    H256435   4.972   0.538  15.220 -1.4435  1.2753  0.9226
11674TIP3   OH256436   4.175   2.463   1.494 -0.1526  0.3332 -0.1246
11674TIP3    H156437   4.167   2.373   1.525 -1.5874  0.4211 -0.1751
11674TIP3    H256438   4.168   2.516   1.573  0.1672  0.4156 -0.1525
11675TIP3   OH256439   0.580   6.088  12.095  0.1967  0.3535  0.0405
11675TIP3    H156440   0.578   5.993  12.106  4.0137  0.1449  0.2091
11675TIP3    H256441   0.630   6.102  12.015 -1.7536  2.3065 -0.9550
11676TIP3   OH256442   0.991   3.628   3.493 -0.2236 -0.1781 -0.1152
11676TIP3    H156443   0.929   3.557   3.477  0.0440 -0.1840 -1.1983
11676TIP3    H256444   1.020   3.654   3.406  0.6052  0.4409  0.3370
11677TIP3   OH256445   2.415   3.714   0.398 -0.4163 -0.2201  0.0050
11677TIP3    H156446   2.507   3.738   0.389 -0.4164  0.3115  1.1727
11677TIP3    H256447   2.384   3.701   0.309  0.8481 -0.6404 -0.3909
11678TIP3   OH256448   5.282   5.090   1.916  0.4142 -0.4447 -0.8281
11678TIP3    H156449   5.223   5.028   1.960  0.6157  0.5764  1.0128
11678TIP3    H256450   5.368   5.048   1.919  0.7681  0.2863  1.4031
11679TIP3   OH256451   1.730   4.789  12.850  0.7438  0.0726 -0.4484
11679TIP3    H156452   1.723   4.870  12.799  1.0002  0.9105  0.7901
11679TIP3    H256453   1.797   4.808  12.916 -1.2406 -0.0664  1.7446
11680TIP3   OH256454   3.690   0.325   0.606  0.3080  0.3580 -0.1301
11680TIP3    H156455   3.708   0.254   0.545  0.8134  0.1558  0.2504
11680TIP3    H256456   3.768   0.330   0.662 -0.9790 -0.8761  1.9065
11681TIP3   OH256457   3.881   3.809  16.053  0.3645  0.5716 -0.3744
11681TIP3    H156458   3.923   3.840  15.973  0.1618  0.2167 -0.6242
11681TIP3    H256459   3.923   3.725  16.071  1.2432  1.1833  0.5539
11682TIP3   OH256460   5.498   5.568   0.855 -0.7322  0.7252  0.6922
11682TIP3    H156461   5.519   5.562   0.948 -0.9163  0.3205  0.7085
11682TIP3    H256462   5.416   5.617   0.851 -0.8521  0.5297  0.7594
11683TIP3   OH256463   4.572   4.649  11.691  0.7637  0.3254  0.6481
11683TIP3    H156464   4.660   4.688  11.698  0.2505  1.4503  1.1331
11683TIP3    H256465   4.588   4.559  11.664  2.1655  0.0324  2.2789
11684TIP3   OH256466   2.871   2.971   2.125 -0.1840 -0.1443 -0.0479
11684TIP3    H156467   2.879   2.897   2.064 -2.5431  0.6131 -1.4016
11684TIP3    H256468   2.930   2.949   2.197  1.3657 -1.9468 -1.7537
11685TIP3   OH256469   3.185   1.796   3.900 -0.4065 -0.1371  0.5854
11685TIP3    H156470   3.238   1.717   3.915 -2.4847 -1.4343  1.5689
11685TIP3    H256471   3.182   1.838   3.986  0.2124  0.7350  0.1908
11686TIP3   OH256472   4.839   4.275  15.893 -0.2189  0.0137 -0.7938
11686TIP3    H156473   4.866   4.355  15.939 -1.0784 -0.3350  0.3800
11686TIP3    H256474   4.810   4.216  15.963  1.4739 -1.7927 -1.5350
11687TIP3   OH256475   1.843   5.356   2.977 -0.2636  0.3391  0.0554
11687TIP3    H156476   1.795   5.282   2.938 -1.3171  1.0058  0.0535
11687TIP3    H256477   1.841   5.424   2.909  2.4763 -0.2817 -0.7663
11688TIP3   OH256478   4.761   3.079   1.289  0.1573  0.4270 -0.0668
11688TIP3    H156479   4.839   3.078   1.232 -0.5889  0.1986 -1.1172
11688TIP3    H256480   4.737   2.987   1.297 -0.7880  0.5787 -0.8901
11689TIP3   OH256481   6.080   6.625   6.224 -0.4239  0.1412  0.0379
11689TIP3    H156482   6.128   6.707   6.211 -1.8807  1.3168  1.6658
11689TIP3    H256483   6.023   6.619   6.147 -0.9257  1.1196  0.3247
11690TIP3   OH256484   1.540   6.353   4.269 -0.1484  0.1145  0.1340
11690TIP3    H156485   1.634   6.343   4.284 -0.2445  0.9530  1.5311
11690TIP3    H256486   1.533   6.424   4.205  0.1917 -1.3475 -1.6058
11691TIP3   OH256487   0.608   1.774   2.973  0.0142  0.2169 -0.4134
11691TIP3    H156488   0.695   1.811   2.964 -0.0899  0.8008  0.8000
11691TIP3    H256489   0.548   1.846   2.954 -0.2605 -0.5202 -2.6389
11692TIP3   OH256490   6.546   4.976  16.427  0.2019  0.3452 -0.3479
11692TIP3    H156491   6.489   4.901  16.449  1.1453 -0.7040 -1.3581
11692TIP3    H256492   6.579   4.956  16.340 -0.3316  2.4910 -1.0961
11693TIP3   OH256493   4.027   1.243  11.566  0.3745 -0.1505 -0.1873
11693TIP3    H156494   4.031   1.203  11.479 -2.5064 -1.5428  0.1843
11693TIP3    H256495   3.986   1.328  11.553 -1.3337 -0.9207 -0.1255
11694TIP3   OH256496   5.110   3.985  14.219  0.5771 -0.1715  0.0901
11694TIP3    H156497   5.186   3.981  14.162  0.9999 -0.8171  0.6865
11694TIP3    H256498   5.095   4.079  14.233  1.0633 -0.0362 -0.2798
11695TIP3   OH256499   3.651   1.049   2.822 -0.0076 -0.2129  0.3099
11695TIP3    H156500   3.717   0.998   2.869  0.0012 -1.2055 -0.7384
11695TIP3    H256501   3.568   1.024   2.863 -0.1104 -1.8275 -0.7746
11696TIP3   OH256502   3.392   2.452   0.093  0.1293  0.3469 -0.3018
11696TIP3    H156503   3.462   2.479   0.152 -0.1527  1.8796 -0.6320
11696TIP3    H256504   3.389   2.520   0.026 -0.9503 -0.2677 -0.9107
11697TIP3   OH256505   0.284   4.819  16.549  0.0338  0.2401 -0.0218
11697TIP3    H156506   0.289   4.752  16.617  0.4169  0.8300  0.5420
11697TIP3    H256507   0.264   4.900  16.596  0.5623  0.7082 -0.5732
11698TIP3   OH256508   4.056   2.077   6.077 -0.5404 -0.3515  0.0971
11698TIP3    H156509   3.991   2.128   6.126  0.4146  3.0828 -1.8941
11698TIP3    H256510   4.135   2.079   6.132 -0.5141  0.3731  0.0444
11699TIP3   OH256511   0.600   4.179  14.161  0.3299  0.9209  0.2070
11699TIP3    H156512   0.602   4.258  14.108 -1.7813 -0.3966 -2.0129
11699TIP3    H256513   0.606   4.107  14.099 -0.3355 -0.7073  1.9137
11700TIP3   OH256514   1.356   2.230  11.023  0.0696  0.0358 -0.2725
11700TIP3    H156515   1.304   2.281  11.084  1.3838  0.2166  0.7416
11700TIP3    H256516   1.293   2.197  10.959 -1.1193  1.0588  0.3365
11701TIP3   OH256517   3.669   0.189   3.405 -0.6809 -0.5286 -0.3984
11701TIP3    H156518   3.725   0.255   3.364 -0.1402 -0.5277  0.3307
11701TIP3    H256519   3.731   0.128   3.447 -1.0880 -2.1758 -2.0377
11702TIP3   OH256520   3.769   2.649   3.280  0.0134  0.4579 -0.1329
11702TIP3    H156521   3.830   2.679   3.348 -0.6875  0.6633  0.4128
11702TIP3    H256522   3.811   2.673   3.197  1.6156 -1.1454  0.1442
11703TIP3   OH256523   3.099   4.822  14.281  0.0148  0.3921 -0.0641
11703TIP3    H156524   3.176   4.767  14.270  0.0495  0.5853 -0.8482
11703TIP3    H256525   3.125   4.887  14.346  0.8695  1.0756 -1.0548
11704TIP3   OH256526   5.522   0.164   1.521 -0.3153 -0.4468 -0.3057
11704TIP3    H156527   5.611   0.146   1.493 -0.1187 -0.9721  0.6108
11704TIP3    H256528   5.504   0.098   1.588 -0.3943  1.3545  1.5361
11705TIP3   OH256529   1.567   0.434  14.129 -0.2153  0.1989  0.2429
11705TIP3    H156530   1.536   0.347  14.106  0.1464  0.4529 -1.3655
11705TIP3    H256531   1.488   0.489  14.128 -0.6062 -0.2695  2.2894
11706TIP3   OH256532   0.017   4.735  11.209 -0.2477  0.2098  0.0022
11706TIP3    H156533   0.005   4.819  11.253 -1.7562 -0.8862  1.7976
11706TIP3    H256534  -0.049   4.735  11.140 -0.4071  0.3844  0.1534
11707TIP3   OH256535   4.255   6.738  14.712 -0.3195  0.1684  0.7401
11707TIP3    H156536   4.267   6.767  14.802 -0.2054 -1.6564  1.3554
11707TIP3    H256537   4.340   6.752  14.671 -0.0615  0.0417  1.2230
11708TIP3   OH256538   4.889   6.753   3.075 -0.1073  0.3361  0.3676
11708TIP3    H156539   4.882   6.848   3.086 -1.8912  0.2885 -0.1325
11708TIP3    H256540   4.827   6.732   3.005  2.5267 -0.8240 -1.8045
11709TIP3   OH256541   5.790   6.576  15.399  0.3766  0.0412 -0.2933
11709TIP3    H156542   5.748   6.496  15.430  0.2554  0.1435 -0.1934
11709TIP3    H256543   5.882   6.565  15.423  0.5836 -0.5840 -1.3357
11710TIP3   OH256544   1.615   0.593  12.474  0.1507  0.2234  0.3096
11710TIP3    H156545   1.527   0.559  12.463  0.5012 -1.5409  2.3903
11710TIP3    H256546   1.671   0.515  12.474  1.2997  0.9747  2.5398
11711TIP3   OH256547   1.479   4.675   0.825  0.2037 -0.4088  0.4121
11711TIP3    H156548   1.517   4.684   0.737 -0.5057  0.9270  0.2070
11711TIP3    H256549   1.400   4.622   0.810 -0.5520  0.7823  0.0111
11712TIP3   OH256550   0.826   4.285  12.963 -0.3364  0.0271 -0.1327
11712TIP3    H156551   0.907   4.335  12.968  0.4275 -1.2048  0.0707
11712TIP3    H256552   0.784   4.315  12.882  0.6874  0.1211 -0.6380
11713TIP3   OH256553   1.628   5.521   1.558 -0.1372 -0.0930  0.4066
11713TIP3    H156554   1.688   5.581   1.513  0.0448 -0.3826  0.2580
11713TIP3    H256555   1.565   5.495   1.492  0.4942 -1.0014  0.1374
11714TIP3   OH256556   4.434   1.405  13.737  0.6631 -0.2862 -0.1925
11714TIP3    H156557   4.441   1.361  13.821  2.3846 -0.2147 -0.2708
11714TIP3    H256558   4.520   1.444  13.722 -0.4934  2.3350 -0.5689
11715TIP3   OH256559   0.259   1.812  14.710 -0.6088 -0.3854 -0.6778
11715TIP3    H156560   0.164   1.805  14.713 -0.6297  0.2591  0.5165
11715TIP3    H256561   0.287   1.806  14.801  0.3754  1.0705 -0.8482
11716TIP3   OH256562   1.387   6.697  13.063 -0.4948  0.3371  0.6163
11716TIP3    H156563   1.374   6.603  13.072 -2.7592  0.5555  0.0857
11716TIP3    H256564   1.368   6.716  12.971 -3.1631  1.6810  1.3407
11717TIP3   OH256565   5.782   5.628   0.845 -0.4141 -1.1183  0.2170
11717TIP3    H156566   5.739   5.573   0.910 -0.8272 -0.4055  0.5587
11717TIP3    H256567   5.716   5.639   0.776 -0.9739  0.3115  0.9305
11718TIP3   OH256568   0.007   2.313   3.808 -0.3343  0.4469 -0.2792
11718TIP3    H156569   0.102   2.316   3.820 -0.3907  1.5890  0.0003
11718TIP3    H256570  -0.005   2.279   3.720  0.4069  2.0267 -1.0279
11719TIP3   OH256571   3.288   1.600  15.146 -0.5525 -0.1693 -0.0160
11719TIP3    H156572   3.263   1.687  15.175  2.6125  1.1242 -0.8071
11719TIP3    H256573   3.237   1.585  15.066 -1.5570  0.6678  0.4513
11720TIP3   OH256574   3.113   6.342   2.042  0.3339  0.5340 -0.1689
11720TIP3    H156575   3.131   6.283   2.116  1.1786  1.5175  0.4329
11720TIP3    H256576   3.020   6.331   2.024  0.0304  0.5706  1.3019
11721TIP3   OH256577   5.577   5.851  11.020  0.5084 -0.0940  0.0321
11721TIP3    H156578   5.616   5.767  11.046 -0.6839 -0.5303  0.4805
11721TIP3    H256579   5.555   5.839  10.928  1.2460  0.0976 -0.1794
11722TIP3   OH256580   3.647   1.195  15.542  0.0393  0.0653 -0.3236
11722TIP3    H156581   3.687   1.258  15.483 -0.7581 -0.3486 -1.3316
11722TIP3    H256582   3.584   1.246  15.593 -0.7395  0.0797 -1.2657
11723TIP3   OH256583   2.931   5.109  14.517  0.6805  0.0936  0.3800
11723TIP3    H156584   2.894   5.071  14.438  2.8537 -1.1093 -0.1435
11723TIP3    H256585   2.855   5.141  14.566 -0.8929 -1.0867 -1.1537
11724TIP3   OH256586   0.876   1.008   4.681 -0.0789  1.2404 -0.1494
11724TIP3    H156587   0.941   1.020   4.612  1.0294 -0.1871  0.6139
11724TIP3    H256588   0.828   0.929   4.657  0.0904  0.9203  0.5314
11725TIP3   OH256589   3.035   2.092   0.257 -0.4248  0.4493 -0.0309
11725TIP3    H156590   2.994   2.172   0.224  1.4711  1.7384  0.5432
11725TIP3    H256591   3.021   2.027   0.188  0.8618  2.2365 -2.1083
11726TIP3   OH256592   0.743   1.914  11.805  0.3072  0.3316 -0.4818
11726TIP3    H156593   0.695   1.985  11.762 -0.7634 -0.5786 -0.8204
11726TIP3    H256594   0.801   1.959  11.867 -0.3556  1.5004 -0.6760
11727TIP3   OH256595   0.165   4.329  12.118 -0.0761  0.1309 -0.3329
11727TIP3    H156596   0.249   4.330  12.164  0.0805  1.9489 -0.6006
11727TIP3    H256597   0.117   4.256  12.158  0.9978  0.1108  0.9841
11728TIP3   OH256598   3.536   6.314   0.372  0.0399  0.5684 -0.1692
11728TIP3    H156599   3.468   6.380   0.389  0.2084  0.7752 -0.2864
11728TIP3    H256600   3.589   6.314   0.452 -0.2982  0.1604  0.0577
11729TIP3   OH256601   3.551   6.709  11.456 -0.2746  0.0364 -0.2994
11729TIP3    H156602   3.575   6.776  11.392 -0.8003  1.8176  1.2615
11729TIP3    H256603   3.552   6.755  11.540 -1.1530 -1.8096  0.7875
11730TIP3   OH256604   6.262   0.427   1.292  0.2825  0.4954  0.2329
11730TIP3    H156605   6.207   0.387   1.224  0.9796  0.2559 -0.1996
11730TIP3    H256606   6.307   0.498   1.248 -1.6602  2.4793  1.2138
11731TIP3   OH256607   1.667   0.120   2.445  0.0614  0.3511  0.3408
11731TIP3    H156608   1.593   0.078   2.401 -0.1060 -0.6001  1.4754
11731TIP3    H256609   1.656   0.095   2.537  1.7528  0.2646  0.5362
11732TIP3   OH256610   5.381   2.046   1.983 -0.3867 -0.0183 -0.2877
11732TIP3    H156611   5.321   2.098   1.930 -2.4650 -1.9595  0.0037
11732TIP3    H256612   5.407   1.974   1.926 -0.2780 -0.5095  0.3725
11733TIP3   OH256613   4.936   0.576   1.500  0.4266  0.4953  0.1536
11733TIP3    H156614   4.845   0.586   1.527  0.3798 -1.1992  0.7092
11733TIP3    H256615   4.987   0.596   1.578  0.3460 -2.5611  1.1286
11734TIP3   OH256616   5.588   0.533   5.092  0.5784 -0.1051 -0.6554
11734TIP3    H156617   5.600   0.440   5.108  0.9322  0.0170 -0.1574
11734TIP3    H256618   5.574   0.571   5.179  0.7920  0.3502 -0.8146
11735TIP3   OH256619   4.598   4.995   4.130 -0.0445  0.0179  0.3753
11735TIP3    H156620   4.682   4.990   4.084  0.7394 -1.1486  1.8620
11735TIP3    H256621   4.537   4.949   4.072  0.5244  0.1286 -0.3309
11736TIP3   OH256622   5.689   1.567   2.402 -0.0838  0.0952  0.0147
11736TIP3    H156623   5.697   1.556   2.497 -1.4264 -3.1396 -0.1333
11736TIP3    H256624   5.609   1.618   2.391  0.3954  1.0011  0.6060
11737TIP3   OH256625   0.089   3.371   0.410 -0.1242  0.1239 -0.4074
11737TIP3    H156626   0.159   3.393   0.471  0.0875 -0.5138 -0.4083
11737TIP3    H256627   0.122   3.294   0.363 -1.4422 -1.1937  0.6994
11738TIP3   OH256628   0.507   6.747  14.349  0.1842 -0.0627 -0.8261
11738TIP3    H156629   0.480   6.731  14.259 -1.8601 -0.0848 -0.2673
11738TIP3    H256630   0.565   6.674  14.370  1.3717  0.4036 -2.3647
11739TIP3   OH256631   2.704   6.539   4.520  0.0718  0.7776 -0.0475
11739TIP3    H156632   2.640   6.486   4.566 -0.4815  1.6089  0.1683
11739TIP3    H256633   2.783   6.534   4.574  0.1546 -0.1372 -0.2439
11740TIP3   OH256634   0.222   0.464  12.618 -0.3517  0.2242 -0.0060
11740TIP3    H156635   0.191   0.388  12.569 -0.3893  1.0796 -1.3478
11740TIP3    H256636   0.266   0.519  12.553 -0.5711  1.4886  0.8719
11741TIP3   OH256637   0.224   0.337   2.688 -0.5930  0.1664 -0.1087
11741TIP3    H156638   0.196   0.426   2.665  1.2452  1.2422  1.4280
11741TIP3    H256639   0.197   0.327   2.780  2.0635  0.5172  0.8154
11742TIP3   OH256640   3.589   1.618   1.893  0.2642  0.0071  0.2045
11742TIP3    H156641   3.499   1.646   1.910  0.0049 -0.9656  0.5021
11742TIP3    H256642   3.642   1.670   1.954 -0.1191  0.4373  0.1709
11743TIP3   OH256643   4.592   1.117   3.236  0.1346  0.1068  0.0433
11743TIP3    H156644   4.687   1.126   3.232  0.2452 -0.3486  1.3261
11743TIP3    H256645   4.574   1.087   3.325 -1.0904 -1.3369 -0.6443
11744TIP3   OH256646   2.666   0.251  12.372  0.1858 -0.3236 -0.2314
11744TIP3    H156647   2.756   0.275  12.392  0.0620  0.6235 -0.7204
11744TIP3    H256648   2.618   0.334  12.377 -0.4525 -0.6315 -1.0121
11745TIP3   OH256649   4.216   0.175  16.196 -0.0453  0.1627  0.6014
11745TIP3    H156650   4.150   0.119  16.155 -0.3980 -0.2228  1.6545
11745TIP3    H256651   4.288   0.179  16.132  1.2595 -3.8208  1.5448
11746TIP3   OH256652   3.355   4.371   1.300 -0.0991  0.5946  0.7868
11746TIP3    H156653   3.435   4.323   1.280 -0.3914  0.8408 -1.1956
11746TIP3    H256654   3.327   4.337   1.385  1.6801 -0.0460  1.1548
11747TIP3   OH256655   0.029   1.779   5.736  0.3059 -0.6025  0.1395
11747TIP3    H156656   0.101   1.800   5.676  0.2981 -1.1056 -0.0472
11747TIP3    H256657   0.063   1.802   5.823 -0.2330  1.6226 -0.1710
11748TIP3   OH256658   2.217   2.724  11.460  0.5503  0.1001  0.3142
11748TIP3    H156659   2.253   2.668  11.391 -1.9053 -0.4955 -0.5928
11748TIP3    H256660   2.261   2.694  11.540  1.7446 -0.8073 -0.6439
11749TIP3   OH256661   2.190   3.767   1.829  0.3714 -0.2488  0.1870
11749TIP3    H156662   2.277   3.743   1.861 -0.1932 -2.2222  0.3814
11749TIP3    H256663   2.195   3.757   1.734  0.2868 -0.6410  0.2223
11750TIP3   OH256664   6.399   1.498   5.118  0.1126 -0.1474  0.2864
11750TIP3    H156665   6.435   1.424   5.069  0.4819  0.0186  0.3090
11750TIP3    H256666   6.309   1.471   5.139  0.1488 -0.4648  0.0359
11751TIP3   OH256667   4.845   1.087  15.048  0.3365  0.4719 -0.1851
11751TIP3    H156668   4.775   1.103  15.111  0.8113 -0.1428  0.5137
11751TIP3    H256669   4.799   1.071  14.965 -0.5499 -2.2853  0.7344
11752TIP3   OH256670   2.003   6.460  10.921 -0.2546  0.3888  0.0547
11752TIP3    H156671   1.927   6.402  10.914 -0.3087  0.6057 -1.6666
11752TIP3    H256672   2.078   6.404  10.904 -0.3341  0.8213 -2.0075
11753TIP3   OH256673   5.448   0.432  15.043  0.1175 -0.3314 -0.2967
11753TIP3    H156674   5.390   0.357  15.031  0.4061 -0.9006  1.4778
11753TIP3    H256675   5.534   0.392  15.061  0.8927  0.4792 -1.9982
11754TIP3   OH256676   5.850   1.664   1.115 -0.2417 -0.6128 -0.1197
11754TIP3    H156677   5.905   1.724   1.166 -0.4637  0.9910 -1.6787
11754TIP3    H256678   5.779   1.640   1.174 -0.8120  1.6428  0.1782
11755TIP3   OH256679   0.880   2.125  15.578 -0.4759  0.4934 -0.3215
11755TIP3    H156680   0.971   2.097  15.566 -0.5869 -0.7919  1.5565
11755TIP3    H256681   0.838   2.052  15.623 -2.3500  1.2651 -0.7371
11756TIP3   OH256682   3.795   1.145  14.645 -0.5935  0.1073 -0.1856
11756TIP3    H156683   3.734   1.218  14.639 -0.6957 -0.0737 -1.7388
11756TIP3    H256684   3.762   1.091  14.717 -0.1202  1.9113  1.4520
11757TIP3   OH256685   2.420   6.267  15.034 -0.4728 -0.0190 -0.3516
11757TIP3    H156686   2.496   6.295  15.085 -0.4776 -0.0988 -0.3005
11757TIP3    H256687   2.357   6.238  15.100  0.5556 -2.8221 -0.4621
11758TIP3   OH256688   5.751   6.633  13.306 -0.0606  0.0662 -0.3080
11758TIP3    H156689   5.715   6.602  13.389  1.5308 -2.7131 -0.5352
11758TIP3    H256690   5.675   6.645  13.250 -0.9394 -1.6854  0.4284
11759TIP3   OH256691   6.257   1.322   1.341  0.0858  0.3114 -0.4389
11759TIP3    H156692   6.210   1.405   1.334 -0.2486  0.0411 -1.5053
11759TIP3    H256693   6.250   1.299   1.434 -0.8467  0.8689 -0.3592
11760TIP3   OH256694   1.661   4.258   3.093  0.3648  0.1962  0.2785
11760TIP3    H156695   1.702   4.192   3.150  2.7078  0.0595 -1.3971
11760TIP3    H256696   1.700   4.341   3.120 -0.9622  0.6243  0.9594
11761TIP3   OH256697   2.876   2.961   5.094  0.3717 -0.1402  0.2552
11761TIP3    H156698   2.822   3.017   5.150 -0.4911  0.5350 -1.2019
11761TIP3    H256699   2.966   2.990   5.109 -0.0172  1.2924 -0.0967
11762TIP3   OH256700   1.799   2.060  11.904  0.2256  0.3205  0.3588
11762TIP3    H156701   1.705   2.041  11.907  0.5779 -1.5501  0.6667
11762TIP3    H256702   1.831   2.039  11.992  0.8731  1.3315  0.3774
11763TIP3   OH256703   3.207   4.872  13.038  0.0749 -0.4968 -0.1233
11763TIP3    H156704   3.171   4.845  13.122  1.4920 -1.4351  0.2273
11763TIP3    H256705   3.200   4.793  12.983 -1.0765  0.1808 -0.9852
11764TIP3   OH256706   1.394   5.911   1.717  0.7961  0.6514  0.8218
11764TIP3    H156707   1.352   5.945   1.795  1.7360  0.1479  1.5721
11764TIP3    H256708   1.401   5.817   1.733 -0.0347  0.3545 -0.3797
11765TIP3   OH256709   5.071   3.665  11.843  0.4609  0.0092  0.2455
11765TIP3    H156710   5.064   3.730  11.773 -2.3100 -0.6947 -0.2403
11765TIP3    H256711   5.122   3.593  11.804  1.6448  0.9155  0.0594
11766TIP3   OH256712   4.669   0.592  15.657 -0.0588 -0.3001  0.3858
11766TIP3    H156713   4.732   0.578  15.727 -1.0457 -0.5815  1.2525
11766TIP3    H256714   4.654   0.504  15.621  1.7081  0.0537 -1.3544
11767TIP3   OH256715   6.459   1.765   1.218 -0.3821  0.4816  0.3189
11767TIP3    H156716   6.544   1.759   1.262 -0.5200 -0.3932  0.4864
11767TIP3    H256717   6.425   1.676   1.219 -1.0139  0.7060 -0.3331
11768TIP3   OH256718   1.657   1.678   2.530 -0.0712 -0.1423 -0.5104
11768TIP3    H156719   1.618   1.621   2.464  0.7036 -0.1494 -0.9723
11768TIP3    H256720   1.588   1.743   2.549 -1.1531 -1.4917  0.3887
11769TIP3   OH256721   5.753   5.208   2.833  0.5036  0.2273 -0.4939
11769TIP3    H156722   5.765   5.113   2.841 -1.4776 -0.1765 -1.4876
11769TIP3    H256723   5.764   5.241   2.921  2.4174 -0.7468 -0.3180
11770TIP3   OH256724   0.655   3.190  13.278  0.0920 -0.1982 -0.0049
11770TIP3    H156725   0.692   3.180  13.365  1.1889 -0.0014 -0.4353
11770TIP3    H256726   0.679   3.278  13.252 -0.8047 -0.0168 -0.2528
11771TIP3   OH256727   0.895   5.713  15.135  0.1305  0.5278  0.3432
11771TIP3    H156728   0.946   5.636  15.161  1.2339  0.3517 -2.0620
11771TIP3    H256729   0.815   5.676  15.097 -0.0942  0.6411  0.7073
11772TIP3   OH256730   1.075   3.776   6.280  0.2196 -0.2149  0.0504
11772TIP3    H156731   0.989   3.785   6.320  0.1902 -1.4012  0.3071
11772TIP3    H256732   1.082   3.682   6.260  0.9956  0.0471 -1.0001
11773TIP3   OH256733   4.027   6.428   4.765 -0.1577 -0.0938  0.2795
11773TIP3    H156734   4.111   6.394   4.794  0.6329  2.1958  0.9110
11773TIP3    H256735   4.050   6.501   4.707 -1.7334 -0.4441 -0.8444
11774TIP3   OH256736   1.773   3.036  12.314 -0.0932 -0.4063 -0.3502
11774TIP3    H156737   1.746   3.128  12.314  0.5446 -0.2066 -1.5557
11774TIP3    H256738   1.868   3.039  12.322  0.0690 -0.8938 -1.8496
11775TIP3   OH256739   6.442   3.866  16.344  0.1657  0.3130  0.1851
11775TIP3    H156740   6.423   3.811  16.268  1.9523 -0.8444  0.5181
11775TIP3    H256741   6.359   3.911  16.362 -1.0382 -1.3593 -0.8364
11776TIP3   OH256742   5.325   3.097   2.256  0.6007  0.3694  0.2607
11776TIP3    H156743   5.290   3.019   2.298  2.4372 -1.4934 -1.4432
11776TIP3    H256744   5.266   3.113   2.183  0.9102 -0.1928 -0.1175
11777TIP3   OH256745   6.427   1.003  16.212  0.4646  0.9305 -0.3001
11777TIP3    H156746   6.449   0.945  16.139  0.0956  1.5334 -0.8965
11777TIP3    H256747   6.338   0.977  16.237  1.0531 -0.1308  0.7812
11778TIP3   OH256748   4.627   5.530  14.754 -0.3537  0.4155 -0.7003
11778TIP3    H156749   4.678   5.520  14.674 -0.3118  2.8259 -1.0561
11778TIP3    H256750   4.669   5.603  14.800 -1.6119  0.4138  0.5244
11779TIP3   OH256751   0.215   6.696   1.855 -0.4219  0.8166 -0.2432
11779TIP3    H156752   0.157   6.664   1.925  0.2589  1.7579  0.7895
11779TIP3    H256753   0.156   6.710   1.781 -0.8311 -2.3358 -0.6673
11780TIP3   OH256754   6.037   3.994   3.838  0.2028  0.3363 -0.2600
11780TIP3    H156755   6.100   3.946   3.893  1.8891 -0.2358 -2.5382
11780TIP3    H256756   5.959   4.003   3.893  2.0018  0.4646  2.4649
11781TIP3   OH256757   1.660   3.970  11.513  0.3078 -0.5567  0.0957
11781TIP3    H156758   1.745   3.984  11.472 -0.1505  1.0432 -0.4239
11781TIP3    H256759   1.645   4.049  11.565 -0.8703 -0.7774  0.1350
11782TIP3   OH256760   6.056   6.673  12.995 -0.0545  0.2090 -0.0762
11782TIP3    H156761   6.145   6.639  12.984  0.2861  0.6914  1.0192
11782TIP3    H256762   6.069   6.765  13.021 -0.8765  0.3168 -0.0219
11783TIP3   OH256763   2.587   4.024   6.463 -0.1656  0.0078  0.1144
11783TIP3    H156764   2.494   4.035   6.439 -0.3046  0.4258  0.8057
11783TIP3    H256765   2.631   4.009   6.380 -0.8521 -0.1585 -0.2322
11784TIP3   OH256766   0.974   1.237  11.172 -0.0576 -0.5091 -0.2363
11784TIP3    H156767   1.055   1.235  11.122  1.1371  1.1811  1.4756
11784TIP3    H256768   0.950   1.145  11.185  0.1117 -1.0009 -2.9578
11785TIP3   OH256769   0.460   2.503  11.689 -0.5328 -0.4460  0.0323
11785TIP3    H156770   0.482   2.455  11.609 -3.8016  0.6323 -1.6886
11785TIP3    H256771   0.393   2.450  11.731 -1.1245  0.5182  0.3435
11786TIP3   OH256772   5.199   6.200   1.558 -0.1810  0.0937  0.0476
11786TIP3    H156773   5.111   6.200   1.596 -1.5351 -0.4811 -2.8590
11786TIP3    H256774   5.209   6.112   1.521  2.0328 -0.1583  1.0999
11787TIP3   OH256775   6.161   6.499  13.519  0.6045 -0.1035 -0.4907
11787TIP3    H156776   6.190   6.476  13.607 -0.7209 -0.4764 -0.1297
11787TIP3    H256777   6.242   6.512  13.470  1.4321  2.0056  1.2409
11788TIP3   OH256778   5.832   3.781  16.273 -0.3121  0.2612 -0.5583
11788TIP3    H156779   5.921   3.801  16.301 -1.3397  1.0021  2.4304
11788TIP3    H256780   5.822   3.830  16.191  1.8978  0.3355 -0.8685
11789TIP3   OH256781   6.569   6.102  13.147 -0.2925  0.4131 -0.3436
11789TIP3    H156782   6.627   6.047  13.094 -2.5476 -2.4827 -0.1151
11789TIP3    H256783   6.523   6.156  13.084  0.8232  0.8992 -0.7615
11790TIP3   OH256784   1.313   4.834  12.522 -0.6755 -0.5496 -0.1585
11790TIP3    H156785   1.379   4.881  12.573  0.1702 -1.1212 -0.6798
11790TIP3    H256786   1.274   4.900  12.466  1.2271 -0.5776 -1.6378
11791TIP3   OH256787   3.378   5.263  13.788 -0.3876 -0.3738  0.3372
11791TIP3    H156788   3.379   5.321  13.712  0.7217 -0.5205  0.2203
11791TIP3    H256789   3.429   5.186  13.761  2.8077  0.8945  2.1914
11792TIP3   OH256790   2.663   6.451   0.954  0.1137  0.2391  0.2534
11792TIP3    H156791   2.713   6.528   0.927 -0.5598  0.3718 -0.6710
11792TIP3    H256792   2.593   6.487   1.010 -1.4348  0.6122 -1.7915
11793TIP3   OH256793   6.677   4.318   0.172 -0.4136  0.1530  0.0070
11793TIP3    H156794   6.630   4.369   0.238 -1.2993 -1.1662  0.4282
11793TIP3    H256795   6.634   4.340   0.090 -1.0656 -0.2210  0.2447
11794TIP3   OH256796   2.293   0.643   3.580  0.3893  0.2616  0.1215
11794TIP3    H156797   2.291   0.548   3.569 -0.6339  0.2643  0.1284
11794TIP3    H256798   2.300   0.657   3.674  0.9653  0.1929  0.0872
11795TIP3   OH256799   5.851   6.116  12.130  0.4712 -0.2452  0.3291
11795TIP3    H156800   5.882   6.186  12.072  3.2528 -0.7633  1.0526
11795TIP3    H256801   5.778   6.076  12.083  0.2099  1.7318 -1.0719
11796TIP3   OH256802   1.969   2.068  13.900 -0.0944 -0.9839  0.9340
11796TIP3    H156803   1.961   2.065  13.996 -0.2940  1.3831  1.0324
11796TIP3    H256804   2.063   2.062  13.884 -0.0615 -1.4425  1.2451
11797TIP3   OH256805   4.606   1.973   5.397 -0.0716 -0.2019 -0.0552
11797TIP3    H156806   4.693   1.995   5.429  0.2455  0.4088 -1.3101
11797TIP3    H256807   4.547   2.025   5.452  0.5455  2.0010 -1.3814
11798TIP3   OH256808   5.018   3.406  17.131  0.1047 -0.6251 -0.1384
11798TIP3    H156809   4.980   3.333  17.180  1.5159 -1.6966 -0.5621
11798TIP3    H256810   4.977   3.400  17.044  0.1366 -0.8649 -0.1403
11799TIP3   OH256811   2.877   6.517   1.829  0.8901 -0.2381  0.0224
11799TIP3    H156812   2.923   6.600   1.826 -0.1824  0.4943  2.1638
11799TIP3    H256813   2.785   6.540   1.821  0.6487 -1.3668 -0.7529
11800TIP3   OH256814   1.522   1.249   4.216  0.2225 -0.2074  0.0195
11800TIP3    H156815   1.437   1.211   4.192  0.4326  1.0355 -3.1675
11800TIP3    H256816   1.504   1.341   4.231  0.4488 -0.5807  3.4656
11801TIP3   OH256817   3.963   0.054  16.849 -0.1738  0.5346 -1.0328
11801TIP3    H156818   4.056   0.047  16.827 -0.2746  0.8673 -1.5794
11801TIP3    H256819   3.926  -0.031  16.824  0.7787 -1.5267  3.4461
11802TIP3   OH256820   5.633   5.858   3.496  0.2941  0.3657  0.0154
11802TIP3    H156821   5.562   5.911   3.461 -0.7439 -0.3575  0.9243
11802TIP3    H256822   5.686   5.834   3.420 -1.3583 -0.4220 -0.9320
11803TIP3   OH256823   0.964   6.103   3.710 -0.1245  0.2967 -0.6217
11803TIP3    H156824   0.890   6.157   3.682  0.1374  0.4682 -0.9921
11803TIP3    H256825   1.037   6.133   3.657  0.1288 -0.1229 -0.5175
11804TIP3   OH256826   3.415   2.762   6.397  0.2597 -0.1582  0.4895
11804TIP3    H156827   3.369   2.707   6.333  1.2029  0.0085 -0.3531
11804TIP3    H256828   3.346   2.792   6.456 -0.1108 -3.5485  2.0251
11805TIP3   OH256829   1.444   5.943  12.694  0.3152 -0.0930  0.1175
11805TIP3    H156830   1.372   5.884  12.718  0.1459  0.3415  0.7065
11805TIP3    H256831   1.457   5.928  12.601  0.0029 -0.7694  0.1746
11806TIP3   OH256832   6.766   1.788  13.933  0.4035 -0.3637  0.1655
11806TIP3    H156833   6.853   1.756  13.909  1.2713  1.5951  0.4740
11806TIP3    H256834   6.779   1.829  14.018 -0.2376  2.0518 -0.8289
11807TIP3   OH256835   0.843   5.119   4.154 -0.4607 -0.3446 -0.0263
11807TIP3    H156836   0.917   5.139   4.211  0.9430 -1.2446 -1.4684
11807TIP3    H256837   0.773   5.178   4.184  0.8913  0.6813  1.2271
11808TIP3   OH256838   0.774   2.386   5.265 -0.0426 -0.1476 -0.5533
11808TIP3    H156839   0.759   2.447   5.337  4.5269  0.7081 -0.0256
11808TIP3    H256840   0.769   2.299   5.305  1.5292  0.2862  0.6848
11809TIP3   OH256841   3.831   2.166   5.162 -0.8819  0.0452 -0.2222
11809TIP3    H156842   3.754   2.190   5.214 -1.1228  0.5097 -0.7712
11809TIP3    H256843   3.848   2.243   5.108 -0.3415 -0.2466 -0.4808
11810TIP3   OH256844   5.156   4.902   4.337  0.0993 -0.3626  1.0496
11810TIP3    H156845   5.124   4.853   4.261  0.4050  1.4919 -0.3476
11810TIP3    H256846   5.241   4.864   4.357 -1.2341 -2.8708  2.4579
11811TIP3   OH256847   0.972   4.965  16.262  0.0476  0.0968  0.0806
11811TIP3    H156848   0.892   5.002  16.299 -0.1599 -1.0509  0.8294
11811TIP3    H256849   0.940   4.903  16.196  0.2857 -0.6228  0.6253
11812TIP3   OH256850   5.106   2.923   0.374  0.5475  0.3251 -0.1618
11812TIP3    H156851   5.085   2.902   0.283 -0.3823 -0.9914  0.3132
11812TIP3    H256852   5.030   2.891   0.423  1.9744 -0.9848  1.2784
11813TIP3   OH256853   4.958   3.327  11.132 -0.4007 -0.2226 -0.6489
11813TIP3    H156854   5.040   3.321  11.082 -0.2286  0.0483 -0.4011
11813TIP3    H256855   4.907   3.394  11.088  0.0474  0.5323 -0.0510
11814TIP3   OH256856   2.510   2.354  15.474  0.1879 -0.6274  0.5960
11814TIP3    H156857   2.494   2.316  15.387  0.8980 -0.9392  0.5916
11814TIP3    H256858   2.508   2.280  15.534 -2.7895 -0.1368  1.2445
11815TIP3   OH256859   5.467   0.226  16.191 -0.2079 -0.2066 -0.3133
11815TIP3    H156860   5.412   0.254  16.117 -0.2218  0.8152  0.0655
11815TIP3    H256861   5.468   0.301  16.250  1.8531 -0.0482 -0.4606
11816TIP3   OH256862   1.016   2.624   1.470  0.2090 -0.0483  0.1302
11816TIP3    H156863   0.971   2.549   1.432  0.7688 -0.7255  0.7539
11816TIP3    H256864   1.107   2.615   1.441  0.3623  0.1738  0.5290
11817TIP3   OH256865   3.161   0.933   4.968 -0.4114  0.5174  0.0826
11817TIP3    H156866   3.167   0.975   5.054 -2.2287  0.3386  0.3344
11817TIP3    H256867   3.246   0.949   4.928  0.2359  1.2045  1.6359
11818TIP3   OH256868   5.374   5.217   6.038  0.2557  0.0900  0.0313
11818TIP3    H156869   5.462   5.190   6.010  0.9877  0.7956  1.5034
11818TIP3    H256870   5.390   5.271   6.115 -1.3517  2.3502 -1.1410
11819TIP3   OH256871   1.455   5.815   4.361 -0.3346 -0.7458 -0.1090
11819TIP3    H156872   1.488   5.872   4.431  0.4176  0.1777 -1.1876
11819TIP3    H256873   1.374   5.857   4.331 -0.4540 -0.9367 -0.0599
11820TIP3   OH256874   3.460   3.894  12.698  0.0789 -0.2777  0.1352
11820TIP3    H156875   3.371   3.929  12.706 -0.1183 -0.4090 -1.2562
11820TIP3    H256876   3.459   3.845  12.615  1.4225 -0.3596  0.1506
11821TIP3   OH256877   2.249   2.208  13.323  0.0954 -0.1244 -0.3493
11821TIP3    H156878   2.295   2.128  13.350 -1.0933 -0.6216  0.2619
11821TIP3    H256879   2.314   2.257  13.272  0.5890 -1.8846 -1.5095
11822TIP3   OH256880   2.348   2.584   1.902  0.0010 -0.1022 -0.1907
11822TIP3    H156881   2.267   2.561   1.946 -1.2329 -2.2278 -3.2852
11822TIP3    H256882   2.360   2.677   1.922 -2.1244 -0.1835  1.8940
11823TIP3   OH256883   5.698   5.667  11.241  0.4018  0.0638  0.0464
11823TIP3    H156884   5.713   5.709  11.326  1.9524 -0.3525  0.0112
11823TIP3    H256885   5.762   5.595  11.239 -0.7338 -0.9475 -0.7987
11824TIP3   OH256886   3.859   2.652   0.862 -0.0833 -0.4530  0.0523
11824TIP3    H156887   3.857   2.592   0.787 -0.2813 -1.6000  0.9442
11824TIP3    H256888   3.891   2.598   0.935  1.2996  0.9552  0.5422
11825TIP3   OH256889   6.753   5.920  17.108 -0.1344 -0.0273 -0.5797
11825TIP3    H156890   6.689   5.901  17.178 -0.4514  3.7616  0.3626
11825TIP3    H256891   6.763   5.837  17.062 -1.9359 -2.0518  2.3311
11826TIP3   OH256892   5.509   3.349   5.694 -0.6546 -0.2313  0.3876
11826TIP3    H156893   5.509   3.444   5.682 -0.8217 -0.1589  0.9403
11826TIP3    H256894   5.594   3.321   5.662 -1.2303 -0.1126 -1.3858
11827TIP3   OH256895   6.209   5.178   4.659  0.1665 -0.2170  0.3654
11827TIP3    H156896   6.247   5.241   4.720 -2.3101 -0.5780  2.4653
11827TIP3    H256897   6.118   5.205   4.650  0.3433 -0.3122 -3.1615
11828TIP3   OH256898   0.464   3.342  11.921  0.5112  0.0306  0.0938
11828TIP3    H156899   0.430   3.295  11.996  1.4829  0.0584  0.5668
11828TIP3    H256900   0.387   3.360  11.866  0.0950 -1.8903 -0.0023
11829TIP3   OH256901   5.448   1.309  16.864  0.5027  0.6478  0.3304
11829TIP3    H156902   5.363   1.303  16.819  1.8232 -0.4024 -2.2361
11829TIP3    H256903   5.450   1.233  16.921  0.7752 -1.0352 -1.7731
11830TIP3   OH256904   0.559   0.595   2.184  0.5032 -0.2465 -0.1393
11830TIP3    H156905   0.505   0.540   2.127 -3.3674 -1.1263  3.7890
11830TIP3    H256906   0.528   0.684   2.167 -0.2641 -0.4452  0.1744
11831TIP3   OH256907   3.924   2.569   4.977 -0.0097  0.5095 -0.6819
11831TIP3    H156908   3.939   2.475   4.982  1.1500  0.7144  0.1132
11831TIP3    H256909   3.834   2.578   4.946 -0.0989 -0.8541 -0.8581
11832TIP3   OH256910   5.909   5.416   6.332 -0.3956 -0.2049 -0.4030
11832TIP3    H156911   5.817   5.421   6.308 -0.0106  0.3992 -1.8883
11832TIP3    H256912   5.909   5.401   6.427 -2.0047  0.2509 -0.3056
11833TIP3   OH256913   2.656   2.682  16.637 -0.3430  0.1121  0.1326
11833TIP3    H156914   2.733   2.628  16.655  0.9929  1.7058 -0.4858
11833TIP3    H256915   2.632   2.719  16.722  1.4190  1.8658 -0.0627
11834TIP3   OH256916   1.845   3.287   4.005  0.3041 -0.2604  0.2161
11834TIP3    H156917   1.776   3.347   3.976  0.1599 -0.3510  0.3780
11834TIP3    H256918   1.824   3.266   4.096  0.8788  0.1947  0.4649
11835TIP3   OH256919   4.599   4.319  16.653  0.2463 -0.0814  0.0737
11835TIP3    H156920   4.557   4.295  16.736  1.1452 -0.9939  0.2834
11835TIP3    H256921   4.692   4.325  16.674  0.3071  1.3896 -0.5101
11836TIP3   OH256922   3.430   0.951  16.398  0.3125 -0.0992 -0.9255
11836TIP3    H156923   3.471   0.869  16.428 -0.2424 -0.9880 -2.4701
11836TIP3    H256924   3.375   0.924  16.325 -1.3821  1.3948 -0.2672
11837TIP3   OH256925   0.037   1.153  12.230  0.2114 -0.5554 -0.2055
11837TIP3    H156926   0.104   1.222  12.239  0.2563 -0.3793 -1.6513
11837TIP3    H256927   0.038   1.108  12.314 -1.1436  2.3795  1.5792
11838TIP3   OH256928   4.086   6.646   4.271  0.3007 -0.4256  0.2568
11838TIP3    H156929   4.160   6.645   4.210  1.3177 -1.1909  1.4457
11838TIP3    H256930   4.009   6.651   4.214  1.2505  0.7380 -1.0109
11839TIP3   OH256931   1.899   4.624   4.743 -0.5015  0.4025 -0.1502
11839TIP3    H156932   1.850   4.557   4.790  0.0590  1.6101  2.2885
11839TIP3    H256933   1.848   4.638   4.663 -1.3741 -1.8913 -0.0839
11840TIP3   OH256934   4.213   6.745  10.895  0.2981 -0.5161  0.3664
11840TIP3    H156935   4.134   6.705  10.931 -0.4183  0.5271  0.0157
11840TIP3    H256936   4.245   6.802  10.965 -0.8099  1.1243 -0.4003
11841TIP3   OH256937   6.202   0.246   2.140 -0.1617  0.0036 -0.2072
11841TIP3    H156938   6.181   0.298   2.062 -0.3948  0.9270  0.4423
11841TIP3    H256939   6.122   0.250   2.193 -0.1221 -0.9030 -0.0719
11842TIP3   OH256940   3.007   6.283   4.851  0.5053  0.6776  0.5837
11842TIP3    H156941   3.100   6.286   4.830  0.3104 -0.8344 -0.7409
11842TIP3    H256942   3.000   6.221   4.923  0.6067  1.6006  1.4073
11843TIP3   OH256943   5.303   4.111  15.052 -0.2117 -0.2327 -0.7508
11843TIP3    H156944   5.371   4.045  15.062  0.0182  0.0586 -0.3514
11843TIP3    H256945   5.307   4.162  15.133  0.2777  0.8881 -1.4443
11844TIP3   OH256946   1.137   0.213   2.550  0.7823 -0.0907  0.5707
11844TIP3    H156947   1.194   0.261   2.489  2.3220 -1.1637  1.0930
11844TIP3    H256948   1.049   0.245   2.531  1.1370 -0.5654 -2.4135
11845TIP3   OH256949   1.052   3.954  11.245 -0.0260  0.0465  0.4182
11845TIP3    H156950   1.123   3.983  11.188 -0.4964  0.3700 -0.0176
11845TIP3    H256951   1.046   3.859  11.230 -1.7303  0.4395 -1.9658
11846TIP3   OH256952   0.335   0.024   5.989  0.0474 -0.1475  0.0158
11846TIP3    H156953   0.309   0.048   6.078  0.0789 -0.4323  0.1005
11846TIP3    H256954   0.383   0.100   5.957 -0.4168  0.1668  0.0542
11847TIP3   OH256955   6.198   4.528   2.470 -0.0842 -0.5050  0.3883
11847TIP3    H156956   6.163   4.585   2.539  0.1731 -0.6746  0.6632
11847TIP3    H256957   6.148   4.447   2.480 -1.7767  0.2721 -1.2009
11848TIP3   OH256958   5.358   6.687   4.348  0.4158 -0.0852 -1.1963
11848TIP3    H156959   5.385   6.691   4.439  0.0707 -0.7580 -1.0571
11848TIP3    H256960   5.383   6.772   4.311  0.5152  0.2045 -0.4681
11849TIP3   OH256961   0.062   2.132   0.470 -0.1764  0.3385  0.0903
11849TIP3    H156962   0.032   2.206   0.522 -1.1386 -0.8051  1.2343
11849TIP3    H256963   0.143   2.163   0.429 -1.5579  2.6778 -1.0785
11850TIP3   OH256964   1.456   3.702  13.096  0.1937 -0.0073 -0.1160
11850TIP3    H156965   1.514   3.746  13.158 -1.4951 -0.4999  1.8945
11850TIP3    H256966   1.512   3.687  13.019  2.5584  0.0703  1.4650
11851TIP3   OH256967   1.799   5.115   4.553  0.6276  0.0834 -0.0292
11851TIP3    H156968   1.811   5.166   4.473  1.2492  0.4260  0.2719
11851TIP3    H256969   1.887   5.105   4.589  0.4239 -0.5541  0.3183
11852TIP3   OH256970   1.441   6.223  17.196  0.7006 -0.0589  0.0313
11852TIP3    H156971   1.388   6.302  17.189  0.4780 -0.3038 -1.2727
11852TIP3    H256972   1.478   6.227  17.284  1.1461  1.7903 -0.1856
11853TIP3   OH256973   2.063   4.209  16.151 -0.8254 -0.5116  0.5525
11853TIP3    H156974   2.126   4.138  16.158  0.7640  0.7538 -0.2111
11853TIP3    H256975   2.070   4.239  16.061 -1.0246  0.9783  1.0024
11854TIP3   OH256976   5.062   5.667  14.715 -0.0655  0.4617  0.1048
11854TIP3    H156977   5.101   5.606  14.777  0.0371  1.6858  1.2978
11854TIP3    H256978   5.136   5.704  14.668 -0.2087 -1.3078 -1.6354
11855TIP3   OH256979   3.493   3.414   1.810 -0.4008 -0.4140  0.2783
11855TIP3    H156980   3.473   3.507   1.816 -2.0664 -0.4337 -2.7416
11855TIP3    H256981   3.570   3.409   1.753 -1.2135 -0.8857 -0.8153
11856TIP3   OH256982   1.306   0.289  17.081 -0.3756 -0.2586 -0.1816
11856TIP3    H156983   1.336   0.379  17.077 -0.4204 -0.1954  0.8570
11856TIP3    H256984   1.250   0.279  17.004 -0.5485  0.6568 -0.1794
11857TIP3   OH256985   4.941   1.051  12.664 -0.0922  0.3538  0.3154
11857TIP3    H156986   5.021   1.065  12.614  1.3818 -1.0589  2.1172
11857TIP3    H256987   4.890   1.130  12.651  2.1359  1.8298  0.0431
11858TIP3   OH256988   1.357   5.310  15.206  0.3983 -0.1302 -0.3710
11858TIP3    H156989   1.338   5.344  15.293  1.3761  0.4785 -0.3679
11858TIP3    H256990   1.431   5.363  15.176  1.2909 -1.5670 -0.8180
11859TIP3   OH256991   6.398   0.646  11.512 -0.5228  0.2936 -0.1559
11859TIP3    H156992   6.468   0.671  11.451 -1.5203  2.2433 -0.5815
11859TIP3    H256993   6.318   0.683  11.474 -1.1624  1.7458  2.3576
11860TIP3   OH256994   3.324   2.238  13.368 -0.2665 -0.2126 -0.0604
11860TIP3    H156995   3.339   2.196  13.284 -1.5732  0.7550 -0.8118
11860TIP3    H256996   3.296   2.327  13.346 -0.3411  0.1603  1.4067
11861TIP3   OH256997   4.901   0.454  11.027  0.1241  0.0941  0.0468
11861TIP3    H156998   4.974   0.392  11.034  0.0334 -0.4934 -3.0145
11861TIP3    H256999   4.831   0.404  10.987 -0.7647  1.5923 -0.3491
11862TIP3   OH257000   3.537   4.539  16.187 -0.3635 -0.4150 -0.4361
11862TIP3    H157001   3.599   4.598  16.229  0.1120  0.5034 -2.3051
11862TIP3    H257002   3.560   4.452  16.219  0.3493  0.1704  0.6904
11863TIP3   OH257003   5.571   3.491  11.546 -0.4164  0.3423 -0.3243
11863TIP3    H157004   5.491   3.545  11.549  0.9009  2.4365 -0.7920
11863TIP3    H257005   5.621   3.518  11.624 -0.7807 -2.0712  0.8259
11864TIP3   OH257006   1.694   4.265   0.094  0.1143 -0.0021  0.0406
11864TIP3    H157007   1.773   4.216   0.072 -0.1098 -0.2321 -0.2554
11864TIP3    H257008   1.713   4.305   0.180  0.3377 -0.5178  0.2321
11865TIP3   OH257009   0.364   0.931  10.912 -0.0392 -0.2665 -0.3789
11865TIP3    H157010   0.404   0.846  10.895  1.0433 -0.0838  1.0382
11865TIP3    H257011   0.382   0.982  10.834  0.8374 -0.8137 -0.5499
11866TIP3   OH257012   2.337   4.237   1.090  0.0398 -0.0040 -0.6307
11866TIP3    H157013   2.373   4.317   1.128 -1.2794 -0.0806  0.8548
11866TIP3    H257014   2.249   4.229   1.127  1.1016 -3.6298  1.6516
11867TIP3   OH257015   6.596   5.970  10.875  0.6364 -0.2342 -0.0341
11867TIP3    H157016   6.571   6.049  10.826  2.1864  0.4625  0.2502
11867TIP3    H257017   6.516   5.918  10.878 -0.1193  0.7846 -1.2534
11868TIP3   OH257018   3.047   1.660   3.152  0.1477 -0.1737 -0.5492
11868TIP3    H157019   3.010   1.617   3.230  0.3680  1.3018  0.4133
11868TIP3    H257020   3.001   1.620   3.079  0.3091 -1.9966  0.2863
11869TIP3   OH257021   0.837   4.418   2.311 -0.2535 -0.2503 -0.2081
11869TIP3    H157022   0.793   4.339   2.279  0.9233 -0.9160 -0.2547
11869TIP3    H257023   0.912   4.385   2.360  0.2360  0.8412 -0.1962
11870TIP3   OH257024   5.709   5.872  12.378  0.7808  0.6003  0.0938
11870TIP3    H157025   5.692   5.962  12.350  0.1333  0.4936  0.1330
11870TIP3    H257026   5.740   5.881  12.468 -1.0897  0.6802  0.7819
11871TIP3   OH257027   1.240   2.855   6.453 -0.1124 -0.3306  0.2922
11871TIP3    H157028   1.327   2.825   6.479  0.5064  1.9374  1.0094
11871TIP3    H257029   1.180   2.807   6.512  0.7876 -0.4764  1.1110
11872TIP3   OH257030   4.496   4.026   3.481  0.9538 -1.0251  0.9291
11872TIP3    H157031   4.489   4.035   3.576  0.0054 -2.2778  1.0077
11872TIP3    H257032   4.506   3.932   3.466  0.5763 -0.9048 -0.2297
11873TIP3   OH257033   5.955   4.963  14.577 -0.3153 -0.5735 -0.5075
11873TIP3    H157034   6.034   4.991  14.532 -0.4138 -0.8541 -0.8621
11873TIP3    H257035   5.959   4.868  14.577 -0.1353 -0.5807  0.4156
11874TIP3   OH257036   2.135   3.230  16.621  0.4242  0.2532  0.2251
11874TIP3    H157037   2.157   3.306  16.675  0.6850  0.2586  0.1119
11874TIP3    H257038   2.129   3.264  16.532  1.9784 -0.0962 -0.0510
11875TIP3   OH257039   6.353   3.343  15.531 -0.3520 -0.0216 -0.2342
11875TIP3    H157040   6.384   3.270  15.585 -1.9044 -0.5526 -0.0159
11875TIP3    H257041   6.384   3.421  15.576  2.6867 -0.4893 -1.2766
11876TIP3   OH257042   1.235   2.124   1.742  0.3011 -0.0831 -0.5037
11876TIP3    H157043   1.165   2.117   1.808  1.0934  0.4585  0.4109
11876TIP3    H257044   1.203   2.190   1.680 -1.5877 -2.3427 -2.1550
11877TIP3   OH257045   2.522   1.726   5.002  0.9397 -0.0741  0.2056
11877TIP3    H157046   2.441   1.777   5.002  0.6129 -0.5776  0.5925
11877TIP3    H257047   2.529   1.691   5.091  0.6745 -1.4202 -0.2653
11878TIP3   OH257048   4.053   6.132  12.871 -0.1392 -0.1727  0.3316
11878TIP3    H157049   4.032   6.224  12.888 -1.5795 -0.7669  2.0304
11878TIP3    H257050   4.110   6.106  12.943 -0.3524 -0.8008  0.2846
11879TIP3   OH257051   6.714   1.462   2.762 -0.0624  0.0884  0.2537
11879TIP3    H157052   6.639   1.505   2.720  1.0183  1.4944 -0.3410
11879TIP3    H257053   6.698   1.471   2.856 -2.1363 -2.4085  0.2154
11880TIP3   OH257054   0.885   3.011   5.675 -0.4853 -0.1207  0.9139
11880TIP3    H157055   0.863   3.011   5.768  0.9696 -1.5958  1.3147
11880TIP3    H257056   0.864   2.923   5.645 -2.7016  0.8734 -0.6687
11881TIP3   OH257057   3.369   0.620  11.395  0.6015 -0.2433 -0.5542
11881TIP3    H157058   3.442   0.560  11.382  0.9588 -0.2330  1.1676
11881TIP3    H257059   3.381   0.687  11.328  1.1148 -1.2196 -1.4599
11882TIP3   OH257060   3.031   2.464   3.933  0.1607 -0.0870  0.0646
11882TIP3    H157061   3.124   2.482   3.949  0.0927  0.4516 -0.1277
11882TIP3    H257062   2.984   2.518   3.996 -0.0771  1.3989 -1.3089
11883TIP3   OH257063   4.375   6.475  14.735 -0.2070 -0.5904  0.1820
11883TIP3    H157064   4.357   6.426  14.815 -2.9485 -0.9036 -0.5101
11883TIP3    H257065   4.307   6.543  14.733  0.4639  0.0913 -1.3545
11884TIP3   OH257066   2.774   5.209  11.817 -0.5406  0.4277 -0.4851
11884TIP3    H157067   2.775   5.158  11.898  0.4486  1.3499  0.0956
11884TIP3    H257068   2.865   5.209  11.787 -0.0551  3.6015  0.6714
11885TIP3   OH257069   0.607   1.914  12.624  0.4301 -0.0945  0.0191
11885TIP3    H157070   0.516   1.923  12.652  0.3088 -0.6275 -0.1822
11885TIP3    H257071   0.655   1.894  12.704  0.7327  2.2730  0.5101
11886TIP3   OH257072   2.561   4.397  12.737 -0.2852  0.7106 -0.0430
11886TIP3    H157073   2.501   4.368  12.668  1.6297 -2.8738 -0.4144
11886TIP3    H257074   2.637   4.431  12.691  0.6699 -0.9662  0.2013
11887TIP3   OH257075   0.584   6.288   0.799  0.1451  0.1809  0.1688
11887TIP3    H157076   0.678   6.287   0.784  0.2672  0.1761  0.9102
11887TIP3    H257077   0.555   6.200   0.776  0.6393 -0.4534  1.8389
11888TIP3   OH257078   3.367   0.598  11.774 -0.3444  0.1989  0.0549
11888TIP3    H157079   3.322   0.677  11.802 -1.3136  0.0263 -0.9140
11888TIP3    H257080   3.422   0.626  11.700 -0.8193 -0.0408 -0.4002
11889TIP3   OH257081   5.176   5.289  12.143 -0.0270  0.3588  0.0549
11889TIP3    H157082   5.191   5.369  12.193  1.0735 -0.1923  0.6465
11889TIP3    H257083   5.227   5.222  12.188  0.5769 -0.2811 -1.4930
11890TIP3   OH257084   2.897   5.570  14.182  0.0361  0.0381 -0.4333
11890TIP3    H157085   2.969   5.588  14.122  0.9421  0.1853  0.6790
11890TIP3    H257086   2.891   5.648  14.237 -0.3971 -0.3344  0.0589
11891TIP3   OH257087   6.285   0.943  11.876 -0.3685  0.0801 -0.2136
11891TIP3    H157088   6.373   0.925  11.909  0.0783  2.0542 -0.2405
11891TIP3    H257089   6.296   0.960  11.783 -0.3681  2.6019  0.1770
11892TIP3   OH257090   4.873   2.178   4.004 -0.1560 -0.2258 -0.2567
11892TIP3    H157091   4.912   2.114   3.945 -3.7364 -0.1690 -3.0435
11892TIP3    H257092   4.792   2.137   4.035 -2.2949  2.5165 -1.6847
11893TIP3   OH257093   0.784   1.344   1.264 -0.3408  0.2235 -0.0804
11893TIP3    H157094   0.817   1.302   1.184  1.4206  0.7424  0.3399
11893TIP3    H257095   0.698   1.379   1.238 -0.4123 -0.7898 -1.3454
11894TIP3   OH257096   1.811   5.534   4.217 -0.8030  0.3244  0.3851
11894TIP3    H157097   1.898   5.560   4.246 -1.6861  1.6401  2.0868
11894TIP3    H257098   1.755   5.608   4.240 -2.3497 -0.3985 -0.8444
11895TIP3   OH257099   3.793   2.481  15.306  0.3872  0.8021 -0.0823
11895TIP3    H157100   3.740   2.454  15.231 -0.6943  5.0854 -1.1604
11895TIP3    H257101   3.769   2.420  15.375 -1.0910 -1.3359 -2.2899
11896TIP3   OH257102   5.780   2.482   6.116 -0.2868  0.0725  0.3526
11896TIP3    H157103   5.810   2.400   6.156  0.8352  0.6908  0.8457
11896TIP3    H257104   5.859   2.537   6.113 -0.7715  0.7243 -1.0182
11897TIP3   OH257105   0.047   4.097  11.968 -0.6592 -0.0426  0.0426
11897TIP3    H157106  -0.001   4.147  12.034  0.5516  1.7313 -0.3566
11897TIP3    H257107   0.054   4.156  11.893 -0.2053 -1.2579 -0.9034
11898TIP3   OH257108   6.540   0.350  13.766  0.3552 -0.2155 -0.1719
11898TIP3    H157109   6.472   0.364  13.700  0.2791 -0.6436 -0.1891
11898TIP3    H257110   6.618   0.327  13.715 -0.4124 -3.5157 -0.0646
11899TIP3   OH257111   0.527   0.919   6.160 -0.3463  0.0382  0.5097
11899TIP3    H157112   0.463   0.985   6.187 -1.3809 -0.5177 -0.4670
11899TIP3    H257113   0.543   0.939   6.067 -0.7027 -1.0724  0.1906
11900TIP3   OH257114   1.364   4.219   2.391 -0.2331  0.2925 -0.2679
11900TIP3    H157115   1.375   4.173   2.308 -0.9452  2.0264 -1.3648
11900TIP3    H257116   1.321   4.155   2.448 -0.4746 -0.6667 -1.4809
11901TIP3   OH257117   4.611   3.257   4.071  0.2498 -0.2727 -0.1744
11901TIP3    H157118   4.594   3.263   4.165 -0.7303  0.2614 -0.3767
11901TIP3    H257119   4.633   3.347   4.045  0.5692 -0.4280 -0.4552
11902TIP3   OH257120   0.546   4.791   5.166  0.0288 -0.7868 -0.3213
11902TIP3    H157121   0.519   4.715   5.115 -1.4934 -0.8082  0.4751
11902TIP3    H257122   0.492   4.863   5.133 -0.7623 -0.7386  1.0375
11903TIP3   OH257123   0.105   0.115   0.750 -0.5100  0.4427 -0.6635
11903TIP3    H157124   0.156   0.034   0.757 -1.3099 -0.1262 -1.1729
11903TIP3    H257125   0.142   0.173   0.816  1.5058  0.4644 -1.7119
11904TIP3   OH257126   0.451   2.668   4.211 -0.0224 -0.0449 -0.4382
11904TIP3    H157127   0.395   2.602   4.169 -0.9234 -0.0293  0.7015
11904TIP3    H257128   0.412   2.752   4.187  0.0900  0.0060 -0.4435
11905TIP3   OH257129   3.570   2.706   2.763  0.0676  0.1751  0.4211
11905TIP3    H157130   3.615   2.729   2.681  0.9733 -0.5331  0.6992
11905TIP3    H257131   3.477   2.716   2.744  0.2414 -0.5638 -0.8742
11906TIP3   OH257132   5.435   5.960  13.262  0.6158 -0.1705  0.8232
11906TIP3    H157133   5.444   5.919  13.348 -1.9199  1.0989  1.7761
11906TIP3    H257134   5.372   5.904  13.216  2.0849 -0.9455 -0.3686
11907TIP3   OH257135   2.040   5.430   1.320 -0.1590  0.4790 -0.2039
11907TIP3    H157136   1.983   5.361   1.286  0.2609 -0.3738  0.7739
11907TIP3    H257137   2.125   5.387   1.332 -0.1700  0.8622  1.4509
11908TIP3   OH257138   4.353   5.730   1.464  0.6201 -0.4446  0.2644
11908TIP3    H157139   4.296   5.806   1.453  0.5852 -0.6869 -1.6280
11908TIP3    H257140   4.348   5.684   1.380  1.5352 -1.9220  0.9698
11909TIP3   OH257141   3.821   2.197  16.904  0.3272  0.2012 -0.5216
11909TIP3    H157142   3.891   2.254  16.871  0.0055  0.2216 -1.1904
11909TIP3    H257143   3.819   2.213  16.998  1.9034 -0.5300 -0.3205
11910TIP3   OH257144   3.754   5.492   1.731  0.5795 -0.3343  0.0692
11910TIP3    H157145   3.703   5.573   1.726 -0.6928 -1.1548 -0.9224
11910TIP3    H257146   3.690   5.425   1.752  1.7324 -1.0132  1.6164
11911TIP3   OH257147   5.608   2.153  13.991  0.5643  0.2669 -0.0407
11911TIP3    H157148   5.598   2.067  14.033 -0.9312  0.9348  1.0302
11911TIP3    H257149   5.647   2.208  14.059  2.2225  0.2910 -0.9574
11912TIP3   OH257150   5.759   4.812  13.753  0.3440 -0.1249  0.2476
11912TIP3    H157151   5.827   4.802  13.819  1.9133  0.8161 -1.1540
11912TIP3    H257152   5.719   4.897  13.773  0.1670 -0.2755  0.5411
11913TIP3   OH257153   3.676   2.629   1.360  0.3523 -0.1495 -0.0214
11913TIP3    H157154   3.752   2.685   1.379 -0.2908  0.2826  1.3384
11913TIP3    H257155   3.632   2.673   1.287  1.6295 -0.6383 -1.1249
11914TIP3   OH257156   4.848   5.461   3.846  0.1955 -0.2229 -0.0299
11914TIP3    H157157   4.935   5.487   3.875 -0.0328 -1.2647  1.7162
11914TIP3    H257158   4.801   5.543   3.835  1.2110  0.3282 -0.4463
11915TIP3   OH257159   6.482   0.323  12.453  0.3636  0.4226  0.3777
11915TIP3    H157160   6.475   0.234  12.489  0.1289  1.1969  2.3994
11915TIP3    H257161   6.466   0.380  12.528 -1.8563  2.2193 -1.3109
11916TIP3   OH257162   6.190   2.385  14.411 -0.0828  0.1327  0.7813
11916TIP3    H157163   6.232   2.299  14.403 -2.5119 -1.0050 -1.2236
11916TIP3    H257164   6.202   2.408  14.503  2.7925 -1.1296  0.8368
11917TIP3   OH257165   0.908   0.159  12.411  0.3516 -0.1446 -0.7561
11917TIP3    H157166   0.949   0.240  12.382  1.2676  0.7131  2.5159
11917TIP3    H257167   0.814   0.177  12.407  0.5498  1.2440  0.2347
11918TIP3   OH257168   1.777   1.221  10.774 -0.1726 -0.2535 -0.1860
11918TIP3    H157169   1.697   1.272  10.755 -0.2598  0.0326  0.8962
11918TIP3    H257170   1.745   1.133  10.792 -0.5277  0.3478  2.4991
11919TIP3   OH257171   6.399   3.501   2.146  0.2803  0.5025 -0.8127
11919TIP3    H157172   6.329   3.557   2.111 -2.1413 -0.9180  1.3597
11919TIP3    H257173   6.473   3.560   2.159 -1.6717  2.9371  0.0193
11920TIP3   OH257174   1.810   0.372  16.612  0.4720  0.3435 -0.1071
11920TIP3    H157175   1.803   0.451  16.667  0.9690 -0.5776  1.3331
11920TIP3    H257176   1.883   0.390  16.553  0.3353  1.1132 -0.0513
11921TIP3   OH257177   2.648   6.368  15.140 -0.2443  0.6880  0.1831
11921TIP3    H157178   2.689   6.445  15.100 -0.1145  0.5581  0.0627
11921TIP3    H257179   2.721   6.315  15.170 -0.3470  1.4829  1.9578
11922TIP3   OH257180   3.688   1.492   3.780  0.5187  0.6765  0.0507
11922TIP3    H157181   3.646   1.530   3.858 -0.4058 -0.0619 -0.0674
11922TIP3    H257182   3.692   1.565   3.718  1.6701  1.3910  0.9188
11923TIP3   OH257183   0.254   2.027   4.949 -0.6089 -0.3271 -0.2867
11923TIP3    H157184   0.243   2.034   5.044 -1.0757 -1.0061 -0.2833
11923TIP3    H257185   0.276   2.115   4.921  0.8969 -0.3727  0.6269
11924TIP3   OH257186   6.505   0.443   4.099  0.1071 -0.3096  0.3082
11924TIP3    H157187   6.423   0.452   4.148  1.2132  1.1872  2.0308
11924TIP3    H257188   6.536   0.355   4.119 -0.2433 -0.2715  1.0422
11925TIP3   OH257189   4.987   1.652   4.729  0.3613 -0.1692  0.2564
11925TIP3    H157190   5.022   1.710   4.661  0.7710 -1.4046 -0.6148
11925TIP3    H257191   4.898   1.631   4.699  0.2851 -0.1555  0.4703
11926TIP3   OH257192   0.089   1.909   3.905 -0.5689 -0.2833  0.4281
11926TIP3    H157193   0.047   1.987   3.942  1.5697  1.0674  0.1448
11926TIP3    H257194   0.115   1.856   3.981  0.1969  0.5158  0.7366
11927TIP3   OH257195   4.433   0.130   3.640  0.3900  0.6049 -1.1673
11927TIP3    H157196   4.480   0.199   3.593  1.2481  0.8899  0.0795
11927TIP3    H257197   4.349   0.170   3.663  0.9235  1.2936 -0.3563
11928TIP3   OH257198   3.848   2.069  13.638  0.3286  0.2861  0.1615
11928TIP3    H157199   3.857   1.998  13.702 -1.3898 -0.9532 -0.8731
11928TIP3    H257200   3.846   2.149  13.691  1.1087 -0.5247  1.4671
11929TIP3   OH257201   3.156   3.329   3.584 -0.8135  0.3753  0.2287
11929TIP3    H157202   3.088   3.367   3.639 -2.5976 -0.5842 -1.1841
11929TIP3    H257203   3.113   3.313   3.500  0.7510 -1.6412 -0.2759
11930TIP3   OH257204   0.677   2.331  17.035 -0.4129 -0.1278  0.1712
11930TIP3    H157205   0.687   2.293  17.122 -0.3639 -1.7836 -0.5239
11930TIP3    H257206   0.584   2.347  17.026 -0.2028  2.1317  1.3248
11931TIP3   OH257207   1.842   4.162  11.057  0.3065  0.3657 -0.2588
11931TIP3    H157208   1.890   4.121  10.985 -0.4271 -0.2150 -0.4376
11931TIP3    H257209   1.770   4.101  11.075 -1.6078  2.1470 -1.4198
11932TIP3   OH257210   3.485   1.162   3.289  0.7319 -0.2302  0.1078
11932TIP3    H157211   3.501   1.069   3.278 -0.9318 -0.6152  0.6498
11932TIP3    H257212   3.432   1.186   3.213  1.4604  0.3829 -0.2264
11933TIP3   OH257213   4.309   3.875  13.444 -0.4407  0.2184 -0.0139
11933TIP3    H157214   4.328   3.903  13.355  1.1310 -0.1654  0.1680
11933TIP3    H257215   4.283   3.783  13.436  4.2326 -1.3857  0.2154
11934TIP3   OH257216   2.731   3.381   2.739 -0.6445 -0.7333  0.7201
11934TIP3    H157217   2.656   3.378   2.798 -1.1951  0.8126  0.1454
11934TIP3    H257218   2.694   3.407   2.654  0.6617  1.6346  0.7727
11935TIP3   OH257219   3.059   3.445  12.230 -0.1846 -0.2443 -0.0559
11935TIP3    H157220   3.055   3.504  12.305 -2.3805 -0.6914  0.2459
11935TIP3    H257221   3.073   3.358  12.269 -0.9110 -0.4237 -0.1909
11936TIP3   OH257222   5.419   1.888  15.623  0.1449  0.4688  0.0527
11936TIP3    H157223   5.398   1.933  15.705  0.3562  2.1601 -0.7659
11936TIP3    H257224   5.388   1.948  15.554 -0.6241 -1.2062 -1.1155
11937TIP3   OH257225   4.172   5.119  14.754 -0.8410 -0.5568 -0.6508
11937TIP3    H157226   4.135   5.166  14.829  0.3056 -0.1497 -0.3049
11937TIP3    H257227   4.219   5.046  14.793 -0.2956 -0.3814 -0.9677
11938TIP3   OH257228   5.824   5.476  17.087 -0.1778  0.2696 -0.2999
11938TIP3    H157229   5.826   5.415  17.014 -0.9130  0.9916 -0.9353
11938TIP3    H257230   5.734   5.473  17.119  0.1479 -0.0949  0.6370
11939TIP3   OH257231   3.193   3.064   1.630  0.0976  0.0498  0.2211
11939TIP3    H157232   3.131   3.124   1.671  0.2435  0.1783  0.2516
11939TIP3    H257233   3.269   3.117   1.610  0.3264 -0.1819  0.4798
11940TIP3   OH257234   1.693   4.528   2.935 -0.1243  0.3913  0.0938
11940TIP3    H157235   1.719   4.607   2.888 -0.1233 -0.2336 -0.9871
11940TIP3    H257236   1.768   4.468   2.926 -0.5049 -0.0884  0.0584
11941TIP3   OH257237   0.928   5.320   6.163  0.2048  0.3208 -0.0597
11941TIP3    H157238   0.948   5.336   6.071 -0.7325  1.7544 -0.0381
11941TIP3    H257239   0.971   5.391   6.210  0.3230 -0.1637  0.5819
11942TIP3   OH257240   5.511   3.521  16.521 -0.4728  0.2062 -0.5290
11942TIP3    H157241   5.516   3.428  16.501  1.3940  0.4637 -1.5538
11942TIP3    H257242   5.451   3.528  16.594 -2.6053 -1.5374 -2.0049
11943TIP3   OH257243   4.280   0.003   2.818 -0.1195 -0.5991  0.2540
11943TIP3    H157244   4.222  -0.034   2.752  0.0205 -0.7898  0.2386
11943TIP3    H257245   4.345   0.053   2.768  1.2814 -2.4689  0.0752
11944TIP3   OH257246   4.763   0.115  13.655 -0.3031  0.1917  0.2238
11944TIP3    H157247   4.798   0.063  13.728 -1.2502  0.9963  1.2881
11944TIP3    H257248   4.713   0.184  13.697 -1.6401  0.1504 -1.2123
11945TIP3   OH257249   1.044   3.825  12.749  0.3682  0.5185 -0.0056
11945TIP3    H157250   1.006   3.799  12.665 -1.5387 -0.9698  1.2443
11945TIP3    H257251   0.992   3.901  12.776  0.4314  0.4959  0.1814
11946TIP3   OH257252   4.275   2.819  14.665  0.4264 -0.4144 -0.5212
11946TIP3    H157253   4.224   2.757  14.717  0.6971 -0.3162 -0.1385
11946TIP3    H257254   4.213   2.852  14.599 -0.7042  1.5499  1.4212
11947TIP3   OH257255   2.776   1.542   4.432 -0.3313  0.4284  0.0706
11947TIP3    H157256   2.759   1.526   4.525  1.4012  0.8166  0.4808
11947TIP3    H257257   2.759   1.635   4.420 -1.9199  0.1159 -0.3529
11948TIP3   OH257258   0.561   4.130  15.474  0.1816  0.1815  0.2244
11948TIP3    H157259   0.603   4.214  15.489  1.4617 -0.5504  0.8991
11948TIP3    H257260   0.592   4.074  15.546  1.0116 -1.4635 -1.3096
11949TIP3   OH257261   0.877   6.083   5.259  0.1285 -0.0774 -0.1981
11949TIP3    H157262   0.891   6.130   5.177  2.7607 -2.0762 -1.0496
11949TIP3    H257263   0.959   6.095   5.307 -1.2081  0.6750  2.0038
11950TIP3   OH257264   1.407   1.166  16.056  0.3027 -0.3124 -0.1209
11950TIP3    H157265   1.345   1.109  16.101 -0.5181  0.4423 -0.2747
11950TIP3    H257266   1.397   1.251  16.099  0.1583  0.1855 -1.1260
11951TIP3   OH257267   6.303   1.571  15.488 -0.1888 -0.1183 -0.4507
11951TIP3    H157268   6.351   1.558  15.569 -0.8659 -0.9952 -0.1701
11951TIP3    H257269   6.346   1.645  15.445 -0.9840  1.5843  1.5597
11952TIP3   OH257270   3.004   0.950   5.908  0.0525  0.0345  0.1991
11952TIP3    H157271   2.932   0.894   5.934 -0.6514 -1.1358 -3.6002
11952TIP3    H257272   3.077   0.890   5.892  0.7610  0.7844  0.5210
11953TIP3   OH257273   2.819   0.008   5.869  0.9700  0.0234 -0.5095
11953TIP3    H157274   2.786  -0.012   5.957  1.3889  0.7496 -0.1792
11953TIP3    H257275   2.763   0.080   5.838  1.4389  0.4201 -0.4446
11954TIP3   OH257276   6.033   1.023   4.355  0.0413 -0.1685 -0.1550
11954TIP3    H157277   5.984   1.085   4.409  0.1117  2.0251 -2.4340
11954TIP3    H257278   6.125   1.040   4.376  0.0369  0.0938 -0.3426
11955TIP3   OH257279   4.244   3.171  12.106  0.6026  0.0740 -0.3005
11955TIP3    H157280   4.248   3.165  12.202 -0.3376 -1.1463 -0.3150
11955TIP3    H257281   4.163   3.126  12.083  1.7822 -1.3795 -1.8207
11956TIP3   OH257282   4.987   5.863   2.394 -0.2527  0.4648  0.3200
11956TIP3    H157283   4.970   5.861   2.489 -1.3464  2.1315  0.1813
11956TIP3    H257284   5.051   5.933   2.383  3.5045 -2.6025  0.2591
11957TIP3   OH257285   2.361   4.996   3.242  0.5834  0.4246 -0.0405
11957TIP3    H157286   2.320   5.065   3.294 -0.4198 -0.3015  0.1620
11957TIP3    H257287   2.299   4.980   3.171  0.1320 -1.2165  0.6900
11958TIP3   OH257288   4.326   5.430  16.363  0.0978 -0.4443 -0.1434
11958TIP3    H157289   4.355   5.521  16.351 -0.4056 -0.4312 -1.3755
11958TIP3    H257290   4.347   5.387  16.280 -0.4879 -1.2297  0.1036
11959TIP3   OH257291   5.356   2.958  11.553 -0.1008  0.6223 -0.4911
11959TIP3    H157292   5.362   2.924  11.463  1.1366  2.2088 -1.0520
11959TIP3    H257293   5.434   3.012  11.563 -0.7633  1.3153  1.1973
11960TIP3   OH257294   5.718   2.821   5.513  0.7953  0.5544 -0.0805
11960TIP3    H157295   5.679   2.870   5.441 -0.7184  0.0050  0.3163
11960TIP3    H257296   5.644   2.799   5.570  1.8605  0.4075  1.3037
11961TIP3   OH257297   6.481   1.618   0.168 -0.6707  0.2352  0.0188
11961TIP3    H157298   6.404   1.675   0.160 -1.4260 -0.5614  1.1752
11961TIP3    H257299   6.521   1.643   0.251 -1.7350 -1.6763  1.1924
11962TIP3   OH257300   3.513   2.734   4.549 -0.3419 -0.4282  0.0912
11962TIP3    H157301   3.437   2.703   4.597  0.3367 -2.7683 -0.2558
11962TIP3    H257302   3.587   2.725   4.609  0.0307 -0.3895 -0.3450
11963TIP3   OH257303   2.775   2.262   0.489  0.1939 -0.4007 -0.3334
11963TIP3    H157304   2.850   2.289   0.436  0.9357 -0.3865  0.6997
11963TIP3    H257305   2.746   2.179   0.450  0.0930  0.1062 -1.3655
11964TIP3   OH257306   2.241   0.152   2.256 -0.7533  0.5595  0.5451
11964TIP3    H157307   2.245   0.152   2.351  0.9014  2.0556  0.5169
11964TIP3    H257308   2.244   0.244   2.231 -1.5578  0.2164 -0.9618
11965TIP3   OH257309   1.893   4.579  11.977  0.0050 -0.5682  0.1722
11965TIP3    H157310   1.914   4.497  11.932  1.2261  0.1262 -0.5916
11965TIP3    H257311   1.839   4.628  11.915 -0.2668 -0.5669  0.4081
11966TIP3   OH257312   6.445   4.577   0.287 -0.1556 -0.4896 -0.1873
11966TIP3    H157313   6.360   4.542   0.315 -0.3802  1.6391  2.2366
11966TIP3    H257314   6.509   4.522   0.331 -0.3475 -0.7906 -0.2813
11967TIP3   OH257315   5.197   3.800  13.935 -0.2499 -0.2137  0.1831
11967TIP3    H157316   5.236   3.717  13.908 -0.3395 -0.1416 -0.1789
11967TIP3    H257317   5.212   3.805  14.029 -1.1893 -1.1489  0.4007
11968TIP3   OH257318   6.666   0.712   5.281 -0.2952 -0.2871  0.2413
11968TIP3    H157319   6.620   0.702   5.364 -1.9430 -0.9099 -0.7008
11968TIP3    H257320   6.675   0.807   5.270 -3.1414  0.0121 -0.4119
11969TIP3   OH257321   2.631   1.482  16.550 -0.3709 -0.1166  0.5367
11969TIP3    H157322   2.558   1.420  16.546 -0.5488  0.0405  1.3395
11969TIP3    H257323   2.704   1.435  16.509 -0.2038 -1.2915  2.1154
11970TIP3   OH257324   5.335   5.731   6.065 -0.0831  0.2085  0.0534
11970TIP3    H157325   5.386   5.679   6.128 -0.5599 -1.3087 -0.7573
11970TIP3    H257326   5.261   5.763   6.116 -1.5007 -2.5788 -0.0748
11971TIP3   OH257327   4.110   2.909   0.217  0.1276  0.1833  0.3601
11971TIP3    H157328   4.192   2.920   0.170  1.4103 -0.4001  2.3156
11971TIP3    H257329   4.081   2.820   0.196  0.4238  0.1057  0.2820
11972TIP3   OH257330   3.265   4.853  12.362  0.1581 -0.0589 -0.7888
11972TIP3    H157331   3.285   4.897  12.444 -1.6982 -0.5135 -0.0468
11972TIP3    H257332   3.285   4.918  12.294  1.3593  0.4478  0.0243
11973TIP3   OH257333   3.199   2.250  11.798  0.4509 -0.2341  0.0506
11973TIP3    H157334   3.157   2.240  11.883 -0.2964  0.6246 -0.1996
11973TIP3    H257335   3.139   2.207  11.737  1.5563 -1.8978  0.0753
11974TIP3   OH257336   3.704   4.928  16.594  0.1873  0.3512 -0.4986
11974TIP3    H157337   3.646   4.934  16.670 -0.9058 -0.8371 -1.1892
11974TIP3    H257338   3.780   4.980  16.617  0.5419 -1.1101  2.0046
11975TIP3   OH257339   2.017   6.752  12.866  0.2646 -0.0077  0.3737
11975TIP3    H157340   2.056   6.814  12.928 -0.9454  1.1931 -0.0127
11975TIP3    H257341   2.038   6.789  12.780  2.2154 -1.8215 -0.0323
11976TIP3   OH257342   5.965   4.260  13.921 -0.5855  0.2595  0.0364
11976TIP3    H157343   6.055   4.294  13.926 -1.0426  1.4853  0.2813
11976TIP3    H257344   5.937   4.252  14.012 -0.4749 -0.8429 -0.0180
11977TIP3   OH257345   2.091   5.200  13.634  0.2955 -0.2999 -0.6304
11977TIP3    H157346   2.144   5.199  13.713 -0.8778 -2.3294  0.1768
11977TIP3    H257347   2.008   5.238  13.661 -0.1095 -0.9931 -0.8832
11978TIP3   OH257348   3.237   4.127  15.130  0.8986 -0.0362 -0.3900
11978TIP3    H157349   3.266   4.199  15.186 -1.1539  0.4367  0.1662
11978TIP3    H257350   3.278   4.049  15.167  1.3191  0.5505  0.4076
11979TIP3   OH257351   1.041   3.019  12.414  0.0511  0.0219 -0.0431
11979TIP3    H157352   1.051   2.966  12.493 -0.4814  1.6070  1.1206
11979TIP3    H257353   0.961   2.986  12.373  0.5360 -1.0632 -0.1700
11980TIP3   OH257354   4.992   4.632   2.019 -0.4533 -0.1403  0.4679
11980TIP3    H157355   4.909   4.680   2.017 -1.6844 -2.1321  1.0452
11980TIP3    H257356   4.992   4.580   1.939 -0.6911 -1.5622  1.3514
11981TIP3   OH257357   0.355   1.792  16.224 -0.5449 -0.9948  0.1474
11981TIP3    H157358   0.292   1.766  16.292 -0.2230  0.9809  1.2820
11981TIP3    H257359   0.432   1.821  16.274  0.2428 -0.8411 -1.1292
11982TIP3   OH257360   6.659   6.402   0.357  0.0499 -0.1948 -0.4184
11982TIP3    H157361   6.751   6.385   0.337  0.3102 -1.1871  1.4224
11982TIP3    H257362   6.653   6.392   0.452 -1.2637  3.3538  0.0164
11983TIP3   OH257363   5.384   0.299   1.250 -0.1167 -0.8563 -0.6066
11983TIP3    H157364   5.310   0.238   1.246  0.1169 -1.0751 -1.8687
11983TIP3    H257365   5.390   0.335   1.162  0.2159  0.4529 -0.0743
11984TIP3   OH257366   5.436   3.743   1.220 -0.0731  0.3296 -0.4643
11984TIP3    H157367   5.451   3.666   1.275 -2.0749 -0.1286 -0.4775
11984TIP3    H257368   5.342   3.760   1.228  0.0538  1.8332 -1.7078
11985TIP3   OH257369   1.058   1.771   1.165 -0.0888  1.1208 -0.0984
11985TIP3    H157370   1.027   1.683   1.187 -0.9358  1.0197 -1.5974
11985TIP3    H257371   1.022   1.827   1.234  1.3211  0.1814  1.4581
11986TIP3   OH257372   3.731   5.478   1.417 -0.0642  0.8655 -0.2540
11986TIP3    H157373   3.757   5.462   1.508  0.2159 -1.5600 -0.6879
11986TIP3    H257374   3.743   5.394   1.373 -0.7944  1.8033 -2.4139
11987TIP3   OH257375   1.987   4.818   3.188  0.2570  0.0229 -0.2803
11987TIP3    H157376   1.975   4.884   3.257  1.2224 -0.8547  0.7633
11987TIP3    H257377   1.898   4.789   3.166 -0.0747  0.4759  0.4352
11988TIP3   OH257378   6.411   2.374   3.170  0.6393  0.1873  0.0535
11988TIP3    H157379   6.384   2.456   3.212  1.1156 -0.2546  1.2937
11988TIP3    H257380   6.396   2.387   3.077  0.8724  1.7490  0.2212
11989TIP3   OH257381   4.921   1.120   0.388  0.1577  0.2994 -0.4777
11989TIP3    H157382   4.873   1.176   0.327  0.2544 -1.1706 -2.0029
11989TIP3    H257383   4.861   1.108   0.462 -1.2525 -0.2577 -1.6549
11990TIP3   OH257384   2.416   2.320  12.141  0.2468 -0.1756 -0.4299
11990TIP3    H157385   2.403   2.387  12.074 -3.8494  0.0293  0.3227
11990TIP3    H257386   2.461   2.365  12.212  0.6008  0.8199 -1.2565
11991TIP3   OH257387   4.455   5.413  14.284  0.1164 -0.2088  0.2445
11991TIP3    H157388   4.512   5.339  14.264 -3.1654 -2.6525 -0.8885
11991TIP3    H257389   4.451   5.415  14.379  0.5454 -1.2707  0.3013
11992TIP3   OH257390   6.114   2.623   2.891 -0.9747 -0.0602 -0.1706
11992TIP3    H157391   6.110   2.718   2.899  1.7814  0.1710 -0.6182
11992TIP3    H257392   6.093   2.606   2.799 -1.4732  0.0815 -0.0886
11993TIP3   OH257393   5.038   5.504  11.608 -0.2391 -0.2221 -0.5038
11993TIP3    H157394   4.987   5.579  11.580  2.2758  1.3516 -1.2243
11993TIP3    H257395   5.030   5.504  11.703 -0.8793  0.4875 -0.5481
11994TIP3   OH257396   0.227   2.903   3.752 -0.0922  0.0425 -0.0758
11994TIP3    H157397   0.321   2.917   3.751 -0.4777  3.6058  1.0880
11994TIP3    H257398   0.210   2.862   3.837  0.3507 -0.3125 -0.1549
11995TIP3   OH257399   3.181   0.479  11.071 -0.0717 -0.5888 -0.4903
11995TIP3    H157400   3.147   0.493  11.160 -0.6593 -1.9418 -0.4751
11995TIP3    H257401   3.107   0.497  11.014 -0.3309 -1.7958 -0.5637
11996TIP3   OH257402   0.899   0.317   3.201 -0.2915  0.1558 -0.0242
11996TIP3    H157403   0.914   0.229   3.234  0.4875  1.0491  2.1874
11996TIP3    H257404   0.973   0.333   3.142  1.3547  0.3908  1.9884
11997TIP3   OH257405   5.409   6.695   2.753  0.2275  0.3307 -0.4512
11997TIP3    H157406   5.458   6.692   2.835  1.9981 -0.2494 -1.4711
11997TIP3    H257407   5.461   6.643   2.692 -1.8839 -0.6304 -1.5403
11998TIP3   OH257408   3.078   3.631  11.305  0.4245  0.6942 -0.2857
11998TIP3    H157409   3.059   3.655  11.396 -0.3676 -1.2538  0.1252
11998TIP3    H257410   3.033   3.698  11.253 -1.6606  0.2206  0.7645
11999TIP3   OH257411   0.528   2.123   1.533  0.2123 -0.7639 -0.6532
11999TIP3    H157412   0.451   2.151   1.484  2.3574  0.7968 -3.3898
11999TIP3    H257413   0.557   2.201   1.580 -0.1872 -1.5342  0.9899
12000TIP3   OH257414   0.822   1.538   3.325  0.4144 -0.4508 -0.4428
12000TIP3    H157415   0.764   1.466   3.348  2.3171 -1.5898  1.1984
12000TIP3    H257416   0.885   1.500   3.263 -1.0607  1.0179 -2.9971
12001TIP3   OH257417   4.324   3.594   5.486 -0.7402  0.3206 -0.4579
12001TIP3    H157418   4.237   3.556   5.471 -0.9075  0.9350 -1.1685
12001TIP3    H257419   4.332   3.600   5.581  0.2678 -3.6139 -0.1152
12002TIP3   OH257420   1.411   2.892  14.454  0.2434 -0.9591 -0.1858
12002TIP3    H157421   1.461   2.817  14.485  0.5438 -0.8245 -0.3444
12002TIP3    H257422   1.454   2.918  14.373  1.3058  0.5490  0.8238
12003TIP3   OH257423   4.841   2.030   5.491 -0.2639 -0.1350 -0.4202
12003TIP3    H157424   4.856   2.114   5.534  0.0436 -0.4188  0.0385
12003TIP3    H257425   4.925   1.984   5.500 -0.0772 -0.0519 -1.6558
12004TIP3   OH257426   5.343   5.904   2.701  0.3458  0.4810  0.1346
12004TIP3    H157427   5.339   5.839   2.631 -2.0552 -0.1765  0.8097
12004TIP3    H257428   5.419   5.879   2.753  0.9780 -0.2083 -1.0791
12005TIP3   OH257429   0.369   0.135  14.536 -0.2891 -0.0493 -0.4317
12005TIP3    H157430   0.440   0.102  14.480  1.3591  0.7919  1.0526
12005TIP3    H257431   0.293   0.082  14.512  0.6522 -0.5251 -2.5799
12006TIP3   OH257432   1.035   3.723   3.247  1.2491 -0.0247 -0.4500
12006TIP3    H157433   1.060   3.814   3.266  1.6139  0.0223 -1.1364
12006TIP3    H257434   1.063   3.709   3.157 -0.2728 -0.3036 -0.9051
12007TIP3   OH257435   3.316   4.914  10.826  0.4151  0.2884 -0.0023
12007TIP3    H157436   3.274   4.850  10.768 -0.6505  1.3261 -0.4115
12007TIP3    H257437   3.375   4.862  10.881 -0.2900 -1.0097 -0.4407
12008TIP3   OH257438   3.410   5.176  15.004  0.1764 -0.1622 -0.2588
12008TIP3    H157439   3.344   5.131  14.952  0.9432 -0.3107 -1.1330
12008TIP3    H257440   3.361   5.217  15.076 -0.9745  0.4560 -1.3641
12009TIP3   OH257441   3.868   1.904  11.238  0.1684 -0.2467 -0.2554
12009TIP3    H157442   3.926   1.980  11.233  0.8413 -0.7433 -0.1428
12009TIP3    H257443   3.867   1.869  11.148  1.7537 -1.4660  0.1430
12010TIP3   OH257444   5.533   2.389   5.887 -0.4432  0.7134  0.5572
12010TIP3    H157445   5.618   2.345   5.887 -0.7323  0.1451  1.0723
12010TIP3    H257446   5.487   2.354   5.963 -0.7299  1.8267  0.9222
12011TIP3   OH257447   5.019   0.916   6.345  0.4470 -0.3895  0.3385
12011TIP3    H157448   4.963   0.840   6.332 -0.4374  0.4592 -1.0230
12011TIP3    H257449   5.103   0.892   6.307 -0.1657 -0.3040 -1.1186
12012TIP3   OH257450   6.694   6.588  14.098 -0.2150  0.2880 -0.3228
12012TIP3    H157451   6.732   6.579  14.010 -0.4446 -0.6422 -0.3310
12012TIP3    H257452   6.670   6.681  14.103 -0.7599  0.2341 -1.4767
12013TIP3   OH257453   2.129   4.999   3.046  0.2448  0.2673 -0.7464
12013TIP3    H157454   2.089   4.919   3.080 -2.2551  1.7231  0.0764
12013TIP3    H257455   2.133   4.986   2.951 -0.2802 -0.7767 -0.6357
12014TIP3   OH257456   4.062   2.751  12.826  0.2445  0.0202  0.2174
12014TIP3    H157457   3.989   2.751  12.764  0.2106 -0.5805  0.2548
12014TIP3    H257458   4.070   2.843  12.853  0.0862  0.2417 -0.4674
12015TIP3   OH257459   2.888   2.632   5.222  0.5485  0.6354 -0.6762
12015TIP3    H157460   2.880   2.653   5.315 -0.3174 -0.7808 -0.3995
12015TIP3    H257461   2.881   2.537   5.218 -2.7158  0.8117 -2.4458
12016TIP3   OH257462   2.617   2.528   2.460  0.6290 -0.1110 -0.1606
12016TIP3    H157463   2.540   2.485   2.423  0.7493 -0.1543 -0.3629
12016TIP3    H257464   2.686   2.515   2.394  0.9963 -0.6575  0.3094
12017TIP3   OH257465   4.737   6.464  17.157  0.1133  0.3067  0.2554
12017TIP3    H157466   4.785   6.422  17.228 -0.5814 -1.2202 -0.1339
12017TIP3    H257467   4.663   6.406  17.140 -2.2062  2.7981  1.1566
12018TIP3   OH257468   6.365   3.106   2.465  0.0417 -0.1136 -0.2781
12018TIP3    H157469   6.356   3.201   2.474  1.4554 -0.0366  0.6194
12018TIP3    H257470   6.296   3.081   2.404 -0.1318  1.5409 -0.8114
12019TIP3   OH257471   4.345   5.778   5.662  0.3514  0.8142 -0.2464
12019TIP3    H157472   4.258   5.783   5.622  0.4201  1.0374 -0.3685
12019TIP3    H257473   4.364   5.684   5.665  0.5455  0.8072 -1.1786
12020TIP3   OH257474   1.222   4.975   2.575  0.2903 -0.0140 -0.4918
12020TIP3    H157475   1.294   4.972   2.512  0.2056 -0.3263 -0.5777
12020TIP3    H257476   1.143   4.966   2.521  0.1678  0.6151 -0.4262
12021TIP3   OH257477   0.222   0.847  12.038 -0.6324 -0.3183  0.3288
12021TIP3    H157478   0.306   0.857  12.083 -1.3834  2.3269  1.3193
12021TIP3    H257479   0.234   0.893  11.955 -1.5591  1.7090  1.2438
12022TIP3   OH257480   1.085   5.216  12.659  0.4938  0.3468  0.6321
12022TIP3    H157481   1.127   5.297  12.688  1.7929  0.4350 -1.3645
12022TIP3    H257482   1.001   5.245  12.623  1.1833  0.9262 -0.5849
12023TIP3   OH257483   3.119   3.183   0.034 -0.2836  0.1745 -0.1937
12023TIP3    H157484   3.045   3.182   0.095  0.0939 -0.3920  0.2657
12023TIP3    H257485   3.186   3.128   0.076  0.4149  0.7091 -0.5809
12024TIP3   OH257486   6.348   4.469   0.537  0.0223 -0.5757  0.1608
12024TIP3    H157487   6.296   4.463   0.457 -0.7623  0.2109  0.5973
12024TIP3    H257488   6.346   4.561   0.560  0.1444 -0.8110  1.1575
12025TIP3   OH257489   0.374   6.301   5.403  0.1346  0.2793 -0.0024
12025TIP3    H157490   0.448   6.346   5.444 -1.6070  1.3901  2.0865
12025TIP3    H257491   0.369   6.217   5.450  0.2349  0.0888 -0.3326
12026TIP3   OH257492   4.307   3.989   4.709  0.0622 -0.1787 -0.0804
12026TIP3    H157493   4.248   4.064   4.720  1.4789  0.7690  1.6283
12026TIP3    H257494   4.380   4.007   4.768  2.6647 -0.7528 -2.8905
12027TIP3   OH257495   2.369   0.912  16.471 -0.1584  0.2224  0.0478
12027TIP3    H157496   2.454   0.868  16.480 -0.0308  0.4585 -0.0022
12027TIP3    H257497   2.307   0.851  16.510 -0.0920 -0.3638 -0.7105
12028TIP3   OH257498   2.952   4.041   4.041  0.2818  0.6656 -0.0069
12028TIP3    H157499   2.875   4.007   3.996  1.2378 -2.0350  0.2251
12028TIP3    H257500   2.918   4.085   4.118 -1.1178  1.6556 -1.1385
12029TIP3   OH257501   1.778   4.150   5.368  0.2970  0.1329  0.1199
12029TIP3    H157502   1.722   4.220   5.400  0.9654  1.0843 -0.7210
12029TIP3    H257503   1.848   4.143   5.434  0.6908  0.8531 -0.2101
12030TIP3   OH257504   1.049   0.705   2.161  0.4038 -0.0343  0.4588
12030TIP3    H157505   1.061   0.797   2.142  0.3858 -0.7312 -3.8428
12030TIP3    H257506   1.138   0.669   2.166  0.3991 -0.0165  0.6679
12031TIP3   OH257507   5.081   1.508   0.884  0.4623  1.0560 -0.1041
12031TIP3    H157508   5.110   1.599   0.887 -0.4179  1.3351  0.3942
12031TIP3    H257509   5.143   1.461   0.940  1.1061  1.2902 -0.6146
12032TIP3   OH257510   6.088   2.527   1.622  0.5201 -0.0599 -0.0675
12032TIP3    H157511   6.038   2.570   1.691  1.0949 -0.8322  0.8563
12032TIP3    H257512   6.119   2.599   1.567 -0.5893  0.5091  0.0186
12033TIP3   OH257513   5.959   1.262   0.733 -0.0457  0.2575  0.4206
12033TIP3    H157514   5.978   1.341   0.681  0.4501 -0.3115 -0.2839
12033TIP3    H257515   5.957   1.294   0.824  0.5645  1.0155  0.1848
12034TIP3   OH257516   3.902   4.730   5.398  0.3085  0.1792 -0.7578
12034TIP3    H157517   3.929   4.646   5.362  1.4386  0.3504 -0.3529
12034TIP3    H257518   3.978   4.787   5.387 -0.7117  1.4254 -1.8287
12035TIP3   OH257519   4.774   4.018  13.503 -0.1215 -0.1513  0.3000
12035TIP3    H157520   4.866   3.995  13.497 -0.2667 -0.8123  0.6256
12035TIP3    H257521   4.748   3.993  13.591 -0.6850 -0.2297  0.1153
12036TIP3   OH257522   0.723   3.669   3.258  0.3910 -0.1442 -0.2142
12036TIP3    H157523   0.697   3.679   3.349 -0.2575  1.0074 -0.5017
12036TIP3    H257524   0.818   3.677   3.258  0.3955 -0.1940  0.3613
12037TIP3   OH257525   2.230   2.157  11.419 -0.0232 -0.4251 -0.5873
12037TIP3    H157526   2.317   2.194  11.404 -0.2843  0.3255 -0.3054
12037TIP3    H257527   2.232   2.072  11.375  1.2591 -0.9678  0.4794
12038TIP3   OH257528   0.331   5.006  12.724 -0.7170 -0.0038 -0.3243
12038TIP3    H157529   0.370   5.025  12.638  0.7642 -1.3498 -0.0034
12038TIP3    H257530   0.282   4.925  12.711 -1.3671  0.3546 -0.1381
12039TIP3   OH257531   6.214   2.995   0.416  0.0263 -0.5549  0.9612
12039TIP3    H157532   6.259   2.975   0.334 -2.2236  0.2337 -0.5416
12039TIP3    H257533   6.262   2.945   0.482  2.0825 -0.9940 -0.7605
12040TIP3   OH257534   5.661   4.152   5.008 -0.2466 -0.2644  0.3346
12040TIP3    H157535   5.707   4.130   4.927  0.3350  2.2739 -0.1171
12040TIP3    H257536   5.568   4.139   4.988 -0.1172  0.4951 -0.8107
12041TIP3   OH257537   2.415   6.147   1.938 -0.1625  0.1511  0.2487
12041TIP3    H157538   2.343   6.123   1.879 -0.5122  0.2945  0.6178
12041TIP3    H257539   2.466   6.211   1.888 -0.1611 -0.1192 -0.1010
12042TIP3   OH257540   0.762   2.343   3.531  0.0541 -0.0644 -0.1345
12042TIP3    H157541   0.812   2.266   3.560 -1.3960 -0.5302  1.3105
12042TIP3    H257542   0.798   2.364   3.445  0.5941 -2.2926 -0.5285
12043TIP3   OH257543   2.025   2.774   2.938  0.8222  0.8418  0.3654
12043TIP3    H157544   1.953   2.749   2.996  0.3908  1.7785  0.2471
12043TIP3    H257545   2.101   2.730   2.975  0.1776 -0.2498  0.4238
12044TIP3   OH257546   0.945   4.425  12.171  0.4182 -0.4639  0.0866
12044TIP3    H157547   1.012   4.357  12.172 -0.0798 -0.9785 -0.5504
12044TIP3    H257548   0.866   4.382  12.204 -0.1569 -0.4883 -1.2565
12045TIP3   OH257549   2.053   1.192   4.455  0.0398 -0.0324  0.2329
12045TIP3    H157550   1.994   1.135   4.505 -0.7199  0.3044 -0.2538
12045TIP3    H257551   2.017   1.279   4.467  1.0394  0.3236  0.7492
12046TIP3   OH257552   4.057   2.869  14.504  0.4866  0.4624 -0.5044
12046TIP3    H157553   4.016   2.946  14.466 -0.3334  0.7901  0.9769
12046TIP3    H257554   4.013   2.857  14.589  1.4256 -0.9207 -0.1720
12047TIP3   OH257555   5.952   6.514   5.314 -0.2764 -0.4563  0.2438
12047TIP3    H157556   6.022   6.449   5.309 -0.8363 -0.9762 -1.4526
12047TIP3    H257557   5.973   6.578   5.246 -1.4933 -0.6809 -0.3633
12048TIP3   OH257558   2.830   1.934   3.407 -0.5827  0.2960  0.2142
12048TIP3    H157559   2.784   1.853   3.427 -1.4377  0.7501  0.1386
12048TIP3    H257560   2.830   1.983   3.489 -2.5069  1.3843 -0.3758
12049TIP3   OH257561   0.523   1.172   2.346  0.2520 -0.6395 -0.6621
12049TIP3    H157562   0.514   1.199   2.438 -0.3293 -0.8829 -0.6469
12049TIP3    H257563   0.456   1.222   2.300 -3.3056 -4.4359 -0.1383
12050TIP3   OH257564   3.322   0.764  12.285  0.7066 -0.1348 -0.0186
12050TIP3    H157565   3.286   0.852  12.274 -3.1693 -1.3205  1.5576
12050TIP3    H257566   3.354   0.762  12.376  1.4659 -0.1858 -0.2763
12051TIP3   OH257567   0.973   5.136   0.509 -0.0564  0.1313 -0.1851
12051TIP3    H157568   0.994   5.214   0.561  0.8448  1.0953 -1.8917
12051TIP3    H257569   1.058   5.102   0.482 -0.4530 -1.3470  0.3533
12052TIP3   OH257570   5.404   4.372  15.184 -0.5091  0.3182  0.3835
12052TIP3    H157571   5.322   4.346  15.225 -1.3504 -0.1714 -1.5141
12052TIP3    H257572   5.396   4.467  15.171 -1.0557  0.1825 -0.3400
12053TIP3   OH257573   2.363   2.130  16.597  0.1359 -0.5385 -0.4233
12053TIP3    H157574   2.434   2.131  16.660  0.9877  0.7058 -1.3455
12053TIP3    H257575   2.365   2.217  16.557 -0.9192 -0.9957 -1.5535
12054TIP3   OH257576   5.477   6.101  12.822  0.2319 -0.6656  0.1814
12054TIP3    H157577   5.382   6.112  12.813  0.5814  2.6026 -0.8404
12054TIP3    H257578   5.495   6.122  12.913  0.1459  1.4430 -0.2218
12055TIP3   OH257579   0.126   4.006  15.544 -0.1748  0.2107  0.1551
12055TIP3    H157580   0.163   4.045  15.623 -0.0134  0.9348 -0.2679
12055TIP3    H257581   0.096   3.919  15.571  0.2227  0.3086  0.9183
12056TIP3   OH257582   4.401   0.601   5.560 -0.2527  0.1920 -0.1083
12056TIP3    H157583   4.400   0.541   5.635 -2.0308 -0.1126 -0.3304
12056TIP3    H257584   4.490   0.595   5.526  0.2968 -0.4717  1.3309
12057TIP3   OH257585   2.313   3.607  13.581 -0.4171 -0.1204 -0.0698
12057TIP3    H157586   2.229   3.626  13.540  0.2105 -2.0326 -2.4647
12057TIP3    H257587   2.378   3.650  13.526  0.3141 -0.5773  0.4110
12058TIP3   OH257588   4.615   0.465  11.571 -0.2537 -0.5963 -0.1898
12058TIP3    H157589   4.573   0.400  11.513 -0.5141 -0.5499 -0.0559
12058TIP3    H257590   4.604   0.548  11.525  0.8650 -0.7563 -0.7916
12059TIP3   OH257591   6.351   2.232   2.407  0.0962 -0.7732  0.0826
12059TIP3    H157592   6.324   2.296   2.341  0.9037 -0.8236 -0.3046
12059TIP3    H257593   6.321   2.148   2.372  1.8526 -0.9954 -0.9907
12060TIP3   OH257594   5.798   6.239   5.288 -0.6354 -0.0236 -0.5619
12060TIP3    H157595   5.866   6.172   5.280 -0.2696  0.2567  0.0867
12060TIP3    H257596   5.812   6.297   5.213 -0.1689  0.0128 -0.4502
12061TIP3   OH257597   5.607   0.598  16.326  0.2670 -0.2119 -0.1778
12061TIP3    H157598   5.529   0.552  16.295 -0.9489  1.0515  0.8461
12061TIP3    H257599   5.609   0.580  16.420 -0.2943  1.7731  0.2774
12062TIP3   OH257600   3.619   4.475  11.424 -0.4423  0.0262 -0.2551
12062TIP3    H157601   3.687   4.528  11.382 -0.0991  0.3037  0.6230
12062TIP3    H257602   3.576   4.536  11.485 -0.1471 -0.6544  0.6549
12063TIP3   OH257603   6.721   2.221  14.032 -0.1221  0.5220  0.4074
12063TIP3    H157604   6.762   2.272  14.102  0.9714  0.4458 -0.1533
12063TIP3    H257605   6.636   2.262  14.019  0.3546  1.6236  0.6168
12064TIP3   OH257606   0.190   0.987   2.254  0.0703  0.5657  0.1057
12064TIP3    H157607   0.170   1.011   2.344  0.5115 -0.1700  0.3976
12064TIP3    H257608   0.119   1.027   2.203 -0.7259  0.1609  0.8723
12065TIP3   OH257609   6.483   6.260   4.685  0.3572  0.0916 -0.0044
12065TIP3    H157610   6.447   6.314   4.755 -0.2775  0.0441 -0.2828
12065TIP3    H257611   6.437   6.176   4.694  2.3777 -0.9645  1.3632
12066TIP3   OH257612   6.109   2.229  14.036  0.5903  0.3632  0.3778
12066TIP3    H157613   6.176   2.171  14.073  1.1723  1.3927  0.9917
12066TIP3    H257614   6.146   2.258  13.953  0.7019  0.5684  0.4994
12067TIP3   OH257615   0.080   3.358  11.385 -0.1510  0.8041  0.3613
12067TIP3    H157616   0.014   3.312  11.436 -0.0111 -1.3426 -1.2332
12067TIP3    H257617   0.052   3.449  11.387  0.2023  1.0337  4.6757
12068TIP3   OH257618   3.534   6.073   5.745 -0.4036 -0.8137 -0.5209
12068TIP3    H157619   3.515   6.083   5.838  1.0360  1.3350 -0.3996
12068TIP3    H257620   3.453   6.098   5.701 -0.3472  0.6135  0.1241
12069TIP3   OH257621   6.155   4.445   0.346  0.4964  0.1404  0.6188
12069TIP3    H157622   6.093   4.452   0.418 -0.8376  0.6322 -0.5312
12069TIP3    H257623   6.101   4.454   0.267  1.6638 -1.9371 -0.4997
12070TIP3   OH257624   6.117   1.318  10.968  0.2363  0.2910  0.2824
12070TIP3    H157625   6.157   1.240  10.931  1.1331  2.1333 -3.0589
12070TIP3    H257626   6.025   1.314  10.940  0.6594  1.1458 -1.3396
12071TIP3   OH257627   3.843   1.984  13.094  0.3906  0.0632 -0.3150
12071TIP3    H157628   3.904   1.911  13.078  1.1989  0.2599  1.5943
12071TIP3    H257629   3.831   1.984  13.189 -2.1764  0.4050 -0.5753
12072TIP3   OH257630   5.964   0.189   0.484 -0.0886  0.0575  0.0893
12072TIP3    H157631   5.902   0.198   0.556 -0.7258  2.4726 -0.6633
12072TIP3    H257632   6.045   0.229   0.516  0.0286 -0.0427 -0.0784
12073TIP3   OH257633   3.480   4.442   1.751 -0.3879  0.1755 -0.1448
12073TIP3    H157634   3.442   4.502   1.816  1.2660  0.2016  0.8431
12073TIP3    H257635   3.574   4.457   1.756 -0.1477 -0.4509 -1.9686
12074TIP3   OH257636   1.523   2.133   4.823  0.0066 -0.2379 -0.0261
12074TIP3    H157637   1.501   2.099   4.737 -1.9829 -0.2854  0.4472
12074TIP3    H257638   1.441   2.127   4.873 -0.0571  3.6274  0.6201
12075TIP3   OH257639   5.213   0.025   3.080  0.0501  0.5447 -0.0956
12075TIP3    H157640   5.254  -0.061   3.080  0.9307  0.9523  0.1931
12075TIP3    H257641   5.121   0.008   3.059  0.1980 -0.4651  0.0361
12076TIP3   OH257642   5.230   2.316  11.846 -0.3733 -0.0853  0.2452
12076TIP3    H157643   5.145   2.295  11.885 -0.5661 -0.7710 -0.5094
12076TIP3    H257644   5.223   2.286  11.755  0.6827 -0.1565  0.1724
12077TIP3   OH257645   3.871   4.078  16.124  0.3757 -0.3715 -0.6691
12077TIP3    H157646   3.877   3.983  16.112  2.1701 -0.1378 -2.0255
12077TIP3    H257647   3.958   4.105  16.152 -0.1907  0.8602  0.0010
12078TIP3   OH257648   6.094   1.719  10.464 -0.1107  0.1963  0.9095
12078TIP3    H157649   6.163   1.748  10.405 -0.8224  0.7248  0.3297
12078TIP3    H257650   6.086   1.790  10.529  0.8332 -0.4878  1.8027
12079TIP3   OH257651   4.473   6.167   3.797  0.5456  0.3333 -0.0894
12079TIP3    H157652   4.539   6.234   3.815  1.4756 -0.4266 -0.5600
12079TIP3    H257653   4.483   6.147   3.704 -0.4337  0.2884 -0.1957
12080TIP3   OH257654   2.199   4.150  13.016 -0.0458 -0.3015  0.1591
12080TIP3    H157655   2.132   4.083  13.004 -1.3491  1.1821 -1.3134
12080TIP3    H257656   2.161   4.209  13.082  0.0357  0.2458 -0.2775
12081TIP3   OH257657   0.820   6.405  12.587 -0.1800  0.1876  0.5095
12081TIP3    H157658   0.843   6.464  12.515 -0.9676  2.7526  2.2155
12081TIP3    H257659   0.727   6.421  12.603 -0.3982 -1.4879  1.1272
12082TIP3   OH257660   5.663   3.141   1.022  0.0057 -0.3834  0.0004
12082TIP3    H157661   5.608   3.097   1.087 -1.3713 -0.3591 -1.0998
12082TIP3    H257662   5.752   3.135   1.058 -0.3558 -2.5908  0.6947
12083TIP3   OH257663   5.462   5.202   5.026  0.5520 -0.1309  0.2199
12083TIP3    H157664   5.502   5.224   5.110 -0.7627 -1.2357  1.1862
12083TIP3    H257665   5.372   5.233   5.033  0.6488  0.5339 -1.1361
12084TIP3   OH257666   5.560   6.276   5.998  0.4565  0.4772 -0.2271
12084TIP3    H157667   5.499   6.350   5.988 -0.6226 -0.4217 -0.4776
12084TIP3    H257668   5.594   6.285   6.087  1.0935  1.8214 -0.5813
12085TIP3   OH257669   2.332   4.799   0.853 -0.2132  0.0619  1.0072
12085TIP3    H157670   2.258   4.850   0.821 -0.5859 -0.7298  0.5629
12085TIP3    H257671   2.409   4.837   0.811 -0.5565 -0.1458  0.1683
12086TIP3   OH257672   5.366   6.725  14.891  0.1080 -0.3985  0.8229
12086TIP3    H157673   5.337   6.681  14.811  1.3046  0.1145  0.0948
12086TIP3    H257674   5.383   6.654  14.953 -0.5637 -0.8079  0.5531
12087TIP3   OH257675   4.387   5.436   2.196  0.3826  0.5471 -0.2086
12087TIP3    H157676   4.366   5.497   2.126 -0.1479 -0.2076 -0.7292
12087TIP3    H257677   4.415   5.356   2.151  0.4915  0.2080  0.4416
12088TIP3   OH257678   5.032   4.634   0.705  0.2908  0.1164 -0.3508
12088TIP3    H157679   5.098   4.570   0.677 -1.1483 -0.6760 -2.1192
12088TIP3    H257680   4.958   4.582   0.734 -0.1161  0.9940  0.2434
12089TIP3   OH257681   1.616   5.318  12.678 -0.0722  1.1378  0.3618
12089TIP3    H157682   1.648   5.251  12.738  2.6200 -0.4944 -2.5697
12089TIP3    H257683   1.675   5.392  12.690 -0.5457  1.4464  0.8195
12090TIP3   OH257684   0.696   5.385   5.707  1.3994 -0.1670 -0.2701
12090TIP3    H157685   0.724   5.419   5.622  3.4048 -3.7504 -1.2303
12090TIP3    H257686   0.619   5.332   5.688  0.9740  0.1797  0.4312
12091TIP3   OH257687   2.004   1.021   3.778 -0.0204 -0.5163 -0.0730
12091TIP3    H157688   2.029   0.970   3.700  0.3476  2.2466 -1.9096
12091TIP3    H257689   2.085   1.028   3.828  0.2635 -0.5799 -0.5080
12092TIP3   OH257690   2.749   4.458   2.328 -0.1540  0.3544 -0.4768
12092TIP3    H157691   2.766   4.391   2.262  0.5256  0.6662 -0.6248
12092TIP3    H257692   2.694   4.414   2.393 -0.8217  0.0393 -1.2304
12093TIP3   OH257693   1.076   6.617   3.048 -0.3200  0.7059  0.1631
12093TIP3    H157694   1.139   6.654   2.986 -1.4509  1.7173 -0.4289
12093TIP3    H257695   1.126   6.607   3.129  2.1620 -3.7039 -1.5518
12094TIP3   OH257696   5.345   2.443   1.016  0.3039  0.0775  0.0449
12094TIP3    H157697   5.331   2.523   0.966 -1.5704  0.6971  1.4107
12094TIP3    H257698   5.265   2.434   1.069  1.2703 -1.6773  1.3152
12095TIP3   OH257699   3.749   2.727   2.549 -0.1710  0.1374  0.0250
12095TIP3    H157700   3.721   2.775   2.471  0.7861  1.5197  0.4866
12095TIP3    H257701   3.783   2.644   2.515 -1.9575 -0.3135 -0.7912
12096TIP3   OH257702   3.269   4.312   1.557 -0.6003  0.1642 -0.3291
12096TIP3    H157703   3.228   4.263   1.628  0.0888  0.4238  0.2552
12096TIP3    H257704   3.322   4.379   1.601 -0.7385  0.7950 -1.0981
12097TIP3   OH257705   0.614   1.005   5.901  0.3624  0.5445 -0.2696
12097TIP3    H157706   0.663   1.061   5.961 -0.0885 -0.5989  1.2345
12097TIP3    H257707   0.533   1.053   5.884 -0.4370  0.0211  1.7529
12098TIP3   OH257708   4.208   4.098  17.019 -0.3743  0.2218  0.3197
12098TIP3    H157709   4.178   4.161  16.953 -0.9397 -1.5289 -1.1781
12098TIP3    H257710   4.127   4.060  17.052 -0.0008 -1.0121 -0.1486
12099TIP3   OH257711   0.547   0.447   1.291 -0.5673  0.5383 -0.2195
12099TIP3    H157712   0.621   0.426   1.348  0.2051  0.4660 -1.2171
12099TIP3    H257713   0.471   0.407   1.334  0.1849 -0.5111  0.1748
12100TIP3   OH257714   0.909   5.334  11.398  0.6926  0.0971  0.7316
12100TIP3    H157715   0.959   5.401  11.352 -0.1332  0.3215  0.1404
12100TIP3    H257716   0.871   5.380  11.473 -1.2203  0.7419 -0.5641
12101TIP3   OH257717   0.158   4.272   2.351  0.0870  0.0071  0.1082
12101TIP3    H157718   0.134   4.181   2.367 -0.8725 -0.0343 -1.4384
12101TIP3    H257719   0.203   4.271   2.267 -1.2086  1.1351 -0.6356
12102TIP3   OH257720   5.866   3.549   5.826  0.1694 -0.0254 -0.0686
12102TIP3    H157721   5.804   3.571   5.895 -0.3828 -0.2371 -0.4929
12102TIP3    H257722   5.816   3.558   5.745  0.6770 -0.2499 -0.4130
12103TIP3   OH257723   6.284   3.328   2.346 -0.3210  0.5589  0.2053
12103TIP3    H157724   6.189   3.329   2.353 -0.3294  1.0900  0.0480
12103TIP3    H257725   6.303   3.378   2.267  0.0925  0.4954  0.2617
12104TIP3   OH257726   0.874   3.832   3.994  0.0910  0.1144  0.2323
12104TIP3    H157727   0.940   3.854   3.928  0.1738 -0.8124 -0.0083
12104TIP3    H257728   0.923   3.829   4.076  0.4020 -0.7287  0.0315
12105TIP3   OH257729   2.373   0.929   0.266 -0.1573 -0.4377  0.2579
12105TIP3    H157730   2.329   0.851   0.234 -1.8166  0.1559  0.9958
12105TIP3    H257731   2.379   0.988   0.190 -3.0665  0.5229  0.6537
12106TIP3   OH257732   2.862   5.771  13.623  0.0673 -0.1527 -0.1979
12106TIP3    H157733   2.943   5.804  13.585  1.2664  0.1024  2.3452
12106TIP3    H257734   2.828   5.845  13.674 -0.9496 -0.7302 -0.0103
12107TIP3   OH257735   2.280   5.509  16.315 -0.2029 -0.4255 -0.7551
12107TIP3    H157736   2.370   5.478  16.314  0.2333  0.8129 -0.9925
12107TIP3    H257737   2.285   5.599  16.345 -1.5287 -0.7943  0.7219
12108TIP3   OH257738   4.758   5.044  12.602  0.7064 -0.2215  0.1206
12108TIP3    H157739   4.753   4.973  12.667  1.0498  1.2302  1.7973
12108TIP3    H257740   4.839   5.089  12.622  0.7157  0.3860 -1.2236
12109TIP3   OH257741   2.369   0.240  15.293  0.1774  0.2492 -0.9491
12109TIP3    H157742   2.297   0.268  15.350 -1.7787  0.6553 -3.3834
12109TIP3    H257743   2.390   0.319  15.243  1.7208 -0.1153 -0.8960
12110TIP3   OH257744   3.407   4.536   2.111  0.4377 -0.2977  0.5430
12110TIP3    H157745   3.501   4.537   2.129  0.1636  3.3943  2.9017
12110TIP3    H257746   3.397   4.588   2.032  0.3676 -1.4498 -0.2334
12111TIP3   OH257747   0.175   3.794   2.254  0.4230  0.9002  0.4522
12111TIP3    H157748   0.157   3.715   2.305 -1.2390  1.0988  0.2393
12111TIP3    H257749   0.266   3.816   2.274  0.8178 -0.8857  0.7457
12112TIP3   OH257750   2.691   0.291  16.078 -0.3767  0.3006 -0.4309
12112TIP3    H157751   2.754   0.239  16.128 -1.5255  0.5911  1.4032
12112TIP3    H257752   2.704   0.380  16.109  0.5305  0.9282 -2.4565
12113TIP3   OH257753   1.730   2.751   2.216  0.4874 -0.6736  0.1310
12113TIP3    H157754   1.708   2.658   2.222  0.7296 -0.6567  2.1449
12113TIP3    H257755   1.681   2.791   2.288 -1.9723  1.3007 -2.4249
12114TIP3   OH257756   2.698   5.991   1.672 -0.2283 -0.3981 -0.1082
12114TIP3    H157757   2.726   6.040   1.749 -1.3201 -0.1920  0.1675
12114TIP3    H257758   2.746   5.908   1.678  1.0259  0.3030 -0.1580
12115TIP3   OH257759   6.238   3.396  17.232  0.3946 -0.3574 -0.3093
12115TIP3    H157760   6.292   3.391  17.312  0.5056  0.4773 -0.3275
12115TIP3    H257761   6.242   3.308  17.196  1.1962 -0.4830  0.0552
12116TIP3   OH257762   0.357   2.847   0.587 -0.2148 -0.2493  0.4624
12116TIP3    H157763   0.342   2.802   0.504  0.1804  1.1005 -0.3861
12116TIP3    H257764   0.275   2.838   0.635 -0.3493 -1.2900  0.0585
12117TIP3   OH257765   1.069   3.099   4.704  0.0439  0.0126 -0.0729
12117TIP3    H157766   1.010   3.024   4.700 -0.3470  0.3140  0.0082
12117TIP3    H257767   1.012   3.174   4.719  0.0603  0.7950 -3.2672
12118TIP3   OH257768   6.533   4.501  14.646 -0.2242 -0.0920 -0.2347
12118TIP3    H157769   6.608   4.473  14.593  1.3684 -0.8381  2.2448
12118TIP3    H257770   6.550   4.594  14.663  0.1558 -0.2605  0.3254
12119TIP3   OH257771   1.575   5.846  15.229 -0.3910  0.0039 -0.3570
12119TIP3    H157772   1.535   5.799  15.302 -0.7467  0.8554  0.0068
12119TIP3    H257773   1.615   5.777  15.175  0.5795 -0.5693  1.0585
12120TIP3   OH257774   2.827   3.600   0.409  0.3798  0.1224 -0.1707
12120TIP3    H157775   2.737   3.568   0.418  0.2752  0.6709  0.9014
12120TIP3    H257776   2.862   3.553   0.333 -0.7634 -0.1967 -0.5156
12121TIP3   OH257777   1.351   5.726   3.364 -0.2771 -0.1381 -0.3172
12121TIP3    H157778   1.402   5.775   3.300 -0.4421  0.0657 -0.2949
12121TIP3    H257779   1.294   5.670   3.311 -0.8936  0.5206 -0.3643
12122TIP3   OH257780   6.024   1.777  16.924 -0.4660 -0.1383  0.1779
12122TIP3    H157781   6.024   1.863  16.965 -1.3411  0.1325 -0.3555
12122TIP3    H257782   6.081   1.786  16.848  0.1436 -0.2803  0.6176
12123TIP3   OH257783   3.003   4.865  12.563  0.1538 -0.1153 -0.3528
12123TIP3    H157784   3.069   4.898  12.502  0.1276  0.6910  0.0488
12123TIP3    H257785   3.029   4.899  12.649 -0.5831 -0.0765 -0.1321
12124TIP3   OH257786   1.817   2.440  14.890  0.4077  0.6534 -0.2293
12124TIP3    H157787   1.855   2.512  14.840  0.6984 -1.0426 -2.6268
12124TIP3    H257788   1.876   2.429  14.964  0.7752  2.3529 -0.2112
12125TIP3   OH257789   0.204   3.733   5.897 -0.5414  0.1407 -0.0330
12125TIP3    H157790   0.111   3.716   5.912 -0.3464 -1.1425 -0.1592
12125TIP3    H257791   0.214   3.827   5.914 -1.8068  0.2559  0.2087
12126TIP3   OH257792   2.120   0.301  14.669 -0.1171  0.0930 -0.2609
12126TIP3    H157793   2.214   0.280  14.667  0.2367  1.3148  1.1608
12126TIP3    H257794   2.114   0.388  14.629 -0.9830 -0.8436 -2.3094
12127TIP3   OH257795   0.324   2.908   0.138  0.6343  0.5063  0.3262
12127TIP3    H157796   0.352   2.988   0.182  1.4589  0.3664  0.0629
12127TIP3    H257797   0.389   2.842   0.163  1.0212  0.3823 -0.9417
12128TIP3   OH257798   2.691   4.151  14.694  0.0687  0.1937  0.0296
12128TIP3    H157799   2.637   4.208  14.638 -0.1217 -1.0958 -1.1512
12128TIP3    H257800   2.676   4.184  14.782 -1.1165  1.1014 -0.4700
12129TIP3   OH257801   2.926   0.419  12.553  0.2808 -0.1163  0.2291
12129TIP3    H157802   3.020   0.430  12.561  0.6026  0.3825 -2.7767
12129TIP3    H257803   2.902   0.357  12.622  2.7884 -0.2611  1.0542
12130TIP3   OH257804   0.722   1.058  13.952 -0.4339 -0.7265 -0.5518
12130TIP3    H157805   0.697   1.071  13.860 -1.1981  0.0191 -0.2483
12130TIP3    H257806   0.666   1.118  14.001  2.5300  1.7819  0.1196
12131TIP3   OH257807   6.509   2.572  11.807  0.4209  0.0420  0.2008
12131TIP3    H157808   6.422   2.532  11.810 -0.3792  1.6977  0.5070
12131TIP3    H257809   6.491   2.665  11.789  2.1452  0.3675  0.0508
12132TIP3   OH257810   3.304   5.678  11.917  0.1026 -0.2480  0.1384
12132TIP3    H157811   3.264   5.719  11.994  0.6568 -0.4908  0.5576
12132TIP3    H257812   3.289   5.741  11.847 -0.4505 -0.0456  0.4318
12133TIP3   OH257813   4.910   5.695  13.938 -0.4132 -0.3454 -0.4523
12133TIP3    H157814   4.900   5.733  13.850 -0.4267 -2.1304 -1.2548
12133TIP3    H257815   4.822   5.668  13.963 -0.0910 -1.8008 -0.8310
12134TIP3   OH257816   5.144   6.325   5.453  0.1012  0.6121 -0.2479
12134TIP3    H157817   5.076   6.291   5.511  0.1724  0.6379 -0.1495
12134TIP3    H257818   5.104   6.325   5.366 -0.0792  0.7822 -0.1631
12135TIP3   OH257819   0.158   6.644   2.186  0.1024 -0.3261 -0.3776
12135TIP3    H157820   0.225   6.701   2.148  0.3881 -0.9478 -0.8261
12135TIP3    H257821   0.204   6.562   2.205  0.0094 -0.0057  1.4693
12136TIP3   OH257822   2.527   1.609  15.946 -0.0659 -0.5305  0.5540
12136TIP3    H157823   2.493   1.559  16.020 -0.5963  0.6508  1.1380
12136TIP3    H257824   2.612   1.569  15.927  0.4685 -0.3582  2.3421
12137TIP3   OH257825   2.542   6.022   1.164 -0.7698  0.5746 -0.3428
12137TIP3    H157826   2.468   6.083   1.151  0.1711  1.3040 -3.0557
12137TIP3    H257827   2.611   6.056   1.107  0.8242 -1.4775  0.2349
12138TIP3   OH257828   4.947   1.686   1.833  1.2615  0.0084 -0.3208
12138TIP3    H157829   5.019   1.625   1.816  0.5251 -1.1565  0.5627
12138TIP3    H257830   4.970   1.727   1.916  0.0332 -1.8376  1.0287
12139TIP3   OH257831   5.184   0.312  15.117 -0.4853 -0.3701 -0.2825
12139TIP3    H157832   5.213   0.222  15.102 -0.0038  0.1358 -2.8446
12139TIP3    H257833   5.101   0.319  15.069 -1.0736  0.2693  0.7932
12140TIP3   OH257834   2.655   3.638  15.671 -0.5613  0.0789  0.5747
12140TIP3    H157835   2.594   3.704  15.704 -2.1360 -0.9189 -0.2156
12140TIP3    H257836   2.602   3.558  15.665  0.8033 -0.7864 -0.2660
12141TIP3   OH257837   3.686   2.493   2.977  0.2348 -0.3790  0.2019
12141TIP3    H157838   3.766   2.455   3.013  0.4554  0.3287  0.4618
12141TIP3    H257839   3.711   2.581   2.949 -0.7710  0.3897  1.6010
12142TIP3   OH257840   3.204   2.432  12.462 -0.3217  0.3216  0.4554
12142TIP3    H157841   3.130   2.374  12.444  1.2466 -1.3342 -0.9298
12142TIP3    H257842   3.260   2.382  12.521 -0.8557  2.0921  2.6255
12143TIP3   OH257843   1.524   1.933   0.930 -0.0144  0.2486 -0.4171
12143TIP3    H157844   1.438   1.950   0.968  0.0802  0.8242 -0.4502
12143TIP3    H257845   1.586   1.956   1.000  0.0799 -2.4936  0.5075
12144TIP3   OH257846   5.823   5.683   1.203  0.0553  0.2531  0.2739
12144TIP3    H157847   5.788   5.648   1.285  2.3002  0.0442  1.2414
12144TIP3    H257848   5.845   5.605   1.151 -1.4559  0.3836 -0.6285
12145TIP3   OH257849   6.336   0.008  12.036  0.2286 -0.0568 -0.2675
12145TIP3    H157850   6.258   0.058  12.061 -1.0323 -1.6542 -0.8227
12145TIP3    H257851   6.399   0.074  12.009 -0.0472  1.4606  2.4124
12146TIP3   OH257852   0.356   5.006   0.481 -0.4038 -0.3020  0.1617
12146TIP3    H157853   0.330   5.085   0.433 -1.1904 -1.3703 -1.2218
12146TIP3    H257854   0.299   4.937   0.448  1.5361 -1.8877 -0.0999
12147TIP3   OH257855   6.778   5.352   2.235 -0.5131  0.6649  0.1753
12147TIP3    H157856   6.833   5.409   2.289  0.9783  0.4266 -1.0199
12147TIP3    H257857   6.790   5.265   2.273 -3.3346  1.1112  2.4373
12148TIP3   OH257858   0.172   1.048   1.404  0.4975  0.3148  0.0978
12148TIP3    H157859   0.183   1.083   1.316  0.0619 -0.7443 -0.3900
12148TIP3    H257860   0.245   1.086   1.454  1.3743  0.0863 -0.9780
12149TIP3   OH257861   3.241   2.324   1.619  0.2090 -0.2386 -0.2917
12149TIP3    H157862   3.231   2.271   1.698 -0.3714 -0.3941 -0.4639
12149TIP3    H257863   3.280   2.406   1.649  0.7648 -0.6194  0.0328
12150TIP3   OH257864   0.476   1.989   2.510  0.3636 -0.1256 -0.0998
12150TIP3    H157865   0.542   1.973   2.577  0.1178  0.3159  0.2545
12150TIP3    H257866   0.410   2.043   2.554  0.3224  0.3729 -0.7683
12151TIP3   OH257867   3.971   5.162   5.462  0.2246 -0.2667  0.5628
12151TIP3    H157868   3.879   5.161   5.437  0.2512 -0.5734  0.4712
12151TIP3    H257869   3.989   5.254   5.484 -0.5015 -0.4744  2.0969
12152TIP3   OH257870   6.278   3.204  10.716 -0.1027  0.1094  0.5346
12152TIP3    H157871   6.326   3.280  10.683 -1.2445 -0.7706 -3.7074
12152TIP3    H257872   6.345   3.139  10.735  0.6537  0.7864  0.2121
12153TIP3   OH257873   6.112   0.124   6.186 -0.0711 -0.0662 -0.1842
12153TIP3    H157874   6.027   0.116   6.229 -0.0794 -0.5246 -0.2783
12153TIP3    H257875   6.094   0.174   6.106 -0.7753 -2.3814 -1.5826
12154TIP3   OH257876   1.201   5.967   0.089  0.0591 -0.1949  0.7070
12154TIP3    H157877   1.157   6.016   0.019  2.3466 -0.7454 -1.2232
12154TIP3    H257878   1.160   5.881   0.086 -1.1162  0.3135  1.3343
12155TIP3   OH257879   0.375   4.847   5.923  0.3301 -0.5845  0.7182
12155TIP3    H157880   0.302   4.882   5.871  1.2540  0.0899 -0.1646
12155TIP3    H257881   0.341   4.767   5.961 -0.7895 -0.4267  0.0995
12156TIP3   OH257882   5.549   5.324   1.766  0.5770 -0.3090  0.3301
12156TIP3    H157883   5.550   5.413   1.731  0.7513 -0.1220  0.8011
12156TIP3    H257884   5.493   5.329   1.844  1.4469 -0.3595  0.9847
12157TIP3   OH257885   6.365   4.990   3.787 -0.7425  0.0528 -0.0155
12157TIP3    H157886   6.274   5.021   3.783 -0.5762  0.4213 -1.4054
12157TIP3    H257887   6.367   4.914   3.728  0.1223  0.8206 -1.0171
12158TIP3   OH257888   0.743   1.145  13.063  0.0335  0.5733 -0.4099
12158TIP3    H157889   0.769   1.065  13.018  0.3612  0.3254  0.2139
12158TIP3    H257890   0.823   1.199  13.064  0.4757 -0.0407  1.1861
12159TIP3   OH257891   4.094   2.036   5.113 -0.1976 -0.1690  0.9429
12159TIP3    H157892   4.004   2.067   5.121 -0.1557 -0.1729  1.4070
12159TIP3    H257893   4.087   1.941   5.115 -0.4753 -0.3094 -1.8288
12160TIP3   OH257894   6.253   0.668   5.210 -0.4213 -0.2468 -0.2142
12160TIP3    H157895   6.171   0.644   5.167 -0.2450  0.1669 -0.7922
12160TIP3    H257896   6.266   0.600   5.277  0.1735 -1.9036 -1.9371
12161TIP3   OH257897   6.492   2.835   3.599  0.1920 -0.0495  0.2916
12161TIP3    H157898   6.425   2.904   3.597  1.0977  0.8868  0.9724
12161TIP3    H257899   6.567   2.877   3.642  0.5958 -1.6257  1.1747
12162TIP3   OH257900   6.634   4.091  17.223 -0.3058  0.0059 -0.0452
12162TIP3    H157901   6.623   4.064  17.314 -1.2979  1.8641  0.4307
12162TIP3    H257902   6.728   4.102  17.212 -0.1148 -0.9666  0.5224
12163TIP3   OH257903   4.741   5.980   5.449 -0.2460 -0.5129 -0.2946
12163TIP3    H157904   4.771   6.070   5.439  0.1864 -0.7437 -1.2335
12163TIP3    H257905   4.719   5.972   5.542 -1.1745  0.8184 -0.3689
12164TIP3   OH257906   5.337   0.615   6.320 -0.1427 -0.0955 -0.2076
12164TIP3    H157907   5.308   0.705   6.309  1.2504  0.2439 -1.3788
12164TIP3    H257908   5.400   0.618   6.393 -2.1655 -0.6720  1.6962
12165TIP3   OH257909   0.734   3.655   1.198 -0.3123  0.0183 -0.1876
12165TIP3    H157910   0.722   3.566   1.230 -1.0427  1.0078  2.5914
12165TIP3    H257911   0.648   3.680   1.163 -0.2212 -0.2075 -0.5805
12166TIP3   OH257912   0.204   4.778  12.712  0.1328  0.2194 -0.1129
12166TIP3    H157913   0.140   4.783  12.782  0.4800  0.0593  0.2196
12166TIP3    H257914   0.202   4.687  12.683 -0.0827  0.3077 -0.3817
12167TIP3   OH257915   1.996   5.002  16.408  0.3213  0.2195  0.1381
12167TIP3    H157916   2.009   4.907  16.412 -0.7896  0.1004  1.3999
12167TIP3    H257917   1.929   5.020  16.474  1.5720  2.0720  0.9837
12168TIP3   OH257918   1.269   4.820  15.283  0.1412  0.1899  0.5217
12168TIP3    H157919   1.263   4.903  15.235  1.5317  0.0652  0.0791
12168TIP3    H257920   1.360   4.817  15.313 -0.1481 -0.7349  1.3578
12169TIP3   OH257921   6.582   4.331  16.378 -0.3154  0.3318 -0.2407
12169TIP3    H157922   6.624   4.369  16.301  0.2084  0.9154  0.3220
12169TIP3    H257923   6.609   4.239  16.378 -1.5016 -0.0491 -1.5548
12170TIP3   OH257924   0.531   0.066  12.985  1.2627 -0.3042  0.2840
12170TIP3    H157925   0.463   0.106  12.931 -0.4997 -0.0247  2.5856
12170TIP3    H257926   0.613   0.090  12.941 -0.0266 -0.5190 -2.4971
12171TIP3   OH257927   4.287   0.948   1.584 -0.2698  0.1374  0.4070
12171TIP3    H157928   4.310   0.882   1.649 -2.1242  0.4428  1.4375
12171TIP3    H257929   4.240   0.900   1.516  1.3997 -0.1287 -0.6312
12172TIP3   OH257930   6.514   2.305   2.062 -0.3137 -0.4945  0.3055
12172TIP3    H157931   6.545   2.261   1.983  1.7742  2.1140 -0.5123
12172TIP3    H257932   6.519   2.239   2.131 -0.6031 -2.3801 -1.4161
12173TIP3   OH257933   5.679   4.058  13.882  0.3050  0.2251 -0.2130
12173TIP3    H157934   5.657   3.972  13.918  0.0830 -0.5131 -2.0076
12173TIP3    H257935   5.677   4.117  13.957 -3.8071 -0.4948  0.4381
12174TIP3   OH257936   1.580   6.033   0.466  0.1287 -0.1747  0.5670
12174TIP3    H157937   1.604   5.948   0.503 -1.4590 -0.0648  1.9644
12174TIP3    H257938   1.559   6.088   0.542 -3.1097  0.1231 -0.3972
12175TIP3   OH257939   1.070   1.686  15.217  0.7585  0.4325  0.3431
12175TIP3    H157940   1.035   1.597  15.229 -2.6804  1.5852 -0.0690
12175TIP3    H257941   1.162   1.672  15.198  0.7312 -2.9567  1.8179
12176TIP3   OH257942   6.086   3.681  13.310  0.0623  0.2951  0.4842
12176TIP3    H157943   6.028   3.659  13.238  1.0686  1.0627 -0.5972
12176TIP3    H257944   6.029   3.721  13.376 -0.9309 -0.7991  0.3183
12177TIP3   OH257945   4.456   5.065  17.057 -0.4151 -0.5775  0.8171
12177TIP3    H157946   4.411   5.125  17.117 -2.6201 -0.3777 -0.9251
12177TIP3    H257947   4.419   5.084  16.971  3.0855 -0.4179 -0.8233
12178TIP3   OH257948   4.600   0.699  12.386 -0.3016  0.3796 -0.1908
12178TIP3    H157949   4.571   0.645  12.313  0.8644  1.9134 -1.8763
12178TIP3    H257950   4.663   0.645  12.433 -1.5493 -0.8647  0.1079
12179TIP3   OH257951   6.192   6.079   4.070 -0.0217 -0.1502 -0.6239
12179TIP3    H157952   6.114   6.057   4.120  0.8335 -2.3659 -0.1339
12179TIP3    H257953   6.235   6.148   4.120 -0.0119 -1.2092  0.9146
12180TIP3   OH257954   0.104   4.042  12.572 -0.0890  0.1610 -0.4270
12180TIP3    H157955   0.158   3.973  12.534 -0.0951  0.7177 -1.5013
12180TIP3    H257956   0.146   4.063  12.655 -0.0387 -1.0662 -0.1354
12181TIP3   OH257957   2.937   3.181  11.542  0.8671 -0.2277 -0.7710
12181TIP3    H157958   2.931   3.275  11.523  1.3742 -0.1444 -0.5337
12181TIP3    H257959   2.877   3.140  11.480  0.1573  0.3114 -0.4503
12182TIP3   OH257960   0.376   5.822  16.907 -0.3979 -0.2700  0.5184
12182TIP3    H157961   0.469   5.823  16.931  0.2464 -1.9180 -1.6180
12182TIP3    H257962   0.330   5.819  16.991  1.3609  1.9392  1.6977
12183TIP3   OH257963   1.863   5.067   1.831  0.0177  0.4183  0.1984
12183TIP3    H157964   1.949   5.107   1.817  0.1006 -0.5325 -2.4540
12183TIP3    H257965   1.801   5.132   1.800 -0.0163 -0.2259 -1.1150
12184TIP3   OH257966   4.898   5.797  13.656 -0.4166 -0.0085  0.3920
12184TIP3    H157967   4.888   5.703  13.639  0.6197  0.0015 -0.3055
12184TIP3    H257968   4.809   5.832  13.645 -0.8807 -0.9397  0.9744
12185TIP3   OH257969   6.072   4.645   5.476  1.0445  0.3558 -0.2003
12185TIP3    H157970   6.137   4.581   5.504  0.0213 -0.1538  1.1226
12185TIP3    H257971   6.024   4.602   5.405  0.6829 -0.1574  0.3508
12186TIP3   OH257972   4.189   2.091  16.506  0.2058 -0.2850 -0.4314
12186TIP3    H157973   4.272   2.104  16.461  1.4426  1.0038  2.0057
12186TIP3    H257974   4.142   2.174  16.494  0.4049 -0.0554  0.3201
12187TIP3   OH257975   1.105   2.623  13.612  0.1405 -0.1939 -0.0215
12187TIP3    H157976   1.157   2.566  13.555  0.4995 -0.5153  0.6150
12187TIP3    H257977   1.157   2.630  13.692  0.8060  2.2111 -0.5965
12188TIP3   OH257978   1.477   4.740   3.794 -0.7080  0.0093 -0.5122
12188TIP3    H157979   1.387   4.716   3.770 -0.1977 -0.6264 -1.9367
12188TIP3    H257980   1.521   4.754   3.710  0.7851 -0.7095  0.1051
12189TIP3   OH257981   3.886   5.702  16.779 -0.4486 -0.8567 -0.2716
12189TIP3    H157982   3.900   5.794  16.758  0.2726 -1.1908 -1.3704
12189TIP3    H257983   3.886   5.658  16.694  3.2080 -2.3759  0.2960
12190TIP3   OH257984   1.575   2.837  14.236  0.1922 -0.3114  0.0035
12190TIP3    H157985   1.586   2.748  14.203  1.1598  0.2734 -1.3176
12190TIP3    H257986   1.499   2.871  14.187 -0.3421 -0.4857  0.6988
12191TIP3   OH257987   4.365   6.535  13.096  0.1606  0.0344 -0.1431
12191TIP3    H157988   4.409   6.556  13.013 -0.0931  0.4868 -0.1704
12191TIP3    H257989   4.395   6.603  13.157  1.1547 -0.8952  0.4351
12192TIP3   OH257990   5.725   3.236   1.920  0.1963  0.2755  0.1763
12192TIP3    H157991   5.651   3.212   1.864  0.5878  0.6475 -0.5151
12192TIP3    H257992   5.801   3.235   1.862  0.7520 -0.1413  0.8841
12193TIP3   OH257993   5.456   3.491   6.099  0.0181 -0.1289  0.1631
12193TIP3    H157994   5.481   3.439   6.176 -2.0075 -0.4457  0.6849
12193TIP3    H257995   5.529   3.551   6.086  2.2154 -2.6418 -0.0970
12194TIP3   OH257996   4.644   5.764   4.995  0.2279 -0.5637 -0.4153
12194TIP3    H157997   4.719   5.773   4.935  0.0700 -0.9127 -0.6682
12194TIP3    H257998   4.587   5.701   4.952 -1.6637  1.8542 -1.7073
12195TIP3   OH257999   5.998   3.563  12.795 -0.3808  0.2966  0.1499
12195TIP3    H158000   6.072   3.608  12.837 -0.1929  0.0415  0.0979
12195TIP3    H258001   5.967   3.624  12.729 -1.2829  1.1083  1.2777
12196TIP3   OH258002   1.574   5.418  13.724  0.1177  0.7599  0.4842
12196TIP3    H158003   1.573   5.442  13.631 -0.6823 -2.3100 -0.4031
12196TIP3    H258004   1.491   5.453  13.758 -0.7973 -0.2433 -0.6193
12197TIP3   OH258005   5.588   0.720   4.886  0.5008 -0.7801  0.2645
12197TIP3    H158006   5.576   0.641   4.939  0.1056 -1.8371 -1.3276
12197TIP3    H258007   5.663   0.764   4.926 -1.0553 -0.3718  2.9899
12198TIP3   OH258008   1.710   1.100   0.052 -0.2142 -0.8207  0.0744
12198TIP3    H158009   1.706   1.155  -0.026  0.1626  0.6287  1.0186
12198TIP3    H258010   1.625   1.112   0.094 -0.5047 -1.7857 -0.2256
12199TIP3   OH258011   4.852   6.405   0.088  0.5635  0.4087 -0.6779
12199TIP3    H158012   4.870   6.499   0.090  0.2081  0.5030 -1.6752
12199TIP3    H258013   4.878   6.375   0.175 -0.1213  1.5814 -0.0360
12200TIP3   OH258014   5.637   4.718   2.299  0.7556 -0.4109  0.7598
12200TIP3    H158015   5.711   4.659   2.289  0.3873 -0.8138  0.3507
12200TIP3    H258016   5.617   4.747   2.211 -0.4570 -1.4220  0.6670
12201TIP3   OH258017   0.536   4.163   6.804 -0.3416  0.9064 -0.2852
12201TIP3    H158018   0.442   4.163   6.817 -0.1821 -0.4214  1.1136
12201TIP3    H258019   0.559   4.071   6.794  0.9067  1.1377  0.2450
12202TIP3   OH258020   4.520   1.502   0.752  0.4373  0.5860  0.1009
12202TIP3    H158021   4.539   1.557   0.828  2.1170  0.2613 -0.0404
12202TIP3    H258022   4.606   1.472   0.722 -0.1816  0.7257 -1.9523
12203TIP3   OH258023   2.024   0.681  13.551  0.1578  0.2943 -0.3354
12203TIP3    H158024   1.941   0.726  13.543 -0.3529 -0.7206 -0.8818
12203TIP3    H258025   2.005   0.590  13.527  0.7650 -0.6365  2.3411
12204TIP3   OH258026   6.606   2.683  12.629 -0.0974  0.3464 -0.2151
12204TIP3    H158027   6.621   2.663  12.722 -0.0610 -1.0507 -0.4932
12204TIP3    H258028   6.570   2.771  12.629 -1.6021 -0.2045  1.2674
12205TIP3   OH258029   1.714   6.124   2.431  0.3355 -0.0899 -0.1180
12205TIP3    H158030   1.784   6.181   2.464  1.3695 -1.8489  0.8812
12205TIP3    H258031   1.640   6.140   2.490  0.8871 -0.3395  0.6659
12206TIP3   OH258032   3.747   0.277  12.857 -0.1758  0.6020  0.2189
12206TIP3    H158033   3.767   0.201  12.801  0.4610  1.7950 -1.2635
12206TIP3    H258034   3.818   0.339  12.838  0.1733  0.9886  2.5594
12207TIP3   OH258035   2.161   2.812   2.101  0.5478 -0.0998 -0.0696
12207TIP3    H158036   2.219   2.831   2.027 -0.9028  1.3237 -0.9106
12207TIP3    H258037   2.133   2.722   2.088  2.6972 -0.8989  0.4846
12208TIP3   OH258038   4.987   0.617  10.398 -0.3465  0.1082 -0.2023
12208TIP3    H158039   5.053   0.686  10.394  1.2568 -1.3629 -0.3429
12208TIP3    H258040   4.915   0.648  10.343  1.2812  0.7155 -2.1008
12209TIP3   OH258041   4.992   3.835  15.248 -0.4102  0.7958 -0.6255
12209TIP3    H158042   4.925   3.774  15.279  1.2160 -0.8945 -0.3025
12209TIP3    H258043   4.986   3.830  15.152 -1.0116  1.0027 -0.6072
12210TIP3   OH258044   5.843   5.974  15.528 -0.1700  0.6245 -0.7500
12210TIP3    H158045   5.786   5.955  15.453 -2.7562  1.5876  0.8392
12210TIP3    H258046   5.897   6.047  15.499 -2.4789  2.2878 -1.1363
12211TIP3   OH258047   4.730   1.443   1.003  0.2725 -0.2344 -0.5445
12211TIP3    H158048   4.816   1.418   1.035 -0.4380 -0.9912  0.8758
12211TIP3    H258049   4.671   1.426   1.076 -0.9178  1.4947 -1.0284
12212TIP3   OH258050   6.710   4.520  14.923  0.4940 -0.1288  0.4562
12212TIP3    H158051   6.626   4.500  14.883 -0.1726  1.7235  0.8856
12212TIP3    H258052   6.769   4.534  14.849  0.3714 -1.0893  0.1574
12213TIP3   OH258053   2.583   4.112   6.852  0.3351  0.1064  0.0211
12213TIP3    H158054   2.640   4.036   6.840 -0.1207 -0.0974 -0.9370
12213TIP3    H258055   2.494   4.077   6.843  0.1324  0.8583 -1.1094
12214TIP3   OH258056   4.490   6.329   6.488 -0.4790 -0.1178  0.0099
12214TIP3    H158057   4.401   6.359   6.504 -0.3584  1.8726 -2.4334
12214TIP3    H258058   4.501   6.335   6.393  1.1696 -3.6369 -0.1998
12215TIP3   OH258059   0.309   1.680   3.683  0.0064  0.1133  0.2929
12215TIP3    H158060   0.349   1.671   3.770 -1.4430 -0.9313  0.8941
12215TIP3    H258061   0.235   1.619   3.684 -2.6744  3.0826 -0.1457
12216TIP3   OH258062   4.815   4.231  14.394 -0.0315  0.0226 -0.1725
12216TIP3    H158063   4.865   4.305  14.430  0.4530 -0.5631  0.3901
12216TIP3    H258064   4.801   4.254  14.302 -0.1320  0.9397  0.0553
12217TIP3   OH258065   2.960   6.758  13.650 -0.3043  0.2556  0.1682
12217TIP3    H158066   2.880   6.774  13.700 -0.5230 -1.2730  0.3589
12217TIP3    H258067   3.028   6.747  13.717 -0.5434 -1.5171  0.1577
12218TIP3   OH258068   4.470   2.130  12.244 -0.4090 -0.3619  0.5233
12218TIP3    H158069   4.556   2.103  12.213  0.2128  0.9552  1.0361
12218TIP3    H258070   4.470   2.226  12.235 -2.2487 -0.4239 -0.5544
12219TIP3   OH258071   4.270   3.385  16.750 -0.3854  0.0639  0.4766
12219TIP3    H158072   4.234   3.425  16.829  1.1804  0.5998  0.9663
12219TIP3    H258073   4.365   3.391  16.761 -0.0951 -1.9648 -0.3817
12220TIP3   OH258074   2.186   5.197   3.391  0.4274 -0.7579  0.1160
12220TIP3    H158075   2.152   5.219   3.304 -0.0597 -0.8476  0.2779
12220TIP3    H258076   2.242   5.272   3.414 -0.8983  0.1566  0.4877
12221TIP3   OH258077   2.663   2.809   5.499 -0.3680  0.1937  0.0100
12221TIP3    H158078   2.576   2.774   5.520 -0.0890 -0.1637  0.5747
12221TIP3    H258079   2.669   2.890   5.550 -0.0609 -0.1912  0.5950
12222TIP3   OH258080   2.515   5.067  16.358 -0.2111  0.1817  0.1458
12222TIP3    H158081   2.564   5.149  16.347 -1.1021  0.5104 -1.9317
12222TIP3    H258082   2.480   5.072  16.447  2.8948  0.2204  1.4892
12223TIP3   OH258083   1.400   0.208  11.094 -0.1704 -0.6670 -0.1229
12223TIP3    H158084   1.336   0.198  11.024  1.4614 -0.0663 -1.7687
12223TIP3    H258085   1.363   0.159  11.167 -2.0606 -1.0890 -1.2948
12224TIP3   OH258086   6.013   0.937  11.955 -0.0707  0.7213  0.4774
12224TIP3    H158087   6.108   0.926  11.964  0.0398  0.4267 -0.9045
12224TIP3    H258088   6.003   1.018  11.905 -0.5810  1.0379  1.0778
12225TIP3   OH258089   2.172   3.532  16.563  0.1282 -0.5897 -0.4591
12225TIP3    H158090   2.233   3.593  16.522 -0.5952 -0.4255 -1.3023
12225TIP3    H258091   2.224   3.489  16.632  0.7833  0.5928 -0.1971
12226TIP3   OH258092   1.829   2.181   1.779 -0.1480 -0.1763 -0.2946
12226TIP3    H158093   1.738   2.152   1.770 -0.5557  0.9820 -0.0465
12226TIP3    H258094   1.843   2.186   1.874  0.7483 -1.9964 -0.2728
12227TIP3   OH258095   4.824   3.720   1.024 -0.3559 -0.7701  0.0614
12227TIP3    H158096   4.888   3.785   1.053 -2.2799  1.0999  0.3321
12227TIP3    H258097   4.804   3.670   1.103  0.1202 -0.7939  0.1695
12228TIP3   OH258098   6.557   2.769   0.547  0.2272 -0.3257  0.0518
12228TIP3    H158099   6.516   2.851   0.576 -0.0732  0.3362 -2.1120
12228TIP3    H258100   6.651   2.786   0.554  0.1823  0.5436 -1.1906
12229TIP3   OH258101   4.331   6.493   0.372  0.5485 -0.0528  0.3210
12229TIP3    H158102   4.394   6.548   0.326 -0.3926 -0.1484 -1.1245
12229TIP3    H258103   4.279   6.554   0.424  0.5154  0.2438 -0.0622
12230TIP3   OH258104   1.587   3.015  12.894  0.6787  0.2401 -0.0031
12230TIP3    H158105   1.513   2.961  12.920 -0.1105 -0.5559 -3.4299
12230TIP3    H258106   1.577   3.096  12.945 -2.6120  0.1850 -0.3610
12231TIP3   OH258107   5.343   1.821  12.709 -0.6092 -0.0308 -0.0474
12231TIP3    H158108   5.382   1.810  12.623  2.6286 -0.2430  1.2908
12231TIP3    H258109   5.351   1.735  12.750 -2.0970  0.0663  0.5086
12232TIP3   OH258110   0.946   0.223  14.464  0.2853  0.4565 -1.0951
12232TIP3    H158111   0.994   0.160  14.409 -0.7771 -0.9436 -0.4612
12232TIP3    H258112   0.858   0.224  14.427 -0.2279  0.0824  0.0834
12233TIP3   OH258113   6.600   1.201  15.203  0.0847 -0.0216 -0.4037
12233TIP3    H158114   6.643   1.128  15.249 -0.9874 -0.9238 -0.7587
12233TIP3    H258115   6.518   1.213  15.251 -1.1692 -1.1301 -2.1352
12234TIP3   OH258116   5.653   3.065   3.794 -0.1326  0.5661 -0.1223
12234TIP3    H158117   5.697   3.029   3.870 -1.3839  0.9174  0.8052
12234TIP3    H258118   5.678   3.007   3.722  1.9055  0.8355  0.3086
12235TIP3   OH258119   1.009   2.758  11.495 -0.2811 -0.1287  0.1827
12235TIP3    H158120   0.994   2.715  11.579 -2.1422 -0.0817 -0.0865
12235TIP3    H258121   0.937   2.820  11.486 -0.1029 -0.1095 -1.4362
12236TIP3   OH258122   6.323   2.743  11.111 -0.9902 -0.2478  0.3515
12236TIP3    H158123   6.368   2.719  11.030 -0.0109  1.6604  0.2709
12236TIP3    H258124   6.237   2.774  11.083 -1.3019 -1.1992  0.2270
12237TIP3   OH258125   6.494   0.163   1.430  0.4195 -0.3112  0.5385
12237TIP3    H158126   6.408   0.198   1.452 -0.2661 -1.1176 -0.7007
12237TIP3    H258127   6.551   0.189   1.502 -0.7634  0.6175  1.1602
12238TIP3   OH258128   6.502   5.709  15.980 -0.2482  0.1911 -0.4346
12238TIP3    H158129   6.435   5.677  16.039 -2.2455  1.3484 -1.9396
12238TIP3    H258130   6.564   5.636  15.971  1.3219  0.5649  4.4750
12239TIP3   OH258131   1.985   3.679   2.773 -0.1045  0.0189 -0.4979
12239TIP3    H158132   1.994   3.755   2.715  0.9845 -1.3625 -2.2322
12239TIP3    H258133   2.072   3.666   2.810 -0.2818 -0.3886 -0.2150
12240TIP3   OH258134   6.026   0.981  11.552  0.4096 -0.0088  0.3852
12240TIP3    H158135   5.973   1.055  11.585 -0.9947 -0.5903 -0.4732
12240TIP3    H258136   6.024   0.918  11.624  0.4526  0.2201  0.5926
12241TIP3   OH258137   1.970   6.071   4.521  0.0819  0.1799  0.2307
12241TIP3    H158138   2.062   6.097   4.529 -0.0060  1.7229 -2.6869
12241TIP3    H258139   1.924   6.152   4.503 -1.4910 -0.8849 -0.7528
12242TIP3   OH258140   6.302   1.699   1.584 -0.2161 -0.5643  0.2943
12242TIP3    H158141   6.321   1.778   1.534 -0.8510 -0.0436  0.8595
12242TIP3    H258142   6.299   1.629   1.518  1.7062 -0.3856 -0.0571
12243TIP3   OH258143   0.619   3.388   3.178 -0.2170 -0.2293  0.2269
12243TIP3    H158144   0.558   3.446   3.224  0.9470  0.3719  1.0891
12243TIP3    H258145   0.600   3.301   3.213 -2.3072 -0.5182 -1.4302
12244TIP3   OH258146   1.721   0.910  14.682 -0.9509  0.3024 -0.5587
12244TIP3    H158147   1.733   0.862  14.600  1.6421  1.6222 -1.0508
12244TIP3    H258148   1.760   0.996  14.666  0.4145  0.3407  2.2674
12245TIP3   OH258149   2.037   1.274   0.573  0.0966  0.0918 -0.3439
12245TIP3    H158150   2.057   1.182   0.553  2.3458  0.6632 -0.9935
12245TIP3    H258151   2.115   1.307   0.617 -0.7842  1.6350  0.1316
12246TIP3   OH258152   1.523   5.464   2.695  0.3526  0.1324  0.0209
12246TIP3    H158153   1.497   5.374   2.714  0.8306 -0.0919 -0.3465
12246TIP3    H258154   1.539   5.464   2.600 -2.6676  1.3799 -0.6146
12247TIP3   OH258155   4.658   0.512  16.646  0.6000 -0.3267  0.0039
12247TIP3    H158156   4.576   0.562  16.645  0.3564 -0.6415  1.4636
12247TIP3    H258157   4.718   0.567  16.697  0.6031 -1.0940  0.8540
12248TIP3   OH258158   0.451   6.684   2.401  0.1233  0.0070  0.3278
12248TIP3    H158159   0.543   6.655   2.400  0.1311 -0.5248  3.8744
12248TIP3    H258160   0.457   6.779   2.404  0.4584  0.0526 -1.0662
12249TIP3   OH258161   5.848   0.041  11.732  0.1717 -0.1799 -0.0731
12249TIP3    H158162   5.794   0.120  11.726 -0.6635 -0.6549  0.9022
12249TIP3    H258163   5.876   0.037  11.824  3.1804  0.8689 -0.8436
12250TIP3   OH258164   3.770   0.754   2.811  0.6075 -0.2525  0.2085
12250TIP3    H158165   3.683   0.723   2.835  1.2829 -2.4583  0.0480
12250TIP3    H258166   3.828   0.719   2.878  1.5348  0.1633 -0.3439
12251TIP3   OH258167   3.728   5.121  15.045 -0.8017 -0.4535  0.9853
12251TIP3    H158168   3.727   5.044  15.101 -1.4935 -1.4680 -0.3665
12251TIP3    H258169   3.649   5.169  15.068 -0.4222 -0.1948  1.7621
12252TIP3   OH258170   6.491   0.454   0.491  0.0992  0.4764 -0.3613
12252TIP3    H158171   6.570   0.405   0.514 -1.1269 -1.7695 -0.5772
12252TIP3    H258172   6.477   0.514   0.564  1.4423  0.2005  0.1438
12253TIP3   OH258173   4.023   4.651  14.809  0.1024 -0.2191  0.3638
12253TIP3    H158174   4.008   4.719  14.874 -2.2272 -1.7185  1.5307
12253TIP3    H258175   4.069   4.582  14.856  2.1749  0.3463 -0.7263
12254TIP3   OH258176   6.298   3.769  12.028 -0.5289 -0.2304  0.1078
12254TIP3    H158177   6.305   3.738  12.118  1.9626  0.7783  0.3530
12254TIP3    H258178   6.234   3.839  12.032  0.6418  0.8367  1.4714
12255TIP3   OH258179   2.914   6.333   4.026 -0.5216  0.3473  0.0708
12255TIP3    H158180   2.859   6.407   3.999 -0.1035  0.9530  0.8502
12255TIP3    H258181   2.997   6.373   4.051 -1.3047  0.0446  3.6111
12256TIP3   OH258182   3.534   3.139   2.767  0.3121  0.9264  0.0052
12256TIP3    H158183   3.590   3.061   2.763  0.4739  1.0656 -0.4933
12256TIP3    H258184   3.595   3.212   2.772  0.3847  1.3565 -4.0136
12257TIP3   OH258185   4.526   6.625   2.681 -0.0206 -0.0902 -0.0853
12257TIP3    H158186   4.527   6.584   2.595  0.2528 -1.1425  0.4040
12257TIP3    H258187   4.497   6.556   2.740 -1.3086  0.9328  0.5199
12258TIP3   OH258188   6.672   0.465  12.317 -0.0612 -0.3434 -0.5556
12258TIP3    H158189   6.624   0.401  12.369  0.1348 -1.1462 -1.3474
12258TIP3    H258190   6.701   0.530  12.380 -1.6747 -0.1508  0.0266
12259TIP3   OH258191   4.044   1.194  12.455  0.0118 -0.1435 -0.1751
12259TIP3    H158192   4.087   1.241  12.526 -0.0218 -0.7045  0.2227
12259TIP3    H258193   4.109   1.131  12.425  0.3201  0.6303 -1.1973
12260TIP3   OH258194   0.637   5.921   0.301 -0.1831  1.0829  0.3167
12260TIP3    H158195   0.686   5.926   0.218  2.8071  1.6552  1.9903
12260TIP3    H258196   0.578   5.846   0.289  3.4063 -1.8771 -0.7722
12261TIP3   OH258197   4.842   0.142   3.569 -0.1420 -0.0879 -0.5954
12261TIP3    H158198   4.755   0.107   3.549  0.1849 -1.4129  0.1869
12261TIP3    H258199   4.843   0.151   3.664  0.3812  0.4676 -0.6485
12262TIP3   OH258200   5.403   5.342   3.501  0.0733 -0.1618 -0.0419
12262TIP3    H158201   5.448   5.302   3.575  0.3924 -1.2048 -0.7696
12262TIP3    H258202   5.441   5.429   3.494 -0.7348  0.3614  1.6696
12263TIP3   OH258203   2.624   3.292   5.719 -0.1521 -0.0364 -0.4317
12263TIP3    H158204   2.717   3.305   5.697 -0.0780 -0.6317 -0.4942
12263TIP3    H258205   2.607   3.356   5.788  0.4144 -0.1667 -0.1530
12264TIP3   OH258206   5.520   4.339  15.884  0.2031  0.3885 -0.2576
12264TIP3    H158207   5.492   4.407  15.823  0.1949  0.8895  0.2989
12264TIP3    H258208   5.515   4.380  15.971 -0.2717 -0.4706  0.1328
12265TIP3   OH258209   1.067   3.562  12.807  0.4315  0.3116 -0.1242
12265TIP3    H158210   1.065   3.657  12.791  0.0950  0.1620 -1.0555
12265TIP3    H258211   1.026   3.525  12.729  0.5147 -0.6010  0.2638
12266TIP3   OH258212   1.206   3.473  16.967 -0.1461  0.1008 -0.7080
12266TIP3    H158213   1.299   3.493  16.977  0.4319 -2.6162  0.1516
12266TIP3    H258214   1.165   3.557  16.950  2.1501  1.7391  1.2107
12267TIP3   OH258215   4.285   4.058   5.056  0.3171 -0.2516  0.6008
12267TIP3    H158216   4.294   4.094   4.968 -1.9350 -0.3585  0.2746
12267TIP3    H258217   4.339   3.979   5.056 -0.2499 -0.6553 -0.9300
12268TIP3   OH258218   1.737   3.085   4.636  0.1954  0.3307 -0.1077
12268TIP3    H158219   1.735   3.083   4.540  3.8301 -0.0006 -0.3142
12268TIP3    H258220   1.785   3.165   4.657  2.1853 -1.1347  1.2462
12269TIP3   OH258221   2.847   4.529  15.538  0.0339 -0.2420 -0.5210
12269TIP3    H158222   2.886   4.511  15.452  0.4224  1.6666 -0.7990
12269TIP3    H258223   2.847   4.444  15.583  2.9422 -0.6939 -1.1541
12270TIP3   OH258224   0.434   4.796   2.332  0.4308 -0.1642  0.3717
12270TIP3    H158225   0.375   4.870   2.318 -0.2033 -0.7486 -0.1159
12270TIP3    H258226   0.439   4.788   2.427  1.1019  0.9576  0.4507
12271TIP3   OH258227   5.467   1.766  16.584 -0.2301  0.1017  0.1020
12271TIP3    H158228   5.497   1.675  16.590 -0.3535  0.1605  2.5323
12271TIP3    H258229   5.515   1.811  16.653  2.2174  2.6915 -2.9400
12272TIP3   OH258230   4.437   1.909   3.514  0.7015  0.8454  0.2272
12272TIP3    H158231   4.367   1.930   3.452  0.3990 -1.9490 -0.5234
12272TIP3    H258232   4.464   1.994   3.549 -2.0509  2.1569 -0.5234
12273TIP3   OH258233   4.289   4.808  13.180 -0.5234  0.2603  0.0697
12273TIP3    H158234   4.261   4.730  13.132 -1.5830 -0.3344  1.5781
12273TIP3    H258235   4.384   4.799  13.187 -0.6884 -1.2668  0.7725
12274TIP3   OH258236   4.597   2.426   0.235 -0.5677  0.5165 -0.4277
12274TIP3    H158237   4.615   2.520   0.233 -1.0583  0.6517  0.5812
12274TIP3    H258238   4.526   2.417   0.299  0.0243 -0.6182  0.1078
12275TIP3   OH258239   2.668   0.372  17.134 -0.6480 -0.1010 -0.1958
12275TIP3    H158240   2.641   0.312  17.064  1.2472  0.2058 -1.2428
12275TIP3    H258241   2.689   0.315  17.208 -0.4844 -0.6141 -0.6332
12276TIP3   OH258242   0.113   0.252  15.396  0.3321  0.5589 -0.2497
12276TIP3    H158243   0.038   0.240  15.337  1.5820 -0.5890 -1.6690
12276TIP3    H258244   0.099   0.189  15.466 -0.6509  1.2209  0.1684
12277TIP3   OH258245   3.572   0.600   2.916  0.0498  0.3006 -0.5114
12277TIP3    H158246   3.487   0.613   2.874  0.2998  2.2649 -0.5017
12277TIP3    H258247   3.600   0.513   2.887 -1.4429  0.0889 -1.4222
12278TIP3   OH258248   5.314   1.947   1.372 -0.1000 -0.0646  0.3072
12278TIP3    H158249   5.278   1.871   1.417  0.5613  0.0183  0.9905
12278TIP3    H258250   5.398   1.964   1.415 -0.8082  1.8197  1.0558
12279TIP3   OH258251   1.663   6.738   5.904 -0.0684  0.1871 -0.1446
12279TIP3    H158252   1.647   6.829   5.879  0.2783  0.0247 -0.9603
12279TIP3    H258253   1.587   6.691   5.872 -0.0601  0.1226 -0.0703
12280TIP3   OH258254   5.222   2.512   3.601  0.0883  0.4082  0.2679
12280TIP3    H158255   5.234   2.441   3.664 -0.9704  1.4742  1.7294
12280TIP3    H258256   5.132   2.501   3.569 -1.7839  3.4348  3.7427
12281TIP3   OH258257   4.643   6.092   1.070 -0.3310  0.1568  0.0566
12281TIP3    H158258   4.671   6.004   1.046 -2.1372 -0.8592  1.3874
12281TIP3    H258259   4.605   6.082   1.158 -1.6656  2.0185 -0.2531
12282TIP3   OH258260   3.596   3.018   3.519 -0.2331  0.4090 -0.0064
12282TIP3    H158261   3.602   2.944   3.458 -0.3163 -1.1159  1.7367
12282TIP3    H258262   3.546   3.084   3.471  2.6996  0.7740 -2.9074
12283TIP3   OH258263   3.123   4.437  12.941  0.2554 -0.3564 -0.2175
12283TIP3    H158264   3.058   4.461  13.007 -0.0913 -2.0506  0.1088
12283TIP3    H258265   3.076   4.379  12.881  0.5401  1.2016 -2.0475
12284TIP3   OH258266   6.528   6.229   6.056 -0.0795 -0.1538 -0.3666
12284TIP3    H158267   6.502   6.159   6.116 -3.4038  0.2323 -1.1659
12284TIP3    H258268   6.550   6.303   6.113 -0.9427 -0.5043  0.4535
12285TIP3   OH258269   5.779   2.965   0.485 -0.1919 -0.5887 -0.1440
12285TIP3    H158270   5.743   3.048   0.516 -0.6400 -1.1065  0.7708
12285TIP3    H258271   5.869   2.986   0.458  0.0010  0.0325  0.9184
12286TIP3   OH258272   0.532   5.927  10.701  0.3410  0.3635  0.2454
12286TIP3    H158273   0.486   5.870  10.638 -0.6315 -0.7360  1.8728
12286TIP3    H258274   0.504   6.016  10.677  0.0061 -0.0147 -0.8598
12287TIP3   OH258275   0.168   2.859   0.792 -0.3957 -0.4449 -0.2508
12287TIP3    H158276   0.078   2.882   0.817  0.7113  0.5862  3.4009
12287TIP3    H258277   0.212   2.943   0.783  0.7547 -0.9595  0.4539
12288TIP3   OH258278   1.408   5.141   4.846  0.0028 -0.3330  0.3691
12288TIP3    H158279   1.322   5.099   4.843 -0.3329 -0.0431  3.1500
12288TIP3    H258280   1.467   5.077   4.806 -1.0466 -1.9787  1.2833
12289TIP3   OH258281   5.071   4.898   3.770  0.0260  0.1818 -0.4174
12289TIP3    H158282   4.981   4.870   3.758  0.4746 -0.6404 -2.2912
12289TIP3    H258283   5.072   4.990   3.743 -0.1265 -0.0146 -1.1069
12290TIP3   OH258284   2.411   3.595   1.331 -0.1097 -0.8075 -0.2206
12290TIP3    H158285   2.425   3.593   1.236  2.2482  1.4124 -0.0282
12290TIP3    H258286   2.480   3.539   1.367 -0.1536 -0.5658  0.2464
12291TIP3   OH258287   4.059   1.282   3.211 -0.1157  0.1547 -0.0012
12291TIP3    H158288   3.966   1.264   3.213  0.1136 -1.0825  2.0573
12291TIP3    H258289   4.101   1.196   3.217  1.1163  0.8072  1.4385
12292TIP3   OH258290   5.688   6.201   2.771  0.4969 -0.1830  0.0882
12292TIP3    H158291   5.622   6.150   2.724  0.2763  0.2905 -0.1250
12292TIP3    H258292   5.664   6.194   2.863  0.3315 -0.2654  0.0388
12293TIP3   OH258293   6.455   2.559  13.764  0.2577 -0.2505 -0.1168
12293TIP3    H158294   6.523   2.612  13.722 -1.1237  1.7552  0.0472
12293TIP3    H258295   6.424   2.501  13.695  2.2427 -1.4020 -0.1313
12294TIP3   OH258296   5.316   3.093   3.469 -0.4210  0.3799 -0.7626
12294TIP3    H158297   5.374   3.149   3.418 -0.5235  2.7382  1.5509
12294TIP3    H258298   5.228   3.128   3.452 -0.4827  1.0254  0.7306
12295TIP3   OH258299   1.055   5.934  13.477 -0.6890 -0.0743  0.0987
12295TIP3    H158300   1.142   5.937  13.438  0.0008  0.3545  1.6295
12295TIP3    H258301   1.000   5.894  13.409  0.8540 -1.1386 -0.5725
12296TIP3   OH258302   5.451   3.634  13.907  0.6627  0.1902 -0.3931
12296TIP3    H158303   5.483   3.701  13.968 -1.4839  1.9864 -1.0881
12296TIP3    H258304   5.463   3.673  13.820 -3.4526  1.2394 -0.7062
12297TIP3   OH258305   0.493   5.204   2.386  0.1394 -0.5839  0.1497
12297TIP3    H158306   0.570   5.169   2.431  0.8562  2.0390  1.1251
12297TIP3    H258307   0.423   5.142   2.407  1.1865 -1.1476  2.2387
12298TIP3   OH258308   5.457   1.769  12.192  0.4102 -0.0835  0.2071
12298TIP3    H158309   5.552   1.766  12.200  0.6600  0.0266 -2.0155
12298TIP3    H258310   5.436   1.863  12.193  0.1478 -0.1340  1.9914
12299TIP3   OH258311   5.310   0.553   3.475  0.7184  0.6697  0.4009
12299TIP3    H158312   5.328   0.585   3.563 -1.1346  0.1710  0.9998
12299TIP3    H258313   5.356   0.469   3.469  1.6347  1.1522  0.5280
12300TIP3   OH258314   5.885   1.288  13.702 -0.0616 -0.1381 -0.8533
12300TIP3    H158315   5.871   1.278  13.797  0.2295 -0.9516 -0.8931
12300TIP3    H258316   5.857   1.204  13.665  0.0421  0.0981 -1.4685
12301TIP3   OH258317   2.590   2.299  10.984  0.4705 -0.3301 -0.3682
12301TIP3    H158318   2.648   2.236  10.941  3.5661  2.0862 -0.1490
12301TIP3    H258319   2.583   2.268  11.074  1.8432 -0.4834 -0.2923
12302TIP3   OH258320   1.672   5.840  15.769 -0.6370 -0.4332 -0.2014
12302TIP3    H158321   1.638   5.883  15.847 -1.6134  1.1611 -1.4515
12302TIP3    H258322   1.681   5.748  15.795 -1.4121 -0.0456  1.6195
12303TIP3   OH258323   2.323   4.807   2.754  0.4625 -0.0657 -0.2856
12303TIP3    H158324   2.301   4.897   2.778  0.3505  0.1549 -1.1792
12303TIP3    H258325   2.364   4.814   2.668  1.5491 -0.7557  0.1511
12304TIP3   OH258326   1.862   4.233  12.124  0.2565  0.0453  0.4476
12304TIP3    H158327   1.920   4.215  12.197 -1.3331  0.1196  1.7846
12304TIP3    H258328   1.839   4.147  12.090  0.7104 -0.0030  0.2555
12305TIP3   OH258329   5.441   2.229   0.828 -0.2394 -0.4237  0.0006
12305TIP3    H158330   5.480   2.316   0.817  0.5032 -0.7645 -0.1815
12305TIP3    H258331   5.386   2.218   0.751 -0.5729  0.0020  0.1730
12306TIP3   OH258332   3.761   6.152   1.433  0.4881  0.3714  0.1632
12306TIP3    H158333   3.755   6.241   1.398  1.1323  0.8498  1.2394
12306TIP3    H258334   3.670   6.121   1.437  0.3336  0.6215 -1.0825
12307TIP3   OH258335   2.193   3.040  16.247 -0.4454 -0.2526  0.1412
12307TIP3    H158336   2.158   3.116  16.294 -1.2202  0.2088 -1.1156
12307TIP3    H258337   2.141   2.966  16.278  0.9952 -0.5188  2.1515
12308TIP3   OH258338   0.535   3.919  16.050 -0.3379 -0.0697  0.6458
12308TIP3    H158339   0.607   3.981  16.042  0.5786 -1.0377  1.2123
12308TIP3    H258340   0.508   3.901  15.960  4.2003 -4.3533 -0.3245
12309TIP3   OH258341   3.592   2.582  14.081  0.2057 -0.4076 -0.0657
12309TIP3    H158342   3.573   2.671  14.050  0.6745 -0.3606 -0.2276
12309TIP3    H258343   3.510   2.553  14.121 -0.6300 -0.7022 -1.8948
12310TIP3   OH258344   4.984   4.088   6.154  0.2767  0.0387 -0.5698
12310TIP3    H158345   5.051   4.144   6.114 -1.1984  0.7776 -2.1930
12310TIP3    H258346   4.933   4.148   6.209 -0.5701  0.0847 -1.3650
12311TIP3   OH258347   3.555   4.385  12.519 -0.3037  0.0994  0.2180
12311TIP3    H158348   3.495   4.451  12.484 -0.5284 -0.6624 -0.8817
12311TIP3    H258349   3.642   4.422  12.505 -0.4627  0.7069  0.7792
12312TIP3   OH258350   4.709   6.005   2.842  0.0028  0.3024  0.5054
12312TIP3    H158351   4.786   5.949   2.832  0.9638  1.7990 -1.0197
12312TIP3    H258352   4.702   6.020   2.936  1.0930 -0.5122  0.7331
12313TIP3   OH258353   4.374   1.326   5.994 -0.4208  0.0284  0.2150
12313TIP3    H158354   4.315   1.360   5.926  0.0043 -1.2627 -0.8329
12313TIP3    H258355   4.315   1.297   6.063 -0.9912 -0.6103 -0.5210
12314TIP3   OH258356   4.534   6.083   6.586  0.4483 -0.1506 -0.1674
12314TIP3    H158357   4.528   6.171   6.551 -0.6767 -1.2336 -2.9485
12314TIP3    H258358   4.628   6.063   6.584  0.6227  0.6481 -0.3613
12315TIP3   OH258359   0.111   4.205   0.038 -0.3165 -0.3523 -0.4599
12315TIP3    H158360   0.069   4.218   0.123  0.6868 -0.7712  0.1329
12315TIP3    H258361   0.115   4.292  -0.001 -0.7815 -0.1532 -0.0640
12316TIP3   OH258362   0.643   2.236  12.076 -0.1225  0.5300  0.1767
12316TIP3    H158363   0.628   2.182  11.999 -2.9498 -0.8414  1.5165
12316TIP3    H258364   0.698   2.183  12.133  0.8003  0.9682 -0.2818
12317TIP3   OH258365   5.604   1.650   1.239 -0.2499 -0.7213 -0.1970
12317TIP3    H158366   5.539   1.697   1.292 -0.5095 -1.3046  0.0092
12317TIP3    H258367   5.564   1.643   1.152  0.3118  0.5269 -0.5939
12318TIP3   OH258368   1.208   2.537  11.383  0.1029  0.2885  0.2063
12318TIP3    H158369   1.273   2.467  11.394  0.4512  0.5715 -0.0202
12318TIP3    H258370   1.176   2.554  11.472  0.2927  0.0983  0.3132
12319TIP3   OH258371   1.294   3.934  16.554  0.1130  0.5150 -0.6661
12319TIP3    H158372   1.381   3.903  16.578  0.5106  1.4270 -0.8781
12319TIP3    H258373   1.240   3.855  16.549  0.3968  0.0957  1.5954
12320TIP3   OH258374   1.178   2.269   5.015  0.3870  0.4995 -0.2788
12320TIP3    H158375   1.135   2.327   4.953 -1.7752 -1.5465 -0.8615
12320TIP3    H258376   1.129   2.280   5.097 -0.2875 -0.6849 -0.4963
12321TIP3   OH258377   0.083   1.197  10.630  0.4194  0.0944  0.0246
12321TIP3    H158378   0.076   1.251  10.552  1.5566 -0.9153 -0.8243
12321TIP3    H258379   0.059   1.109  10.600 -1.4108  0.0814  1.3765
12322TIP3   OH258380   3.493   3.105  16.870 -0.0974  0.3920  1.1003
12322TIP3    H158381   3.416   3.158  16.892  0.7555  2.9818 -1.6112
12322TIP3    H258382   3.563   3.141  16.923 -0.3286 -0.8240  2.2806
12323TIP3   OH258383   3.722   4.081   2.386 -1.0885 -0.2563 -0.8387
12323TIP3    H158384   3.752   4.129   2.309 -1.0354 -2.2142 -2.0909
12323TIP3    H258385   3.746   4.138   2.460 -1.3838  1.7922 -2.2358
12324TIP3   OH258386   2.239   6.654  15.151  0.2804 -0.0804  0.3393
12324TIP3    H158387   2.254   6.706  15.230  0.3457  0.3891  0.0215
12324TIP3    H258388   2.176   6.587  15.178  0.0026  0.3172  0.6974
12325TIP3   OH258389   1.620   4.604   6.610 -0.1278  0.3186  0.3690
12325TIP3    H158390   1.632   4.509   6.605 -1.5755  0.1675 -2.5899
12325TIP3    H258391   1.693   4.639   6.560 -0.4893  0.6144  0.0375
12326TIP3   OH258392   4.873   0.595  11.833 -0.2245  0.2773 -0.5133
12326TIP3    H158393   4.795   0.634  11.872  1.6845  3.4398  0.5548
12326TIP3    H258394   4.884   0.642  11.751 -0.5313 -1.6363 -1.6957
12327TIP3   OH258395   4.701   4.106  12.446 -0.7351 -0.5092 -0.6051
12327TIP3    H158396   4.706   4.036  12.381 -3.6684 -0.8844 -0.5656
12327TIP3    H258397   4.685   4.061  12.529 -1.8656  0.1154 -0.4534
12328TIP3   OH258398   5.314   3.505   3.193 -0.8171 -0.8545 -0.6676
12328TIP3    H158399   5.339   3.570   3.260 -0.6315 -0.1816 -1.3762
12328TIP3    H258400   5.240   3.458   3.231 -1.2967  0.1391 -0.3570
12329TIP3   OH258401   2.854   5.978   6.354 -0.4368  0.5566 -0.1270
12329TIP3    H158402   2.828   6.060   6.396  2.8039  2.3951 -1.3475
12329TIP3    H258403   2.942   5.961   6.387 -0.0863 -1.1262 -1.7685
12330TIP3   OH258404   4.362   6.364   0.651 -0.3395  0.1161  0.0526
12330TIP3    H158405   4.269   6.370   0.632 -0.5316 -0.8764  0.5674
12330TIP3    H258406   4.405   6.404   0.575 -1.1769  0.4137 -0.2757
12331TIP3   OH258407   2.863   0.405   0.874  0.4144  0.4251  0.1427
12331TIP3    H158408   2.781   0.425   0.828  1.7043  3.2496 -1.1778
12331TIP3    H258409   2.857   0.455   0.955  1.6755  2.5151 -0.9802
12332TIP3   OH258410   2.760   2.529  15.085  0.6423  0.1998 -0.5519
12332TIP3    H158411   2.801   2.598  15.032  0.0559  0.5394 -0.5671
12332TIP3    H258412   2.668   2.552  15.087  0.8831  1.1781  2.1166
12333TIP3   OH258413   6.068   1.633   5.096 -0.6692 -0.2575 -0.2012
12333TIP3    H158414   6.039   1.559   5.150  0.7942 -0.0000  1.0122
12333TIP3    H258415   6.114   1.592   5.022 -1.8806 -0.5937 -0.7833
12334TIP3   OH258416   0.678   5.071  13.374 -0.6800 -0.3404 -0.3013
12334TIP3    H158417   0.723   4.989  13.392 -0.8021 -0.5937 -1.1460
12334TIP3    H258418   0.641   5.096  13.459  1.8067  0.3707  0.6914
12335TIP3   OH258419   6.423   1.212  11.747  0.0791  0.3730 -0.1325
12335TIP3    H158420   6.378   1.288  11.784 -0.5702  0.7010 -1.4997
12335TIP3    H258421   6.371   1.190  11.669  0.5663 -1.1487 -0.0494
12336TIP3   OH258422   2.914   2.572  11.389 -0.1781  0.4305 -0.1278
12336TIP3    H158423   2.862   2.647  11.360 -2.0722 -0.3821  1.0087
12336TIP3    H258424   2.938   2.593  11.479 -0.2225 -0.0867  0.0028
12337TIP3   OH258425   4.529   4.177   1.564  0.2306 -0.0191  0.2507
12337TIP3    H158426   4.502   4.188   1.655  0.7850  0.6713  0.3422
12337TIP3    H258427   4.605   4.235   1.554 -0.2630  0.4791 -0.8440
12338TIP3   OH258428   4.051   2.182  13.024  0.0718  0.6777 -0.3592
12338TIP3    H158429   4.000   2.102  13.025 -0.4737  1.0218 -0.2309
12338TIP3    H258430   4.135   2.157  12.984 -0.3952  0.2301 -1.0645
12339TIP3   OH258431   4.488   1.777  13.474 -0.0093 -0.0671  0.0832
12339TIP3    H158432   4.561   1.752  13.532 -0.6553 -1.7650  0.2300
12339TIP3    H258433   4.471   1.869  13.495  1.5488  0.1270  0.6339
12340TIP3   OH258434   3.991   3.546   4.996  0.2006 -0.4201 -0.3447
12340TIP3    H158435   3.959   3.585   5.077  2.9101  1.4928 -0.0694
12340TIP3    H258436   3.950   3.459   4.993  0.1317 -0.6556  3.1652
12341TIP3   OH258437   1.297   4.594   6.136 -0.6220 -0.1106  0.5715
12341TIP3    H158438   1.234   4.579   6.206 -1.7403  1.5370 -0.0302
12341TIP3    H258439   1.382   4.593   6.180 -1.3178  1.2720  2.0490
12342TIP3   OH258440   1.515   5.366  12.076 -0.5549 -0.1020  0.0629
12342TIP3    H158441   1.561   5.413  12.007  0.2900  0.6416  1.0914
12342TIP3    H258442   1.537   5.414  12.156  0.2148 -2.1584  1.1485
12343TIP3   OH258443   4.769   2.693  11.919 -0.1768 -0.7437  0.4807
12343TIP3    H158444   4.746   2.677  12.010  1.1289 -0.1968  0.9280
12343TIP3    H258445   4.838   2.629  11.900  0.9628  0.4082  0.5199
12344TIP3   OH258446   2.247   1.234   2.895  0.0242  0.5540  0.6717
12344TIP3    H158447   2.195   1.276   2.964 -0.7925 -1.0691  1.1071
12344TIP3    H258448   2.332   1.219   2.936  0.3856  1.9153  0.4467
12345TIP3   OH258449   3.281   2.609  11.710  0.0767  0.9699 -0.3587
12345TIP3    H158450   3.296   2.692  11.664 -0.8776 -0.4192 -3.4295
12345TIP3    H258451   3.205   2.626  11.766 -0.8213  1.9291 -1.7910
12346TIP3   OH258452   2.690   3.898  17.013 -0.4493 -0.5311 -0.3870
12346TIP3    H158453   2.683   3.970  16.950  0.5350  0.3013  0.4010
12346TIP3    H258454   2.649   3.823  16.970 -0.7515  0.2857 -1.5669
12347TIP3   OH258455   2.161   4.966  12.675  0.0806  0.7356  0.9837
12347TIP3    H158456   2.097   4.974  12.746 -0.5002  2.1534  0.3394
12347TIP3    H258457   2.147   5.044  12.621  0.0760 -0.5953 -1.0549
12348TIP3   OH258458   2.917   4.199   5.269  0.2000  0.2111 -0.3124
12348TIP3    H158459   2.984   4.254   5.227  0.0838  1.2382  0.7688
12348TIP3    H258460   2.937   4.206   5.363 -2.4733  2.0872  0.2383
12349TIP3   OH258461   0.268   1.459  14.321 -0.0873  0.1824  0.0625
12349TIP3    H158462   0.359   1.486  14.325  0.4169 -1.2064 -1.1881
12349TIP3    H258463   0.243   1.443  14.413  1.1421 -0.1019  0.3594
12350TIP3   OH258464   6.713   0.243   2.350 -0.6004 -0.0479  0.7221
12350TIP3    H158465   6.807   0.255   2.338  0.0182 -0.7563  3.8231
12350TIP3    H258466   6.697   0.153   2.321  0.1879 -0.6998  2.1730
12351TIP3   OH258467   6.536   5.931   1.366  0.2369  0.4791  0.3709
12351TIP3    H158468   6.571   5.919   1.277  0.7667 -0.5168  0.7012
12351TIP3    H258469   6.605   5.978   1.413  0.9508 -1.0541  0.8883
12352TIP3   OH258470   3.289   2.104  11.361 -0.5404  0.5278 -0.1061
12352TIP3    H158471   3.379   2.103  11.328 -0.4278 -0.6965  0.1768
12352TIP3    H258472   3.245   2.173  11.311  0.3516  0.6157 -0.7938
12353TIP3   OH258473   1.006   0.707   1.851 -0.3047 -0.3915 -0.6915
12353TIP3    H158474   1.029   0.745   1.936 -1.6603  1.1763 -0.9778
12353TIP3    H258475   0.936   0.644   1.871 -2.2388  1.5907 -0.8039
12354TIP3   OH258476   6.450   2.122   0.287 -0.1832  0.5220 -0.0608
12354TIP3    H158477   6.377   2.062   0.303 -1.2114  2.1335  1.6835
12354TIP3    H258478   6.423   2.205   0.326  1.9272  1.6501 -0.8022
12355TIP3   OH258479   1.781   4.027   3.632  0.2732  0.3399  0.7099
12355TIP3    H158480   1.698   4.065   3.661  0.6352  0.4517  1.6362
12355TIP3    H258481   1.794   3.950   3.687 -0.6795 -1.4810 -1.4709
12356TIP3   OH258482   0.741   0.473   2.318 -0.1460 -0.6009  0.2031
12356TIP3    H158483   0.755   0.538   2.387  1.0024  1.0864 -1.4924
12356TIP3    H258484   0.671   0.511   2.264  1.8523  0.3704 -1.9287
12357TIP3   OH258485   5.456   0.917   5.136  0.2889 -0.4498  0.1725
12357TIP3    H158486   5.398   0.941   5.209  0.1524 -0.4971  0.0813
12357TIP3    H258487   5.528   0.870   5.177  1.1932  1.1615  0.5024
12358TIP3   OH258488   4.983   3.226  16.253  0.0693 -0.0818  0.1554
12358TIP3    H158489   5.020   3.315  16.246  0.6960 -0.3925 -0.7902
12358TIP3    H258490   5.055   3.169  16.226 -0.0584 -0.9506  1.5899
12359TIP3   OH258491   4.570   1.684   2.171 -0.3744 -0.9898 -0.4197
12359TIP3    H158492   4.556   1.650   2.082 -1.2337  0.7467 -0.9842
12359TIP3    H258493   4.526   1.769   2.171  0.0234 -0.7558  1.5411
12360TIP3   OH258494   3.910   0.819  12.016 -0.7366 -0.1543 -0.1123
12360TIP3    H158495   3.935   0.843  12.105 -1.3742  1.1789 -0.2706
12360TIP3    H258496   3.816   0.833  12.013 -0.7486 -0.3759 -0.9450
12361TIP3   OH258497   0.799   0.126  12.877 -0.6174  0.0713 -0.2512
12361TIP3    H158498   0.786   0.215  12.911  0.1042  0.1088 -0.0558
12361TIP3    H258499   0.858   0.138  12.803  1.3803 -0.4719  1.1869
12362TIP3   OH258500   1.357   6.295  15.378  0.5591 -0.0161  0.5146
12362TIP3    H158501   1.301   6.352  15.326  0.8126  0.1151  0.3787
12362TIP3    H258502   1.298   6.232  15.419  0.5684 -2.1575 -2.4141
12363TIP3   OH258503   3.410   6.725  13.350 -0.5619  0.2496  0.4400
12363TIP3    H158504   3.460   6.645  13.339  2.4858  1.7057  2.1799
12363TIP3    H258505   3.396   6.732  13.445 -2.4695  0.8962  0.1698
12364TIP3   OH258506   2.403   5.755   5.961  0.3915 -0.3928 -0.3974
12364TIP3    H158507   2.406   5.807   5.880 -2.5154 -0.7699 -0.8411
12364TIP3    H258508   2.489   5.768   6.000  2.0333 -0.3821 -3.6332
12365TIP3   OH258509   6.698   5.787  15.730  0.3540 -0.0723  0.7561
12365TIP3    H158510   6.672   5.836  15.807  2.0588  0.4573  1.0446
12365TIP3    H258511   6.725   5.854  15.667  0.7120 -0.5633  0.3810
12366TIP3   OH258512   6.318   3.347   4.206  0.4166 -0.0374 -0.3011
12366TIP3    H158513   6.260   3.337   4.130 -1.7346  0.1071  1.2457
12366TIP3    H258514   6.362   3.262   4.213 -1.0577 -0.8248 -0.3815
12367TIP3   OH258515   5.471   4.587   4.272  0.8395 -0.6913  0.1619
12367TIP3    H158516   5.388   4.628   4.297  0.1252 -1.3239 -1.0413
12367TIP3    H258517   5.528   4.659   4.249 -0.0966 -0.2999 -1.0542
12368TIP3   OH258518   3.653   4.709   0.225 -0.3130  0.5534 -0.3693
12368TIP3    H158519   3.571   4.703   0.177 -0.6387  1.3936  0.0794
12368TIP3    H258520   3.700   4.782   0.185  0.1527  0.1823 -0.5167
12369TIP3   OH258521   4.285   6.370   3.841 -0.1946  0.1735 -0.0319
12369TIP3    H158522   4.355   6.396   3.781  2.5439  1.0782  3.2355
12369TIP3    H258523   4.288   6.275   3.843  0.2411  0.1703 -0.6458
12370TIP3   OH258524   4.493   0.151  16.727 -0.6551 -0.2282  0.7256
12370TIP3    H158525   4.550   0.220  16.692  0.6977 -0.4414  2.3754
12370TIP3    H258526   4.518   0.073  16.678 -0.0573 -0.1506  0.8938
12371TIP3   OH258527   2.488   6.610   3.921 -0.0161  0.9297  0.0382
12371TIP3    H158528   2.453   6.532   3.964  1.5291 -0.3453 -0.9113
12371TIP3    H258529   2.412   6.652   3.882 -0.9375  0.1080  0.9009
12372TIP3   OH258530   3.373   1.220  13.103 -0.4914  0.2586 -0.0745
12372TIP3    H158531   3.278   1.226  13.101 -0.4858  0.3889  0.0734
12372TIP3    H258532   3.401   1.255  13.018 -0.5498  0.6613  0.0714
12373TIP3   OH258533   5.995   0.225   1.407  0.0676 -0.7240 -0.1392
12373TIP3    H158534   5.939   0.251   1.481 -0.7775 -0.6762 -0.7784
12373TIP3    H258535   6.001   0.305   1.354  1.1263 -0.6001  0.1475
12374TIP3   OH258536   3.002   3.000   0.311  0.2150  0.2093 -0.0353
12374TIP3    H158537   2.949   2.971   0.386  0.4145  1.0015  0.4300
12374TIP3    H258538   3.005   2.925   0.252  2.6504 -1.5459  2.1393
12375TIP3   OH258539   6.096   5.400  12.166  0.3570 -0.7905 -0.0924
12375TIP3    H158540   6.099   5.495  12.169 -1.6814 -0.7081  0.3075
12375TIP3    H258541   6.112   5.378  12.074 -1.8687  0.1178 -0.7475
12376TIP3   OH258542   4.044   6.072  16.573  0.2106 -0.1295 -0.2297
12376TIP3    H158543   3.999   6.140  16.623  1.4859  0.2286  0.4697
12376TIP3    H258544   4.034   6.099  16.481 -0.2063  0.4178 -0.0301
12377TIP3   OH258545   1.615   2.445  13.409 -0.4409  0.1619  0.5372
12377TIP3    H158546   1.631   2.356  13.378 -0.1097  0.5002 -0.2841
12377TIP3    H258547   1.563   2.433  13.489 -1.2262 -0.7361 -0.0822
12378TIP3   OH258548   1.651   5.526   0.757  0.0756  0.0314  0.1944
12378TIP3    H158549   1.708   5.509   0.681 -0.7352 -0.3403 -0.3510
12378TIP3    H258550   1.662   5.619   0.775 -0.3643  0.3198 -0.9310
12379TIP3   OH258551   5.209   2.589   1.631  0.4399  0.0242  0.2539
12379TIP3    H158552   5.144   2.658   1.644  0.1911 -0.3396  0.9977
12379TIP3    H258553   5.183   2.546   1.550  0.3116  0.4908  0.0454
12380TIP3   OH258554   3.523   2.307  14.662  0.1187 -0.4127 -0.1942
12380TIP3    H158555   3.470   2.371  14.613  0.5412  1.6583  1.8499
12380TIP3    H258556   3.610   2.315  14.624  0.6883  1.9286  1.4005
12381TIP3   OH258557   5.959   0.595  14.892  0.2400 -0.3452 -0.4685
12381TIP3    H158558   5.898   0.650  14.843 -2.1515 -2.6388 -0.3295
12381TIP3    H258559   5.973   0.519  14.835 -0.2478 -1.7034  1.1519
12382TIP3   OH258560   4.902   4.607   5.906  0.5010  0.2476 -0.4531
12382TIP3    H158561   4.919   4.598   6.000  0.0370 -1.2342 -0.4888
12382TIP3    H258562   4.937   4.693   5.884  3.7173 -0.6978  0.3891
12383TIP3   OH258563   2.259   6.437   0.652  0.1946  0.4514 -0.4428
12383TIP3    H158564   2.254   6.461   0.560  0.1588  2.4634  0.0257
12383TIP3    H258565   2.329   6.493   0.687 -0.3800  0.3571  0.9118
12384TIP3   OH258566   1.996   5.016  13.864 -0.1544  0.4386  0.0972
12384TIP3    H158567   2.045   4.937  13.885 -2.2719 -0.7262  0.9317
12384TIP3    H258568   2.058   5.087  13.881  0.6644 -0.8282  3.1424
12385TIP3   OH258569   1.740   4.909  12.537 -0.1953  0.4581  1.1366
12385TIP3    H158570   1.782   4.823  12.542 -0.5189  0.2140  0.0614
12385TIP3    H258571   1.705   4.913  12.448  2.0071  2.7303  0.2459
12386TIP3   OH258572   1.059   0.164   1.691 -0.0072 -0.5993  0.5209
12386TIP3    H158573   1.128   0.112   1.732  0.8868  1.0092  1.1637
12386TIP3    H258574   1.100   0.204   1.615  0.9955  3.1071  2.7239
12387TIP3   OH258575   4.988   3.576   3.244 -0.4265  0.1130 -0.4961
12387TIP3    H158576   5.013   3.663   3.274  0.9465 -0.0488 -1.1245
12387TIP3    H258577   4.908   3.556   3.294  0.4498  0.8259  1.2967
12388TIP3   OH258578   2.962   6.370   3.495 -0.1261 -0.0042  0.2573
12388TIP3    H158579   2.928   6.453   3.529  0.1957  1.0096 -1.7193
12388TIP3    H258580   3.051   6.364   3.530 -0.3514  0.1739  0.8761
12389TIP3   OH258581   2.786   1.984   2.874  0.0121 -0.8626 -0.5742
12389TIP3    H158582   2.832   1.929   2.937 -0.6678  0.6692  1.3733
12389TIP3    H258583   2.813   2.073   2.896 -0.4417 -0.2442 -2.3291
12390TIP3   OH258584   3.142   4.409  15.072  0.3305  0.0588 -0.1869
12390TIP3    H158585   3.193   4.459  15.009  1.7838 -0.7352  0.3140
12390TIP3    H258586   3.091   4.347  15.019 -0.2599  0.9613 -0.6982
12391TIP3   OH258587   4.309   3.985   4.399  0.5487  0.0628 -0.0448
12391TIP3    H158588   4.397   3.947   4.401 -0.0512 -1.3527  0.5781
12391TIP3    H258589   4.286   3.998   4.491 -0.0162  0.1259 -0.1918
12392TIP3   OH258590   2.638   5.547   2.949 -0.7512  0.4458 -0.5798
12392TIP3    H158591   2.649   5.639   2.926  0.8688  0.8232  1.4365
12392TIP3    H258592   2.656   5.500   2.868 -1.8323  1.8801 -1.7055
12393TIP3   OH258593   5.721   1.535  12.868  0.2780  0.2822 -0.2765
12393TIP3    H158594   5.792   1.535  12.803  0.9280  0.1128  0.4227
12393TIP3    H258595   5.688   1.445  12.866 -0.4701  0.5553 -1.1742
12394TIP3   OH258596   4.934   6.086   4.681 -0.2500  0.5990 -0.4755
12394TIP3    H158597   4.903   6.096   4.591 -0.6886 -1.7063 -0.6526
12394TIP3    H258598   4.855   6.062   4.731  0.6074 -2.2483 -0.3220
12395TIP3   OH258599   4.751   5.056   3.220  0.2960  0.0239  0.3085
12395TIP3    H158600   4.734   5.083   3.310  1.0970 -0.8636  0.7385
12395TIP3    H258601   4.680   4.996   3.199 -0.6711  1.2848 -0.1498
12396TIP3   OH258602   6.151   4.490  14.329  0.2228 -0.6183  0.4001
12396TIP3    H158603   6.152   4.395  14.313 -2.3115 -0.5015 -0.8183
12396TIP3    H258604   6.066   4.507  14.368 -0.0653  1.3574 -0.9323
12397TIP3   OH258605   5.673   6.661  14.481  0.2158  0.2624  0.2235
12397TIP3    H158606   5.646   6.646  14.390 -1.1836 -0.4490  0.7159
12397TIP3    H258607   5.671   6.756  14.491  1.3160  0.4058 -0.7373
12398TIP3   OH258608   5.138   3.166   3.256 -0.2525  0.4399 -0.1237
12398TIP3    H158609   5.204   3.100   3.233 -2.0327 -1.1338 -1.0703
12398TIP3    H258610   5.109   3.201   3.172 -0.3362  1.3842  0.2954
12399TIP3   OH258611   6.296   0.455   5.377  0.1946  1.4636 -0.2366
12399TIP3    H158612   6.329   0.460   5.467  1.4034  0.3015 -0.5820
12399TIP3    H258613   6.349   0.387   5.336 -1.2522  1.0303 -1.4627
12400TIP3   OH258614   5.086   4.949   6.692  0.5083  0.3022  0.2869
12400TIP3    H158615   5.012   4.979   6.640  1.0066 -0.7788 -1.1202
12400TIP3    H258616   5.089   4.854   6.677  0.6103 -0.0882  2.4129
12401TIP3   OH258617   0.502   1.820   4.914 -0.3102 -0.3781 -0.4561
12401TIP3    H158618   0.499   1.916   4.917  0.6226 -0.3436 -0.2138
12401TIP3    H258619   0.466   1.793   4.999 -0.6611 -0.2492 -0.5615
12402TIP3   OH258620   4.340   5.749   1.192  0.1273  0.0284  0.5704
12402TIP3    H158621   4.432   5.774   1.188  0.0651  0.2072  0.2370
12402TIP3    H258622   4.293   5.831   1.206 -0.1930  0.3430 -1.9428
12403TIP3   OH258623   3.200   0.110  12.274 -0.3366  0.0249  0.6004
12403TIP3    H158624   3.207   0.028  12.323  1.4179  0.4153  1.0710
12403TIP3    H258625   3.107   0.133  12.279 -0.8579 -1.8981  0.4746
12404TIP3   OH258626   4.722   2.058   3.227 -0.5689  0.2489  0.5796
12404TIP3    H158627   4.777   2.054   3.149 -1.5518  2.4766 -0.3085
12404TIP3    H258628   4.754   1.986   3.282  0.2636 -1.3047 -1.7550
12405TIP3   OH258629   3.194   6.514   2.654  0.2191 -0.1329 -0.0489
12405TIP3    H158630   3.178   6.543   2.744  2.3401  0.8303  0.0854
12405TIP3    H258631   3.126   6.558   2.603 -1.2258 -0.9535  1.0866
12406TIP3   OH258632   5.612   3.376  12.979 -0.0412  0.5236 -0.0580
12406TIP3    H158633   5.673   3.363  13.051  0.6751 -1.9322 -0.9970
12406TIP3    H258634   5.641   3.458  12.938 -0.3056  1.8270  2.1823
12407TIP3   OH258635   2.307   0.586  16.747 -0.0011 -0.0113 -0.4072
12407TIP3    H158636   2.393   0.594  16.788 -0.1496  0.2311 -0.1319
12407TIP3    H258637   2.325   0.574  16.654  0.3269  0.3511 -0.3963
12408TIP3   OH258638   5.346   0.001   1.334 -0.1794  0.8763  0.3819
12408TIP3    H158639   5.306  -0.044   1.409  0.2275 -0.3883 -0.1419
12408TIP3    H258640   5.410   0.060   1.374 -1.5852  1.9582  1.1478
12409TIP3   OH258641   2.717   4.028   1.312  0.0912  0.0762  0.4156
12409TIP3    H158642   2.722   4.049   1.405  2.4631 -0.2423  0.4415
12409TIP3    H258643   2.808   4.034   1.282 -0.5603 -0.2391 -1.7923
12410TIP3   OH258644   2.799   6.367  11.987 -0.1359 -0.3748 -0.3451
12410TIP3    H158645   2.740   6.442  11.978  1.7370  1.3277  0.7624
12410TIP3    H258646   2.855   6.371  11.909 -0.4929 -1.1063 -0.6535
12411TIP3   OH258647   6.680   0.847  11.786 -0.3502 -0.5139  0.1618
12411TIP3    H158648   6.608   0.813  11.732 -0.5834 -2.1592  1.4200
12411TIP3    H258649   6.636   0.881  11.865  0.1690 -0.3994  0.4047
12412TIP3   OH258650   4.196   1.435   1.053  0.1384 -0.4186  0.4211
12412TIP3    H158651   4.289   1.416   1.043  0.2666  0.6051 -0.4581
12412TIP3    H258652   4.166   1.372   1.119  1.9900  0.8484  2.6090
12413TIP3   OH258653   2.776   3.400  12.048 -0.4075 -0.0288 -0.2390
12413TIP3    H158654   2.806   3.457  11.977  1.1707 -2.5895 -1.7796
12413TIP3    H258655   2.690   3.369  12.020 -1.4289  1.7379  0.7672
12414TIP3   OH258656   2.941   5.676   6.796  0.0115 -0.6746  0.4944
12414TIP3    H158657   2.885   5.657   6.720  2.0124  0.7166 -1.4509
12414TIP3    H258658   3.018   5.621   6.783  1.9610  2.0716 -0.5180
12415TIP3   OH258659   3.195   1.907   1.429 -0.0759 -0.3467  0.6020
12415TIP3    H158660   3.218   1.820   1.462 -0.5633 -0.1681  1.4162
12415TIP3    H258661   3.277   1.941   1.394  1.0751  0.3991  3.7086
12416TIP3   OH258662   5.960   2.591  15.337 -0.3934  0.8756  0.0954
12416TIP3    H158663   5.961   2.512  15.284 -0.2400  0.8437  0.1463
12416TIP3    H258664   5.991   2.660  15.279 -0.6532  0.9243  0.0122
12417TIP3   OH258665   2.527   5.095  12.573 -0.0683  0.2657  0.6587
12417TIP3    H158666   2.447   5.146  12.584 -0.0415 -0.0649  2.8995
12417TIP3    H258667   2.598   5.159  12.575 -0.1673  0.3675  0.9943
12418TIP3   OH258668   3.573   5.661  11.062 -0.2086 -0.5075 -0.2277
12418TIP3    H158669   3.581   5.592  10.996  0.0485 -1.0856  0.3847
12418TIP3    H258670   3.605   5.620  11.143  1.3706  0.7794 -0.1452
12419TIP3   OH258671   3.477   5.809   5.706 -0.9244  0.0007  0.0733
12419TIP3    H158672   3.408   5.850   5.653  0.7362 -0.1610 -2.3872
12419TIP3    H258673   3.524   5.882   5.745 -2.1441  0.1274  1.3575
12420TIP3   OH258674   3.860   1.684  16.659  0.5894  0.1254 -0.4036
12420TIP3    H158675   3.777   1.689  16.610  0.8390  0.2558 -0.8135
12420TIP3    H258676   3.898   1.771  16.652  0.9968 -0.0662 -0.6335
12421TIP3   OH258677   3.583   0.741   4.766  0.0860  0.0781 -0.6742
12421TIP3    H158678   3.555   0.817   4.716 -0.2423 -1.1974 -2.5501
12421TIP3    H258679   3.510   0.722   4.824  0.1608  1.1534 -0.2176
12422TIP3   OH258680   3.190   1.372  11.508 -0.0524 -0.1075  0.7428
12422TIP3    H158681   3.207   1.323  11.428  0.6807 -0.8981  1.3648
12422TIP3    H258682   3.143   1.450  11.479 -1.0757 -1.0670 -0.2899
12423TIP3   OH258683   5.244   2.435   0.715  0.3344 -0.3380  0.0247
12423TIP3    H158684   5.333   2.454   0.744 -0.1640  0.9386  0.8017
12423TIP3    H258685   5.223   2.507   0.655 -0.2552 -0.4928  0.0434
12424TIP3   OH258686   3.752   0.785   0.919  0.5865  0.3179  0.0470
12424TIP3    H158687   3.757   0.843   0.995 -0.1099 -1.0482  1.1935
12424TIP3    H258688   3.672   0.811   0.874  0.8729  0.9750 -0.0922
12425TIP3   OH258689   2.264   5.169  15.481  0.4039 -0.6575  0.4643
12425TIP3    H158690   2.300   5.097  15.429 -1.1936 -0.2169 -1.3817
12425TIP3    H258691   2.180   5.189  15.439 -0.8707 -0.0667  3.0981
12426TIP3   OH258692   3.722   5.763  16.255 -0.5273 -0.6379 -0.1526
12426TIP3    H158693   3.681   5.699  16.197 -0.0068 -1.7291  0.6408
12426TIP3    H258694   3.743   5.838  16.199 -3.0485 -0.2621 -0.7055
12427TIP3   OH258695   3.625   4.825  12.002  0.2827 -0.1787  0.2680
12427TIP3    H158696   3.586   4.905  11.966  1.1557 -0.2695 -0.9730
12427TIP3    H258697   3.552   4.763  12.006  0.0610 -0.0481 -1.0774
12428TIP3   OH258698   2.986   5.677   1.854  0.0720  0.2549  0.0593
12428TIP3    H158699   3.025   5.761   1.830  0.8681 -0.1413 -0.0593
12428TIP3    H258700   3.037   5.612   1.805 -0.6565 -0.2868  0.0025
12429TIP3   OH258701   4.081   5.728   0.053  0.0089 -0.1171  0.1940
12429TIP3    H158702   4.040   5.719  -0.033  0.5411  0.6516 -0.1424
12429TIP3    H258703   4.008   5.717   0.115 -0.7097  1.1347 -0.3913
12430TIP3   OH258704   2.736   4.145  16.841  0.3235  0.9238  0.2201
12430TIP3    H158705   2.675   4.097  16.784  2.6491 -2.3606  0.1964
12430TIP3    H258706   2.821   4.136  16.798  1.2378  3.6033  1.2672
12431TIP3   OH258707   1.155   1.991   0.434  0.3985  0.1995 -0.5881
12431TIP3    H158708   1.158   1.918   0.372 -0.5450 -0.0003 -0.4131
12431TIP3    H258709   1.166   1.950   0.520 -3.1652 -0.2211 -0.1738
12432TIP3   OH258710   1.762   4.005  12.651 -0.7997  0.9987  0.0086
12432TIP3    H158711   1.687   4.046  12.695  1.3263  2.0266  3.0135
12432TIP3    H258712   1.726   3.925  12.612 -3.6530  2.0452  0.2487
12433TIP3   OH258713   5.471   0.268  13.937  0.5940  0.2914 -0.5104
12433TIP3    H158714   5.493   0.179  13.909  0.9654  0.2278 -0.0394
12433TIP3    H258715   5.379   0.264  13.960  0.7285 -0.1034 -0.0142
12434TIP3   OH258716   4.231   5.757  15.882  0.4752 -0.0849 -0.2516
12434TIP3    H158717   4.209   5.664  15.882 -2.4826  0.5000 -1.3211
12434TIP3    H258718   4.246   5.779  15.790  0.4412  0.6472 -0.0889
12435TIP3   OH258719   3.414   6.549   0.966 -0.3783 -0.7759  0.4853
12435TIP3    H158720   3.504   6.544   0.997 -0.7339 -1.6787  1.4528
12435TIP3    H258721   3.413   6.621   0.904  0.1429  1.9887  3.4543
12436TIP3   OH258722   5.453   3.507  15.293 -0.1667 -0.6502  0.8510
12436TIP3    H158723   5.439   3.584  15.348 -1.8321 -0.4559  0.1959
12436TIP3    H258724   5.371   3.496  15.246  2.2045  1.4880 -4.5489
12437TIP3   OH258725   2.711   1.869  12.854 -0.1242  0.4721  0.7360
12437TIP3    H158726   2.741   1.824  12.933  0.5873 -0.4317 -0.0203
12437TIP3    H258727   2.646   1.932  12.885  1.1604  1.1430  2.2068
12438TIP3   OH258728   3.762   2.847  15.008  0.2452 -0.0624  0.8416
12438TIP3    H158729   3.693   2.811  15.064  1.3481 -2.8618  0.5626
12438TIP3    H258730   3.828   2.880  15.070 -0.3205  0.5904  1.1142
12439TIP3   OH258731   2.402   0.564  16.464 -0.9259  0.4412  0.3139
12439TIP3    H158732   2.324   0.606  16.429 -1.4342  1.9231  2.9348
12439TIP3    H258733   2.474   0.623  16.440 -1.1388  0.9570  0.9146
12440TIP3   OH258734   4.895   4.233   6.732  0.0685  0.0954 -0.5218
12440TIP3    H158735   4.827   4.295   6.758  1.3479  1.1450  0.4617
12440TIP3    H258736   4.960   4.287   6.687  0.5138 -0.7966 -0.9626
12441TIP3   OH258737   1.462   5.859   2.153  0.5973  0.6422 -0.1040
12441TIP3    H158738   1.498   5.942   2.123  2.3552 -0.0274  0.0233
12441TIP3    H258739   1.492   5.794   2.089 -1.1707  0.1360 -0.4863
12442TIP3   OH258740   4.545   1.652   0.035 -0.3896 -0.3519 -0.0425
12442TIP3    H158741   4.541   1.609  -0.050  1.3204 -0.4011 -0.1214
12442TIP3    H258742   4.571   1.742   0.016 -1.3227  0.0200  0.3415
12443TIP3   OH258743   2.668   3.888  13.736  0.6838 -0.1997  0.7812
12443TIP3    H158744   2.584   3.929  13.757  0.2441 -1.1332  0.8620
12443TIP3    H258745   2.733   3.954  13.762 -0.0441  1.7899 -2.0169
12444TIP3   OH258746   2.125   6.022  15.607  0.0354  0.1211  0.2651
12444TIP3    H158747   2.068   6.094  15.633  0.9297  0.7453  0.5049
12444TIP3    H258748   2.079   5.943  15.637 -1.3943  0.4966 -0.7920
12445TIP3   OH258749   4.293   6.281  14.947 -0.2230  0.7447  0.2330
12445TIP3    H158750   4.375   6.264  14.994 -0.5225 -0.6100  0.3071
12445TIP3    H258751   4.258   6.195  14.927 -0.8389  1.2988 -1.2394
12446TIP3   OH258752   5.628   4.593   6.113  0.1438  0.5979  0.6747
12446TIP3    H158753   5.640   4.621   6.204 -3.1843 -1.5741  1.9620
12446TIP3    H258754   5.566   4.657   6.077  0.7548  0.9288  0.1970
12447TIP3   OH258755   3.593   2.707   0.500 -0.2377 -0.0683  0.9516
12447TIP3    H158756   3.569   2.615   0.488 -0.4570 -0.0143  0.9742
12447TIP3    H258757   3.687   2.709   0.483 -0.0446 -0.4664  1.8913
12448TIP3   OH258758   3.399   4.278   0.974 -0.3316 -0.1192  0.2223
12448TIP3    H158759   3.318   4.328   0.978 -1.3164 -1.6722  0.7108
12448TIP3    H258760   3.371   4.187   0.980  1.5209 -0.6705  1.6893
12449TIP3   OH258761   2.324   5.066   4.659 -0.3174  0.6045 -0.0675
12449TIP3    H158762   2.342   5.013   4.737 -0.3268  1.8938  0.8337
12449TIP3    H258763   2.372   5.021   4.589  1.0448  0.3209  1.0026
12450TIP3   OH258764   6.011   1.596  12.198 -0.2725 -0.4646 -0.4883
12450TIP3    H158765   6.072   1.586  12.125 -0.2646  1.8059 -0.8715
12450TIP3    H258766   6.062   1.639  12.267 -1.2491  1.0217 -0.6348
12451TIP3   OH258767   2.271   2.293   0.886  0.1992  0.8105 -0.0468
12451TIP3    H158768   2.207   2.283   0.957 -0.7050 -0.8616 -1.0340
12451TIP3    H258769   2.353   2.312   0.931 -0.5168  0.6532  1.4054
12452TIP3   OH258770   5.217   5.219  11.571  0.0946 -0.6650  0.1356
12452TIP3    H158771   5.155   5.146  11.567  0.6801 -1.2329  1.0124
12452TIP3    H258772   5.276   5.203  11.497 -0.8292 -0.0686 -0.7604
12453TIP3   OH258773   5.715   2.661   3.804  0.4953 -0.4376 -0.0793
12453TIP3    H158774   5.805   2.694   3.798  0.4652 -0.2215  0.6032
12453TIP3    H258775   5.724   2.566   3.796  0.6543 -0.3437 -1.2755
12454TIP3   OH258776   3.568   6.440   6.184  0.2438 -0.0883 -0.1149
12454TIP3    H158777   3.635   6.480   6.239 -0.1986  0.8511 -0.2416
12454TIP3    H258778   3.568   6.348   6.209  0.6896  0.1473  0.8006
12455TIP3   OH258779   4.609   1.927  11.874 -0.2365  0.0802  0.1790
12455TIP3    H158780   4.683   1.872  11.898 -0.2343  0.3506  0.8028
12455TIP3    H258781   4.551   1.924  11.950 -0.1513  1.0746  0.2921
12456TIP3   OH258782   3.774   0.929   5.207 -0.1028  0.5332  0.8732
12456TIP3    H158783   3.761   0.834   5.197  0.5344  0.6408 -1.8335
12456TIP3    H258784   3.698   0.958   5.257 -2.2594 -0.9638 -1.2988
12457TIP3   OH258785   5.429   2.339  12.934 -0.0923 -0.3181 -0.6611
12457TIP3    H158786   5.401   2.255  12.971 -0.4800  0.6765  1.4631
12457TIP3    H258787   5.376   2.404  12.979  1.8690  1.2522 -0.4743
12458TIP3   OH258788   5.823   3.625   2.335 -0.0986 -0.1487  0.2273
12458TIP3    H158789   5.771   3.664   2.266  0.5212 -0.9972 -0.7524
12458TIP3    H258790   5.907   3.672   2.331  0.0978 -0.5038  0.0817
12459TIP3   OH258791   1.344   1.270  12.066  0.7002  0.6370 -0.2417
12459TIP3    H158792   1.395   1.215  12.007 -0.1029 -0.4051  0.0036
12459TIP3    H258793   1.331   1.352  12.018  1.1298  0.2709 -0.9947
12460TIP3   OH258794   0.063   0.581  14.323 -0.3898 -0.2922 -0.5439
12460TIP3    H158795   0.083   0.495  14.287 -1.3235 -0.2098 -1.3067
12460TIP3    H258796   0.057   0.638  14.247 -1.1774  0.1445 -0.1628
12461TIP3   OH258797   3.614   5.589   2.445 -0.3987 -0.6453 -0.3790
12461TIP3    H158798   3.657   5.584   2.359 -0.3148 -0.2059 -0.3660
12461TIP3    H258799   3.529   5.628   2.427  0.0772  0.5620 -0.1160
12462TIP3   OH258800   4.990   2.667  13.888  0.1818  0.1219 -0.1318
12462TIP3    H158801   4.986   2.615  13.968 -0.9842  1.4937  0.7507
12462TIP3    H258802   5.004   2.757  13.918  0.5692  0.5505 -1.5153
12463TIP3   OH258803   0.898   6.509  16.897 -0.8075  0.5000  0.7390
12463TIP3    H158804   0.812   6.479  16.926 -1.5098  2.0762  0.4092
12463TIP3    H258805   0.957   6.487  16.969 -1.4562 -0.6521  0.9447
12464TIP3   OH258806   3.164   2.550  17.064  0.0820  0.0723  0.1294
12464TIP3    H158807   3.190   2.618  17.001 -0.7656  0.3294  0.0371
12464TIP3    H258808   3.196   2.468  17.026  1.0892  0.4091  0.2288
12465TIP3   OH258809   4.905   5.851   2.661  0.4532  0.0370  0.0678
12465TIP3    H158810   4.918   5.786   2.730 -1.1702  1.8194  2.2270
12465TIP3    H258811   4.963   5.923   2.685  1.4021 -0.1029 -1.6500
12466TIP3   OH258812   3.236   0.973  13.670  0.2587  0.2510 -0.0958
12466TIP3    H158813   3.171   0.904  13.678 -1.1751  1.1244 -2.8765
12466TIP3    H258814   3.314   0.938  13.713 -0.8624 -2.4488 -0.0822
12467TIP3   OH258815   2.066   0.729  16.107 -0.3114  0.2657 -0.1225
12467TIP3    H158816   2.014   0.649  16.118  2.1521 -1.3936  0.6565
12467TIP3    H258817   2.108   0.718  16.022 -1.6271  1.8783 -1.0277
12468TIP3   OH258818   6.450   3.383  16.219 -0.5537 -0.3388 -0.1948
12468TIP3    H158819   6.373   3.354  16.171 -2.5834  1.8862  1.4797
12468TIP3    H258820   6.471   3.468  16.180  0.9577 -0.7859 -0.4410
12469TIP3   OH258821   5.924   0.730  15.665  0.3983 -0.5994  0.6688
12469TIP3    H158822   5.905   0.637  15.671 -1.0560 -0.3042  1.0467
12469TIP3    H258823   5.872   0.761  15.590  1.0274 -0.1204  0.4144
12470TIP3   OH258824   5.634   4.334   6.215  0.4238 -0.0304  0.2197
12470TIP3    H158825   5.694   4.395   6.258  1.5241  1.1793 -2.7775
12470TIP3    H258826   5.578   4.390   6.161  0.2513 -1.5510 -1.2428
12471TIP3   OH258827   5.129   1.384  16.486  0.8191  0.1022 -0.2523
12471TIP3    H158828   5.174   1.384  16.571  1.5840  1.0102 -0.6514
12471TIP3    H258829   5.036   1.384  16.509  1.0172 -0.3873  0.5826
12472TIP3   OH258830   1.778   3.322   1.370  0.3412 -0.3855  0.3946
12472TIP3    H158831   1.762   3.233   1.402  0.5271 -0.8805 -0.8311
12472TIP3    H258832   1.797   3.311   1.277  1.5369  0.8227  0.4711
12473TIP3   OH258833   3.476   3.521  16.554  0.1928 -0.6143  0.3165
12473TIP3    H158834   3.526   3.595  16.587 -2.0077 -0.4916  4.0269
12473TIP3    H258835   3.529   3.444  16.577  0.9395 -0.3439 -0.4646
12474TIP3   OH258836   0.570   3.096  15.536  0.3889  0.0385  0.1676
12474TIP3    H158837   0.605   3.065  15.620  2.2239  1.1664 -0.1437
12474TIP3    H258838   0.502   3.160  15.561 -1.4075 -1.9820  0.7689
12475TIP3   OH258839   2.246   2.908  14.585  0.3464  0.4825  0.0156
12475TIP3    H158840   2.210   2.820  14.576 -1.8281  1.2699  0.2171
12475TIP3    H258841   2.240   2.945  14.497  1.1883  0.4505 -0.0549
12476TIP3   OH258842   0.155   0.094  11.431 -0.2879  0.2253  0.0613
12476TIP3    H158843   0.105   0.129  11.504  0.0888 -0.6033  0.7262
12476TIP3    H258844   0.113   0.131  11.353 -1.4056  0.2076  0.6436
12477TIP3   OH258845   3.842   0.500  13.273  0.9709 -0.3480 -0.3666
12477TIP3    H158846   3.884   0.566  13.328  1.8193 -1.4646  0.3489
12477TIP3    H258847   3.754   0.490  13.310  1.3953 -0.7843  0.5373
12478TIP3   OH258848   6.643   6.617  11.710  0.3532 -0.4088 -0.1687
12478TIP3    H158849   6.573   6.668  11.750  1.0004  0.9751 -0.7369
12478TIP3    H258850   6.606   6.529  11.702 -1.0842  0.1294  0.1386
12479TIP3   OH258851   0.456   0.137  17.266  0.5320  0.8643  0.0536
12479TIP3    H158852   0.397   0.101  17.332  0.4207 -0.6069 -0.7989
12479TIP3    H258853   0.424   0.226  17.250 -1.6496  0.0396 -0.5630
12480TIP3   OH258854   4.329   4.481   2.992  0.5682 -1.0318 -0.5253
12480TIP3    H158855   4.340   4.390   2.965 -1.4600 -1.0219 -1.5727
12480TIP3    H258856   4.291   4.525   2.916  0.9676  0.5742  0.1499
12481TIP3   OH258857   2.827   5.787   3.870  0.2979  0.0219  0.0228
12481TIP3    H158858   2.777   5.861   3.903 -1.9169 -2.0597  1.7181
12481TIP3    H258859   2.885   5.762   3.943 -0.4304 -1.0976  0.2406
12482TIP3   OH258860   3.635   4.809   2.672  0.4619  0.5145  0.6789
12482TIP3    H158861   3.556   4.812   2.726 -0.4131  1.1255 -0.5947
12482TIP3    H258862   3.702   4.853   2.725 -0.0250 -0.0426  1.7871
12483TIP3   OH258863   3.760   3.721   5.430 -0.2526  0.2960  0.6073
12483TIP3    H158864   3.757   3.653   5.497 -0.1297 -0.5644 -0.2358
12483TIP3    H258865   3.671   3.756   5.426 -0.1496  0.6889  1.5386
12484TIP3   OH258866   4.012   3.250  16.243 -0.1471  0.0762  0.2658
12484TIP3    H158867   3.924   3.228  16.274 -0.2978 -0.7239 -0.6929
12484TIP3    H258868   4.065   3.251  16.323 -0.9467  0.2180  0.8146
12485TIP3   OH258869   1.095   3.600  16.311 -0.5669 -0.0323  0.0670
12485TIP3    H158870   1.031   3.671  16.312 -1.0742 -0.4854  0.1223
12485TIP3    H258871   1.143   3.610  16.394 -0.7393  0.1558  0.1442
12486TIP3   OH258872   5.937   3.533   4.742  0.0660 -0.2918  0.4257
12486TIP3    H158873   5.872   3.464   4.757  0.0949 -0.3841  0.1327
12486TIP3    H258874   5.904   3.581   4.666  2.0597 -2.4505 -1.9665
12487TIP3   OH258875   6.255   5.054   5.947  0.2018  1.0239  0.2625
12487TIP3    H158876   6.168   5.062   5.985 -0.2958 -0.1772 -0.5611
12487TIP3    H258877   6.268   4.959   5.936  0.1842  1.2948 -2.7692
12488TIP3   OH258878   0.931   5.995  11.410 -0.0363 -0.1103 -0.3280
12488TIP3    H158879   0.903   5.984  11.319 -1.5166 -1.2900  0.2262
12488TIP3    H258880   0.857   6.039  11.452  0.1685 -0.5947  0.5528
12489TIP3   OH258881   3.658   3.608  16.019  0.4666 -0.2438 -0.3988
12489TIP3    H158882   3.702   3.527  16.046  1.2138  0.7847  1.7145
12489TIP3    H258883   3.672   3.668  16.093 -0.0034  1.8406 -1.9300
12490TIP3   OH258884   2.773   6.062   3.096  0.1232  0.1789  0.3064
12490TIP3    H158885   2.704   5.996   3.098  1.6047 -1.5640 -1.9431
12490TIP3    H258886   2.850   6.018   3.133  1.3611  0.2891 -1.9774
12491TIP3   OH258887   6.390   3.292   4.752  0.3109 -0.2055 -0.0167
12491TIP3    H158888   6.297   3.269   4.760 -0.3553  2.4880  0.8677
12491TIP3    H258889   6.392   3.362   4.688  1.5215  0.7181  0.9770
12492TIP3   OH258890   3.407   4.646  12.078  0.2835  0.0061 -0.1704
12492TIP3    H158891   3.349   4.573  12.100 -2.5562  1.8669 -0.9710
12492TIP3    H258892   3.402   4.653  11.982  1.3713  0.6322 -0.2027
12493TIP3   OH258893   2.385   0.161   2.017  0.2383  0.2028 -0.1763
12493TIP3    H158894   2.475   0.194   2.014  0.4324  0.8250  4.4011
12493TIP3    H258895   2.374   0.131   2.107 -2.8078 -4.1224 -1.6624
12494TIP3   OH258896   6.047   2.322   1.443  0.6693 -0.0851 -0.3221
12494TIP3    H158897   6.024   2.388   1.378  0.0938 -0.2982 -0.3478
12494TIP3    H258898   6.053   2.370   1.526  0.8755  0.1019 -0.4473
12495TIP3   OH258899   3.240   2.625   1.086 -0.1428  0.0335 -0.5750
12495TIP3    H158900   3.271   2.555   1.143 -0.5114  1.2040  1.1260
12495TIP3    H258901   3.252   2.590   0.997  0.8373 -1.6765  0.1736
12496TIP3   OH258902   1.117   3.566   0.701 -0.2089 -0.2990 -0.2518
12496TIP3    H158903   1.026   3.588   0.723 -0.5520 -0.9199 -0.9853
12496TIP3    H258904   1.150   3.522   0.780  0.5787  2.8545  1.3453
12497TIP3   OH258905   2.117   4.342  13.935  0.3896  0.4495 -0.3217
12497TIP3    H158906   2.151   4.252  13.935 -1.7580 -0.4362 -0.4793
12497TIP3    H258907   2.088   4.356  13.845 -0.3891  0.8127 -0.0264
12498TIP3   OH258908   6.023   3.748   5.665  0.1611  0.6187  0.3292
12498TIP3    H158909   5.975   3.702   5.734  0.1248  0.9088  0.4955
12498TIP3    H258910   6.112   3.756   5.698  0.0838  0.9807  0.4472
12499TIP3   OH258911   0.133   3.454  11.882  0.5572  0.3778  0.2087
12499TIP3    H158912   0.126   3.363  11.851  1.2715  1.0009 -1.9787
12499TIP3    H258913   0.043   3.482  11.896  0.2553 -0.2927 -0.3179
12500TIP3   OH258914   0.528   1.096   4.008  0.5136 -0.0103 -0.2480
12500TIP3    H158915   0.539   1.059   3.921  0.7135  0.6568 -0.5097
12500TIP3    H258916   0.494   1.184   3.994  1.2373  0.3721  0.3101
12501TIP3   OH258917   1.741   6.555  14.719  0.0566 -0.5291  0.4175
12501TIP3    H158918   1.807   6.591  14.777  0.4439  0.0773 -0.3753
12501TIP3    H258919   1.688   6.498  14.775 -1.0170  1.7750  1.9087
12502TIP3   OH258920   3.595   2.669  11.685 -0.3356 -0.3179  0.3314
12502TIP3    H158921   3.589   2.592  11.629 -2.2011 -0.3965  0.5524
12502TIP3    H258922   3.652   2.643  11.757 -0.5973 -1.3400  0.1787
12503TIP3   OH258923   2.023   6.024   1.559 -0.0287  0.2581  0.6271
12503TIP3    H158924   2.016   6.044   1.465  1.9308  0.5508  0.5010
12503TIP3    H258925   1.933   6.028   1.590 -0.5920  1.6666 -0.9517
12504TIP3   OH258926   6.626   0.299  11.455 -0.1324 -0.0919 -0.3375
12504TIP3    H158927   6.712   0.294  11.497 -0.4771 -0.1501  0.3911
12504TIP3    H258928   6.564   0.276  11.525 -0.7133 -0.4425 -0.9550
12505TIP3   OH258929   1.544   5.741   0.329  0.0327 -0.0649 -0.1067
12505TIP3    H158930   1.459   5.783   0.346 -0.8717 -0.8564 -2.3390
12505TIP3    H258931   1.546   5.668   0.390 -0.5225  0.4200  0.5197
12506TIP3   OH258932   0.134   6.575   4.606 -0.7371 -0.2502  0.5081
12506TIP3    H158933   0.108   6.491   4.644 -0.6917  0.4039  2.0530
12506TIP3    H258934   0.204   6.553   4.544  0.7445 -1.1749  2.4147
12507TIP3   OH258935   3.488   5.853   6.165  0.8355 -0.1068 -0.6032
12507TIP3    H158936   3.581   5.869   6.153  0.5981  0.3773 -2.0346
12507TIP3    H258937   3.460   5.919   6.229  1.3772  0.0873 -0.5632
12508TIP3   OH258938   6.544   3.101   3.883 -0.5190  0.1818 -0.1671
12508TIP3    H158939   6.491   3.178   3.901 -2.3858 -1.3017  1.1852
12508TIP3    H258940   6.610   3.130   3.820 -1.1351  2.8387  0.3191
12509TIP3   OH258941   1.947   5.963  16.308 -0.3872 -0.8852 -0.6246
12509TIP3    H158942   2.034   5.935  16.338  0.1458  0.7581 -0.5152
12509TIP3    H258943   1.962   5.996  16.220 -0.8484 -0.4119 -0.5324
12510TIP3   OH258944   5.525   2.074  12.667 -0.0514 -0.4871  0.3737
12510TIP3    H158945   5.571   2.023  12.600  0.1737 -1.0308  0.9364
12510TIP3    H258946   5.501   2.010  12.734 -0.4043  0.0284  0.7470
12511TIP3   OH258947   6.648   4.239  12.108  0.0510 -0.0509 -0.6826
12511TIP3    H158948   6.662   4.294  12.185 -1.6450 -1.3389  0.6271
12511TIP3    H258949   6.608   4.297  12.043  0.5196  0.8087 -0.2140
12512TIP3   OH258950   0.722   1.949   0.413 -0.4295  0.1605 -1.0783
12512TIP3    H158951   0.651   1.894   0.446  0.3139  0.2679  0.8416
12512TIP3    H258952   0.735   2.014   0.482 -0.3105  1.8627 -2.6516
12513TIP3   OH258953   5.755   1.549  15.639  0.0582 -0.1868  0.1702
12513TIP3    H158954   5.662   1.566  15.622  0.3121 -0.1133 -1.2777
12513TIP3    H258955   5.796   1.635  15.631  0.1439 -0.0583  1.7498
12514TIP3   OH258956   0.970   0.757   2.953 -0.1137 -0.4732 -0.2325
12514TIP3    H158957   0.912   0.721   3.020 -2.0321  2.6710  0.0127
12514TIP3    H258958   0.911   0.795   2.888  1.7217 -0.3126 -1.9206
12515TIP3   OH258959   5.707   5.212  10.884 -0.2815 -0.0271 -0.2531
12515TIP3    H158960   5.797   5.242  10.874  0.7233 -1.8146  2.2759
12515TIP3    H258961   5.695   5.146  10.815  0.5042 -0.0613 -0.3569
12516TIP3   OH258962   1.584   0.242  15.031  0.0728  0.1047  1.0614
12516TIP3    H158963   1.561   0.335  15.030 -1.3588 -0.2196  0.5059
12516TIP3    H258964   1.672   0.238  14.994 -0.6572  1.0715 -0.9384
12517TIP3   OH258965   0.051   0.867   3.378 -0.3899  0.0444 -0.3920
12517TIP3    H158966   0.039   0.956   3.345  0.3038 -0.4937 -2.2457
12517TIP3    H258967   0.115   0.876   3.449 -0.6130  1.0572 -0.3037
12518TIP3   OH258968   2.329   4.532   2.087  1.0983  0.9087  0.2868
12518TIP3    H158969   2.410   4.572   2.118  1.0825  0.9612  0.2599
12518TIP3    H258970   2.261   4.597   2.107  0.7756  0.0809  2.0997
12519TIP3   OH258971   0.838   4.790   4.674 -0.3570  0.7603 -0.2233
12519TIP3    H158972   0.835   4.695   4.664  1.3387  0.7762 -1.4452
12519TIP3    H258973   0.860   4.803   4.766 -1.3148  0.0118  0.1295
12520TIP3   OH258974   5.615   1.177  11.023  0.3418 -0.4340 -0.4501
12520TIP3    H158975   5.648   1.088  11.009 -0.1419 -0.3714 -2.2614
12520TIP3    H258976   5.541   1.184  10.962 -0.0458  0.9932  0.1580
12521TIP3   OH258977   4.241   0.735  13.860  0.6379  0.1391  0.1911
12521TIP3    H158978   4.202   0.812  13.819 -0.2670  0.4047  1.4685
12521TIP3    H258979   4.307   0.771  13.920  2.8169 -0.2932 -1.7832
12522TIP3   OH258980   2.515   0.079  16.672  0.3014  0.2734 -0.1691
12522TIP3    H158981   2.447   0.141  16.697 -0.3576 -0.4994  0.0226
12522TIP3    H258982   2.534   0.030  16.752  0.7803  0.2068 -0.3224
12523TIP3   OH258983   1.441   4.708  12.822  0.0344 -0.0864  0.5450
12523TIP3    H158984   1.409   4.786  12.776  1.6101  1.0022  1.1894
12523TIP3    H258985   1.509   4.673  12.764 -0.3664 -0.7255  0.4603
12524TIP3   OH258986   3.080   6.617   4.257 -0.0412  0.2407 -0.1198
12524TIP3    H158987   3.067   6.555   4.185  1.2560 -0.9254  0.6027
12524TIP3    H258988   3.017   6.589   4.324  2.2907 -2.0997  1.2843
12525TIP3   OH258989   4.374   3.573  16.388  0.4939 -0.5734 -0.2982
12525TIP3    H158990   4.319   3.507  16.430  1.5505 -2.1089 -1.1964
12525TIP3    H258991   4.434   3.602  16.456 -0.7132  0.3278  0.4035
12526TIP3   OH258992   1.098   1.292   0.236  0.4705  0.4341 -0.8269
12526TIP3    H158993   1.031   1.353   0.204 -0.2501  0.2475  0.2495
12526TIP3    H258994   1.098   1.305   0.331  0.3542 -1.1634 -0.5806
12527TIP3   OH258995   6.549   1.279  15.851 -0.4914 -0.4605 -0.6586
12527TIP3    H158996   6.640   1.264  15.824  0.0537  1.5740 -0.0862
12527TIP3    H258997   6.514   1.191  15.865  1.7967 -1.2923  0.3871
12528TIP3   OH258998   5.366   4.902   5.810 -0.2759  0.1287 -0.0722
12528TIP3    H158999   5.344   4.946   5.728 -2.4627 -0.9955 -0.1676
12528TIP3    H259000   5.405   4.818   5.782 -2.7984 -1.1271 -0.0994
12529TIP3   OH259001   3.203   6.446  13.113 -0.3857  0.4599  0.3346
12529TIP3    H159002   3.169   6.536  13.105 -0.7475  0.3522  0.6437
12529TIP3    H259003   3.206   6.430  13.207 -0.3424  0.1360  0.2790
12530TIP3   OH259004   6.223   6.597   3.512 -0.1029 -0.3218  0.2506
12530TIP3    H159005   6.136   6.617   3.548 -0.7539  1.1056 -1.8677
12530TIP3    H259006   6.276   6.573   3.588 -1.9684  0.1489  1.7919
12531TIP3   OH259007   6.550   6.687   0.561 -0.0879 -0.3924 -0.0619
12531TIP3    H159008   6.567   6.622   0.492  0.0098 -0.5934  0.1511
12531TIP3    H259009   6.455   6.690   0.569 -0.3039  1.7312 -2.2247
12532TIP3   OH259010   0.549   3.773   3.967 -0.2684 -0.3117 -0.1531
12532TIP3    H159011   0.641   3.791   3.946 -0.4887  1.7888  0.4971
12532TIP3    H259012   0.544   3.778   4.062 -1.1158 -0.1039 -0.1999
12533TIP3   OH259013   5.247   3.286  11.344  0.3060 -0.6800  0.0008
12533TIP3    H159014   5.246   3.235  11.425  2.0511 -0.2906  0.3142
12533TIP3    H259015   5.279   3.225  11.278 -1.0044 -0.9638 -0.3952
12534TIP3   OH259016   1.308   0.252   2.840  0.4737 -0.3732 -0.1696
12534TIP3    H159017   1.236   0.282   2.785  0.7557  0.0572 -0.3076
12534TIP3    H259018   1.363   0.329   2.852  1.3344 -0.8816 -0.7203
12535TIP3   OH259019   3.892   0.549  11.950 -0.3555 -0.0067  0.7050
12535TIP3    H159020   3.796   0.554  11.952 -0.4542 -1.1558  3.7163
12535TIP3    H259021   3.921   0.638  11.966 -0.9437  0.1810  0.7520
12536TIP3   OH259022   4.715   1.707  15.416 -0.2943 -0.3348  0.4234
12536TIP3    H159023   4.756   1.706  15.329 -0.6520  0.9483  0.2268
12536TIP3    H259024   4.639   1.765  15.406 -1.7584 -2.0549  0.9813
12537TIP3   OH259025   3.097   0.760   2.784  0.0393  0.1420  0.4806
12537TIP3    H159026   3.087   0.740   2.691 -0.7070  0.1345  0.5548
12537TIP3    H259027   3.082   0.854   2.790 -1.2137 -0.0628  0.7578
12538TIP3   OH259028   3.204   5.890  14.689  0.0046  0.1530  0.0702
12538TIP3    H159029   3.265   5.887  14.762  0.9824 -0.6967 -0.7357
12538TIP3    H259030   3.197   5.799  14.660 -1.2284  0.3183 -0.2032
12539TIP3   OH259031   5.877   6.554   1.325  0.5521 -0.8184 -0.3755
12539TIP3    H159032   5.816   6.484   1.301  0.1980 -0.0089 -1.9971
12539TIP3    H259033   5.825   6.613   1.379  0.3620 -0.9407 -0.4215
12540TIP3   OH259034   6.539   3.341  10.894 -0.3612  0.2447 -0.7190
12540TIP3    H159035   6.592   3.277  10.846  0.2733  0.4898 -0.3546
12540TIP3    H259036   6.561   3.425  10.853 -1.3275  0.2186 -1.3170
12541TIP3   OH259037   4.000   6.125   5.507 -0.5514 -0.2779  0.2841
12541TIP3    H159038   3.990   6.127   5.412  1.3433 -1.0492  0.0124
12541TIP3    H259039   3.937   6.060   5.537  0.3032 -1.6414 -0.7334
12542TIP3   OH259040   5.900   6.077   3.927 -0.1727  0.4225  0.2569
12542TIP3    H159041   5.896   6.088   3.832 -1.3005  1.3401  0.3754
12542TIP3    H259042   5.976   6.128   3.955  0.5893 -0.4370 -0.2064
12543TIP3   OH259043   3.151   3.591  13.564  0.3176 -0.3436 -0.0608
12543TIP3    H159044   3.056   3.599  13.554  0.2162  0.7726  1.4868
12543TIP3    H259045   3.186   3.675  13.533  0.5770  0.1965  1.6250
12544TIP3   OH259046   4.928   2.413  11.649 -0.0217  0.4319 -0.2346
12544TIP3    H159047   4.840   2.441  11.673 -0.5563 -0.2724 -1.3115
12544TIP3    H259048   4.917   2.364  11.568  1.0619 -1.4972  0.6971
12545TIP3   OH259049   5.326   5.895  16.861  0.1980  0.0182  0.3118
12545TIP3    H159050   5.289   5.953  16.928 -0.7697 -0.5544  0.2838
12545TIP3    H259051   5.356   5.955  16.792  0.5264  0.5684  0.9164
12546TIP3   OH259052   0.756   2.792   3.144 -0.5946  0.7646 -0.1899
12546TIP3    H159053   0.813   2.854   3.189 -0.3909  0.6450 -0.2858
12546TIP3    H259054   0.668   2.827   3.159 -0.7872 -0.6146  2.4360
12547TIP3   OH259055   0.919   2.331  16.056 -0.4296  0.5172 -0.5058
12547TIP3    H159056   0.951   2.250  16.018 -4.1504 -1.4184  0.0429
12547TIP3    H259057   0.933   2.320  16.150 -0.0754  0.9824 -0.4996
12548TIP3   OH259058   1.141   2.386  14.143  0.6083  0.3478 -0.1007
12548TIP3    H159059   1.059   2.402  14.096  0.7294 -0.8167 -0.7348
12548TIP3    H259060   1.181   2.312  14.097  0.8894 -0.6340  1.6648
12549TIP3   OH259061   2.901   2.817  16.042  0.2651  0.4339  0.9168
12549TIP3    H159062   2.885   2.900  15.998  3.1175 -0.1460 -1.5694
12549TIP3    H259063   2.996   2.818  16.059  0.1017 -1.6791  2.2576
12550TIP3   OH259064   2.822   5.841  10.732  0.5025  0.4192  0.7240
12550TIP3    H159065   2.885   5.913  10.739 -0.5230  1.3759  0.3084
12550TIP3    H259066   2.876   5.764  10.713  1.7198  0.8546  2.1965
12551TIP3   OH259067   3.209   3.372   2.309  0.0449  0.0857 -0.2272
12551TIP3    H159068   3.179   3.408   2.225 -1.5431 -2.7000 -0.9904
12551TIP3    H259069   3.129   3.356   2.358  0.8157 -0.4496  0.8936
12552TIP3   OH259070   1.081   1.681  17.171  0.1422  0.3570 -0.0665
12552TIP3    H159071   1.036   1.760  17.202 -2.6111 -0.7271 -0.9471
12552TIP3    H259072   1.091   1.694  17.076  0.7416  0.1218 -0.0412
12553TIP3   OH259073   2.198   4.502   0.680 -0.4052  0.2698 -0.5372
12553TIP3    H159074   2.230   4.411   0.689  0.3164  0.5459 -0.1531
12553TIP3    H259075   2.266   4.545   0.628 -1.1216  0.4157 -1.3641
12554TIP3   OH259076   0.708   2.822   5.105  0.4989 -0.1407 -0.4970
12554TIP3    H159077   0.752   2.907   5.113  1.2020 -0.3904 -1.5329
12554TIP3    H259078   0.645   2.834   5.034 -1.4194  0.3151  1.1981
12555TIP3   OH259079   1.825   6.642   0.774  0.2373 -0.1478 -0.0175
12555TIP3    H159080   1.890   6.571   0.781 -0.7786 -1.0820  0.2710
12555TIP3    H259081   1.742   6.599   0.794 -0.2796  1.3662  1.2303
12556TIP3   OH259082   4.359   3.468   0.806 -0.1232  0.2310 -0.1671
12556TIP3    H159083   4.375   3.378   0.778 -0.3564 -0.3592  1.4406
12556TIP3    H259084   4.266   3.482   0.791  0.3027  0.9735 -2.3780
12557TIP3   OH259085   1.867   2.173   1.021 -0.0055  0.7623 -0.2171
12557TIP3    H159086   1.836   2.233   1.088 -1.6212 -0.3402  0.0816
12557TIP3    H259087   1.855   2.086   1.058  1.0112  0.1827 -1.1566
12558TIP3   OH259088   3.634   6.219  16.312  0.2454 -0.9960  0.2372
12558TIP3    H159089   3.587   6.242  16.232 -0.5422 -1.8747  0.4320
12558TIP3    H259090   3.605   6.130  16.332 -0.1680 -0.5260  1.9113
12559TIP3   OH259091   0.926   0.467  16.449 -0.0666  0.2878 -0.5424
12559TIP3    H159092   0.855   0.494  16.508 -0.0961 -0.4776 -0.2093
12559TIP3    H259093   0.935   0.373  16.465  1.7579  0.5583  0.2279
12560TIP3   OH259094   4.462   2.244  12.515  0.5927 -0.1063  0.4628
12560TIP3    H159095   4.457   2.308  12.587  3.0866  1.3975 -0.5824
12560TIP3    H259096   4.552   2.211  12.519  0.7671 -0.0364 -1.8810
12561TIP3   OH259097   3.017   5.147  11.705 -0.2261  0.5834 -0.1651
12561TIP3    H159098   2.997   5.055  11.690  0.0154  0.2885  1.1833
12561TIP3    H259099   3.015   5.187  11.618 -0.8616 -0.5806 -0.7015
12562TIP3   OH259100   3.823   4.362  12.829  0.1603 -0.0518 -0.1100
12562TIP3    H159101   3.733   4.359  12.796  0.2514 -1.3095 -0.2917
12562TIP3    H259102   3.862   4.279  12.800  1.5246  0.6688 -0.4227
12563TIP3   OH259103   4.230   3.235  13.704  0.0882 -0.2220  0.3464
12563TIP3    H159104   4.285   3.157  13.704 -1.9678 -1.7645 -0.4972
12563TIP3    H259105   4.274   3.295  13.644  1.8525 -0.5604  1.2212
12564TIP3   OH259106   5.569   3.744   4.795 -0.3621 -0.3236 -0.0655
12564TIP3    H159107   5.567   3.754   4.891 -0.3227  0.5789 -0.1571
12564TIP3    H259108   5.527   3.659   4.780  0.1519 -0.7497  0.7896
12565TIP3   OH259109   2.078   2.863   5.094  0.6429 -0.3290  0.0652
12565TIP3    H159110   2.108   2.853   5.003  0.6863  0.4816 -0.0187
12565TIP3    H259111   1.995   2.817   5.097  0.7586 -0.5673 -0.3292
12566TIP3   OH259112   2.519   5.387  16.418 -0.1568 -0.6621 -0.4621
12566TIP3    H159113   2.444   5.353  16.467 -0.6618 -1.2511 -1.6117
12566TIP3    H259114   2.535   5.473  16.456  1.0756 -2.0234  2.4665
12567TIP3   OH259115   6.026   5.286   6.100 -0.4067 -0.0100 -0.3365
12567TIP3    H159116   5.970   5.354   6.137 -0.3984 -0.0845 -0.1883
12567TIP3    H259117   5.998   5.280   6.009  0.1683  0.7879 -0.5776
12568TIP3   OH259118   6.159   6.438  11.492 -0.3508  0.2636  0.1736
12568TIP3    H159119   6.141   6.509  11.430 -2.7047 -1.4482 -1.3120
12568TIP3    H259120   6.193   6.367  11.438  0.0271 -0.4332  1.2852
12569TIP3   OH259121   1.623   1.628   2.072  0.4620 -0.1103 -0.2111
12569TIP3    H159122   1.634   1.720   2.045  0.3320 -0.2279 -0.6744
12569TIP3    H259123   1.706   1.606   2.115  0.1624  0.4873  0.7119
12570TIP3   OH259124   1.316   0.500  12.106 -0.5186 -0.0287  0.4900
12570TIP3    H159125   1.293   0.410  12.084  0.2568  0.1966 -1.3873
12570TIP3    H259126   1.256   0.523  12.177 -1.0953 -1.8348  0.6359
12571TIP3   OH259127   2.921   6.525   4.681 -0.3800 -0.1662  0.1152
12571TIP3    H159128   2.978   6.466   4.730  0.5934  0.0466 -0.7072
12571TIP3    H259129   2.975   6.603   4.665 -0.8511  0.0006 -0.7826
12572TIP3   OH259130   0.831   1.636   1.909 -0.1249 -0.6360 -0.1963
12572TIP3    H159131   0.817   1.542   1.923 -3.1575 -0.3818 -0.7503
12572TIP3    H259132   0.752   1.677   1.945  0.7652  1.6563 -0.6742
12573TIP3   OH259133   3.000   4.242  14.872 -0.2262 -0.2598 -0.1685
12573TIP3    H159134   2.929   4.198  14.919 -0.4495 -0.2611 -0.5045
12573TIP3    H259135   2.994   4.209  14.783 -0.0169  0.0019 -0.2818
12574TIP3   OH259136   6.177   5.590  13.111  0.1198  0.4719 -0.2126
12574TIP3    H159137   6.237   5.655  13.147  0.2067  0.8432 -0.9943
12574TIP3    H259138   6.221   5.556  13.033  0.2802 -0.8889  0.4505
12575TIP3   OH259139   6.028   4.890   4.421 -0.1690 -0.0043 -0.6904
12575TIP3    H159140   6.115   4.879   4.382 -0.0976 -1.9579 -0.0855
12575TIP3    H259141   5.968   4.887   4.347  0.1723 -0.5746 -0.9551
12576TIP3   OH259142   1.188   5.372   1.580 -0.0663 -0.0713 -0.4017
12576TIP3    H159143   1.269   5.347   1.625  0.1375  0.6533 -0.3516
12576TIP3    H259144   1.148   5.289   1.554 -0.5947 -0.5531  1.7872
12577TIP3   OH259145   3.099   2.267   4.702 -0.2905  0.4493 -0.9122
12577TIP3    H159146   3.092   2.194   4.763 -0.0853  0.9697 -0.2494
12577TIP3    H259147   3.044   2.336   4.741  0.2096  0.9435 -1.0714
12578TIP3   OH259148   1.162   1.268   3.380  0.1872 -0.0322 -0.3978
12578TIP3    H159149   1.228   1.198   3.380  0.6509  0.3971  0.1241
12578TIP3    H259150   1.212   1.348   3.388 -0.2977  0.4266 -1.6843
12579TIP3   OH259151   1.487   0.280   4.301  0.4590 -0.2436 -0.2309
12579TIP3    H159152   1.436   0.319   4.371 -0.0371 -0.1783 -0.6241
12579TIP3    H259153   1.454   0.190   4.295 -0.0175 -0.0390 -0.8573
12580TIP3   OH259154   1.953   5.345   3.538 -0.3904  0.2558 -0.0785
12580TIP3    H159155   2.046   5.324   3.537 -1.2457 -4.9857 -2.6627
12580TIP3    H259156   1.944   5.419   3.478  1.9229 -0.9022 -1.9999
12581TIP3   OH259157   3.336   4.393  15.980 -0.1215 -0.1663  0.5396
12581TIP3    H159158   3.416   4.409  16.030  0.3867 -0.4880 -0.1386
12581TIP3    H259159   3.297   4.480  15.969 -0.4932 -0.1441  1.8658
12582TIP3   OH259160   5.804   1.162   5.418  0.0747 -0.5065 -0.0266
12582TIP3    H159161   5.832   1.250   5.391  1.6436 -0.9528  0.0794
12582TIP3    H259162   5.712   1.173   5.440  0.4117  1.2864  0.6852
12583TIP3   OH259163   2.319   2.266  12.970 -0.6247 -0.1370  0.3355
12583TIP3    H159164   2.352   2.249  12.882  0.0568  1.9265  0.1249
12583TIP3    H259165   2.374   2.213  13.028 -0.6198 -0.9768 -0.4212
12584TIP3   OH259166   6.762   5.591   3.275 -0.3059  0.5979 -0.6555
12584TIP3    H159167   6.721   5.614   3.192  1.2229  1.1510 -1.2895
12584TIP3    H259168   6.828   5.659   3.290 -0.6956  0.6275  1.1270
12585TIP3   OH259169   5.326   2.040  11.190 -0.9472 -0.1540 -0.0866
12585TIP3    H159170   5.270   1.998  11.125  0.4670  0.1737 -1.5792
12585TIP3    H259171   5.393   2.086  11.139  2.1720 -2.4849  1.5160
12586TIP3   OH259172   0.922   6.257  13.586  0.2772 -0.4745 -0.0622
12586TIP3    H159173   0.834   6.269  13.622 -0.0015 -0.0376 -0.8790
12586TIP3    H259174   0.918   6.295  13.499  1.1737 -0.8066 -0.2570
12587TIP3   OH259175   1.433   3.309   0.405 -0.4060 -0.2821 -0.4285
12587TIP3    H159176   1.522   3.284   0.382 -0.1847 -1.2315  1.3062
12587TIP3    H259177   1.409   3.376   0.341  2.2714  1.5018  0.2791
12588TIP3   OH259178   1.308   2.733  14.707  0.0087 -0.0691 -0.0476
12588TIP3    H159179   1.384   2.700  14.658 -0.2685  1.4544 -1.5949
12588TIP3    H259180   1.235   2.724  14.647 -0.1446  2.8972 -0.4370
12589TIP3   OH259181   4.304   0.018  17.063  0.8979 -0.0562  0.3865
12589TIP3    H159182   4.385  -0.011  17.106  0.1786 -0.0770  1.7750
12589TIP3    H259183   4.235  -0.003  17.126 -0.2458 -0.3614 -0.9224
12590TIP3   OH259184   0.996   1.405  12.367 -0.4731  0.5557  0.4012
12590TIP3    H159185   0.952   1.377  12.287  1.4578  1.6688 -1.1584
12590TIP3    H259186   0.932   1.389  12.436 -2.1115 -0.7553 -1.2940
12591TIP3   OH259187   5.643   6.350   1.335 -0.0335  0.2352 -0.5813
12591TIP3    H159188   5.612   6.260   1.327  0.5904 -0.2705  1.8412
12591TIP3    H259189   5.573   6.395   1.383  0.6066  0.4768  0.1336
12592TIP3   OH259190   5.959   3.739  13.982 -0.9975 -0.0828  0.0747
12592TIP3    H159191   5.986   3.708  13.896 -0.9347  1.7219 -0.5944
12592TIP3    H259192   6.000   3.678  14.044  2.0198  0.6701 -1.0226
12593TIP3   OH259193   2.978   0.974   5.494  0.4790 -0.2313 -0.3324
12593TIP3    H159194   2.969   0.883   5.468  1.3833 -0.2587 -0.5798
12593TIP3    H259195   2.889   1.002   5.515  0.4810 -1.9674  2.4627
12594TIP3   OH259196   1.272   3.520  15.187 -0.0965  0.5022  0.4248
12594TIP3    H159197   1.293   3.433  15.220  1.6408  1.2270  1.3566
12594TIP3    H259198   1.193   3.545  15.234 -0.3779 -0.3818  0.4504
12595TIP3   OH259199   0.823   2.982   5.967  0.6033 -0.4117 -0.0439
12595TIP3    H159200   0.786   3.068   5.989 -0.9005 -0.6589 -1.4124
12595TIP3    H259201   0.799   2.926   6.041  1.0806  0.1914  0.5859
12596TIP3   OH259202   1.462   1.616  14.127  1.0412 -0.4367 -0.1210
12596TIP3    H159203   1.556   1.616  14.145  1.3983 -1.4310 -1.7400
12596TIP3    H259204   1.439   1.524  14.117  0.1352 -0.1556 -0.8283
12597TIP3   OH259205   6.196   2.259  13.774  0.3089 -0.3946 -0.4826
12597TIP3    H159206   6.254   2.289  13.704 -0.8203  0.6683 -0.9853
12597TIP3    H259207   6.215   2.165  13.781  3.1744  0.1466  0.4282
12598TIP3   OH259208   1.903   3.057   3.026 -0.4868 -0.0992 -0.3521
12598TIP3    H159209   1.964   3.071   2.953 -1.2968  0.1229 -1.0011
12598TIP3    H259210   1.923   2.969   3.057  1.8855  0.8699  1.1193
12599TIP3   OH259211   4.771   2.823  13.452 -0.3044 -0.3661 -0.4172
12599TIP3    H159212   4.853   2.794  13.492 -1.5933 -1.6187  1.4518
12599TIP3    H259213   4.795   2.902  13.404  1.7729 -0.0229  1.0392
12600TIP3   OH259214   3.735   3.100   0.148  0.4116 -0.1420  0.1450
12600TIP3    H159215   3.744   3.013   0.109  0.3704 -0.8954  1.7643
12600TIP3    H259216   3.758   3.160   0.077 -0.2428 -1.4331 -1.2092
12601TIP3   OH259217   2.313   5.856  12.002  0.3931 -0.6188  0.2373
12601TIP3    H159218   2.282   5.889  11.917  0.8512  1.2287  0.7316
12601TIP3    H259219   2.302   5.761  11.996  0.5468 -0.5635 -1.9424
12602TIP3   OH259220   6.610   6.652  12.087  0.0104 -0.1908  0.0791
12602TIP3    H159221   6.606   6.722  12.022 -0.5023  2.0558  2.3762
12602TIP3    H259222   6.698   6.617  12.078 -0.4385 -0.8697 -2.6341
12603TIP3   OH259223   4.202   4.527  11.837  0.3160  0.0161 -0.4514
12603TIP3    H159224   4.121   4.478  11.851  0.1091  0.7085  0.9078
12603TIP3    H259225   4.249   4.521  11.920  0.9189  0.9641 -0.7059
12604TIP3   OH259226   3.731   3.281   3.168  0.2870  0.0518  0.3179
12604TIP3    H159227   3.722   3.282   3.263  0.9761 -0.5636  0.3932
12604TIP3    H259228   3.642   3.298   3.136 -0.3201 -1.5375  1.0562
12605TIP3   OH259229   0.477   6.442   2.567 -0.4131  0.0970  0.1115
12605TIP3    H159230   0.453   6.406   2.481  0.1830  0.6954 -0.3061
12605TIP3    H259231   0.424   6.391   2.628 -0.9377 -0.2592 -0.6140
12606TIP3   OH259232   2.874   4.178  13.964 -0.4476 -0.3012  0.0783
12606TIP3    H159233   2.783   4.162  13.989 -0.6881  1.1437  0.2648
12606TIP3    H259234   2.867   4.243  13.894  0.4651  0.4938  0.6983
12607TIP3   OH259235   4.225   1.900   1.467 -0.0722  0.6342  0.0679
12607TIP3    H159236   4.221   1.935   1.378  1.4038  1.5376  0.3137
12607TIP3    H259237   4.268   1.969   1.517  1.5841 -0.9140  0.9024
12608TIP3   OH259238   1.148   4.523   2.112  0.4199 -0.2362 -0.5084
12608TIP3    H159239   1.115   4.490   2.196 -2.0345  1.6299 -0.6137
12608TIP3    H259240   1.159   4.446   2.058  0.3436 -1.3214  0.9543
12609TIP3   OH259241   6.491   6.034  12.619  0.3304 -0.6705 -0.4109
12609TIP3    H159242   6.557   6.047  12.550  0.3079  0.2660 -0.2753
12609TIP3    H259243   6.460   6.123  12.638 -0.2875 -1.0153  0.1968
12610TIP3   OH259244   4.710   5.251  17.056  0.1416  0.4567  0.5731
12610TIP3    H159245   4.688   5.163  17.024 -2.3778  1.0851  0.3970
12610TIP3    H259246   4.725   5.302  16.977 -1.7098  0.9467  0.5022
12611TIP3   OH259247   4.071   2.601  15.601  0.3389  0.2744  0.1913
12611TIP3    H159248   4.106   2.540  15.666  1.2166  0.1605 -0.3737
12611TIP3    H259249   4.132   2.595  15.527 -0.0005  1.2510 -0.1852
12612TIP3   OH259250   1.154   5.488  10.982  0.1655 -0.1506 -0.7795
12612TIP3    H159251   1.137   5.502  10.888  1.6533  0.6416 -0.9591
12612TIP3    H259252   1.223   5.422  10.984 -1.1992 -1.6370 -0.1362
12613TIP3   OH259253   1.302   2.849  13.441 -0.0472 -0.3340  0.2895
12613TIP3    H159254   1.392   2.830  13.415  0.1735  0.8679  0.1131
12613TIP3    H259255   1.260   2.763  13.448  0.5227 -0.8216 -1.7093
12614TIP3   OH259256   0.953   1.121  17.007 -0.7803  0.2432  0.2535
12614TIP3    H159257   1.032   1.143  17.056 -0.0327 -1.1678 -0.2760
12614TIP3    H259258   0.964   1.164  16.923  0.8709 -2.2401 -0.9345
12615TIP3   OH259259   3.782   3.716   6.799  0.0311  0.6940  0.0113
12615TIP3    H159260   3.775   3.754   6.711  1.9853  0.9976 -0.0524
12615TIP3    H259261   3.791   3.792   6.857 -3.2336  0.6277  0.7955
12616TIP3   OH259262   6.141   5.833  14.223  0.0777  0.3941  0.1283
12616TIP3    H159263   6.102   5.870  14.143  1.1563 -0.6778 -0.9472
12616TIP3    H259264   6.129   5.739  14.213 -0.0837  0.2724  1.4228
12617TIP3   OH259265   1.931   5.666  13.969  0.6131  0.1357  0.1180
12617TIP3    H159266   2.005   5.693  13.916  1.1372  0.1142  0.8220
12617TIP3    H259267   1.948   5.575  13.991  0.1311 -0.0162 -0.1263
12618TIP3   OH259268   0.912   2.985   6.259 -0.1373  0.0818 -0.1190
12618TIP3    H159269   0.867   3.065   6.234 -0.2158  0.5871  1.5077
12618TIP3    H259270   0.998   3.014   6.291  0.8325 -0.7338 -1.8258
12619TIP3   OH259271   2.954   4.407   3.996  0.0390  0.3491 -0.7845
12619TIP3    H159272   2.915   4.350   4.061  0.3000  0.2354 -0.7264
12619TIP3    H259273   2.882   4.430   3.937  0.0133 -0.3422 -1.0277
12620TIP3   OH259274   2.676   5.842   1.311 -0.1520 -0.3205 -0.0943
12620TIP3    H159275   2.688   5.903   1.384  2.3949  0.2884 -0.9348
12620TIP3    H259276   2.617   5.887   1.251 -0.7945 -0.0451  0.7299
12621TIP3   OH259277   4.425   6.045   5.280 -0.0150 -0.4764 -0.2663
12621TIP3    H159278   4.373   6.103   5.336  1.0377 -0.9027  1.2356
12621TIP3    H259279   4.489   6.006   5.340  1.1245 -1.0169 -1.7813
12622TIP3   OH259280   5.397   6.692  15.620 -0.3232  0.2506 -0.6797
12622TIP3    H159281   5.421   6.607  15.581 -1.0554 -0.8010  1.0449
12622TIP3    H259282   5.302   6.698  15.607 -0.6201 -0.2233  1.0350
12623TIP3   OH259283   5.479   2.531   6.766  0.2679 -0.1157 -0.1953
12623TIP3    H159284   5.502   2.542   6.858  1.7338  1.9758 -0.7419
12623TIP3    H259285   5.559   2.553   6.718 -1.4515  2.8738 -2.0432
12624TIP3   OH259286   1.161   6.065   2.908 -0.1426 -0.3576  0.1121
12624TIP3    H159287   1.163   5.990   2.967 -0.8720 -0.8692 -0.4952
12624TIP3    H259288   1.086   6.117   2.938 -0.2783 -0.4178 -0.1252
12625TIP3   OH259289   4.964   3.526  13.922 -0.2679  0.2576 -0.0336
12625TIP3    H159290   5.048   3.480  13.922  0.3498  1.3041 -1.3497
12625TIP3    H259291   4.982   3.610  13.964 -0.0071  1.4718 -2.4039
12626TIP3   OH259292   3.262   2.743   4.698 -0.1412  0.3099 -0.4887
12626TIP3    H159293   3.238   2.833   4.676 -0.5755 -0.0464 -1.5516
12626TIP3    H259294   3.194   2.715   4.760 -0.0359  0.6927 -0.1965
12627TIP3   OH259295   1.582   1.415  12.966 -0.6643 -0.0084  0.4641
12627TIP3    H159296   1.528   1.338  12.984 -0.3969 -0.8449 -1.9399
12627TIP3    H259297   1.662   1.402  13.018  0.1299 -2.2988 -1.2016
12628TIP3   OH259298   1.934   1.971   4.478  0.0004 -0.1328 -0.0471
12628TIP3    H159299   1.867   1.904   4.463  0.2346 -0.0660 -1.5869
12628TIP3    H259300   2.015   1.930   4.448  0.4255  0.2710  0.5319
12629TIP3   OH259301   0.678   3.344   3.797 -0.2507 -0.8354 -0.1259
12629TIP3    H159302   0.591   3.370   3.824 -0.6067  0.2649 -2.0996
12629TIP3    H259303   0.729   3.341   3.878 -1.4271  1.2723  0.7755
12630TIP3   OH259304   4.101   3.367  11.718 -0.6180  0.4509 -0.2195
12630TIP3    H159305   4.125   3.434  11.654 -1.1372  1.8449  1.0020
12630TIP3    H259306   4.177   3.363  11.777  1.3113 -3.1033 -2.5545
12631TIP3   OH259307   5.451   3.072   2.832 -0.0212  0.5464 -0.0000
12631TIP3    H159308   5.471   2.979   2.824 -2.9630 -0.3195  1.5142
12631TIP3    H259309   5.441   3.102   2.741  1.0544 -0.5460 -0.5086
12632TIP3   OH259310   2.994   4.483   6.292  0.1757  0.2144 -0.0470
12632TIP3    H159311   3.072   4.467   6.345  0.2316  0.0400 -0.1814
12632TIP3    H259312   2.951   4.398   6.286 -1.5204  0.7967  2.3503
12633TIP3   OH259313   5.100   0.694   1.074  0.2992  0.0985  0.2865
12633TIP3    H159314   5.067   0.617   1.121 -1.0293  0.4256 -0.0624
12633TIP3    H259315   5.070   0.769   1.126 -0.7299  0.4476 -0.7505
12634TIP3   OH259316   0.928   1.816  15.410  1.0182 -0.2068  0.1648
12634TIP3    H159317   0.980   1.767  15.347  3.0305  3.9375 -1.7577
12634TIP3    H259318   0.991   1.850  15.473 -0.2823  0.0285  1.3992
12635TIP3   OH259319   5.594   5.536  16.835 -0.0337  0.2485  0.3821
12635TIP3    H159320   5.506   5.502  16.816  0.4984 -1.7298  1.1764
12635TIP3    H259321   5.649   5.457  16.839  1.7318  1.4242  0.1758
12636TIP3   OH259322   3.454   6.685  12.026 -0.0031 -0.3624  0.0776
12636TIP3    H159323   3.378   6.627  12.033 -2.0368  2.2907  2.0321
12636TIP3    H259324   3.511   6.659  12.099 -0.5112 -0.4294  0.4529
12637TIP3   OH259325   3.105   2.096   4.475 -0.1753  0.1094  0.4287
12637TIP3    H159326   3.024   2.126   4.433 -1.4454  1.2094  3.3800
12637TIP3    H259327   3.106   2.140   4.560  2.2106 -1.8713  1.5672
12638TIP3   OH259328   0.982   4.328   0.222 -0.2130  0.1800 -0.0233
12638TIP3    H159329   1.061   4.335   0.168  0.8470 -2.0472  1.0861
12638TIP3    H259330   0.917   4.381   0.176  1.8633  2.0421 -1.0366
12639TIP3   OH259331   3.520   2.412   3.895 -0.1582 -0.0334 -0.2280
12639TIP3    H159332   3.611   2.399   3.869 -0.5384 -0.0411 -1.6679
12639TIP3    H259333   3.504   2.343   3.959  1.1819  0.7397  1.0055
12640TIP3   OH259334   2.198   4.796  12.107 -0.4195 -0.3134 -0.7919
12640TIP3    H159335   2.147   4.801  12.188  1.0496 -1.6338  0.2656
12640TIP3    H259336   2.258   4.870  12.112  1.6244 -1.9802  0.7858
12641TIP3   OH259337   1.150   3.615  15.460 -0.0639 -0.4107  0.3733
12641TIP3    H159338   1.189   3.536  15.497  1.5865  0.6086  0.9129
12641TIP3    H259339   1.074   3.632  15.517  0.1931 -1.0192  0.9129
12642TIP3   OH259340   2.309   0.441  11.009 -0.2150 -0.1314 -0.3382
12642TIP3    H159341   2.339   0.386  10.937  0.6841  0.1915 -0.2199
12642TIP3    H259342   2.332   0.530  10.982 -1.0385  0.1190 -0.2220
12643TIP3   OH259343   2.660   0.791   4.896  0.0905 -0.7442 -0.6960
12643TIP3    H159344   2.656   0.816   4.804  1.3948 -1.5541 -0.9961
12643TIP3    H259345   2.703   0.865   4.940  2.9489 -1.8633 -1.3992
12644TIP3   OH259346   1.463   4.520  15.872  0.1964  0.1608 -0.2041
12644TIP3    H159347   1.423   4.439  15.842 -1.1839  0.7551 -0.0452
12644TIP3    H259348   1.425   4.588  15.815  0.9779  0.7559 -0.0390
12645TIP3   OH259349   3.417   5.557  12.879  0.2048 -0.2518 -0.7309
12645TIP3    H159350   3.341   5.527  12.929 -0.2946  0.1043 -1.2647
12645TIP3    H259351   3.464   5.477  12.858  1.9733 -0.2711  2.6575
12646TIP3   OH259352   5.793   2.452   0.115 -0.6290  0.0195 -0.1631
12646TIP3    H159353   5.787   2.514   0.187  0.8371 -0.9159  0.8244
12646TIP3    H259354   5.776   2.504   0.036 -1.6217  1.1886  0.7915
12647TIP3   OH259355   2.064   3.629   2.380 -0.1737 -0.1717  0.0590
12647TIP3    H159356   2.083   3.707   2.328  2.0257 -2.4982 -3.0293
12647TIP3    H259357   1.970   3.614   2.369 -0.2740  1.0002 -0.9042
12648TIP3   OH259358   3.468   2.972  14.661  0.2420  0.1196  0.1274
12648TIP3    H159359   3.517   2.996  14.740 -0.7755  1.2733  0.4352
12648TIP3    H259360   3.480   3.046  14.602 -0.6898  0.1830  0.0052
12649TIP3   OH259361   1.870   2.352  11.186 -0.0556 -0.3312  0.4081
12649TIP3    H159362   1.915   2.268  11.191  1.3231  0.3580  0.0158
12649TIP3    H259363   1.797   2.337  11.125  0.2299 -1.2148  0.2787
12650TIP3   OH259364   4.567   6.374   5.085  0.3093  0.1104  0.2084
12650TIP3    H159365   4.493   6.333   5.039  0.8266  0.5359 -1.0513
12650TIP3    H259366   4.641   6.316   5.068  0.2262 -0.4903  1.7448
12651TIP3   OH259367   5.978   1.426  16.092  0.1332 -0.0443  0.1672
12651TIP3    H159368   5.966   1.347  16.146  0.9157  0.4860  1.1506
12651TIP3    H259369   6.046   1.402  16.029 -0.2450 -0.4280 -0.0997
12652TIP3   OH259370   3.788   3.290  14.686  0.2552 -0.0827  0.5549
12652TIP3    H159371   3.835   3.216  14.724  1.7405 -0.6445 -2.1049
12652TIP3    H259372   3.838   3.367  14.714  0.4668 -0.3445  0.9076
12653TIP3   OH259373   6.322   6.154  15.437 -0.1042 -0.5233  0.3357
12653TIP3    H159374   6.355   6.067  15.458  1.6257 -0.1174 -0.4873
12653TIP3    H259375   6.390   6.214  15.468 -0.1079  0.3731 -1.2539
12654TIP3   OH259376   5.250   4.000  15.588  0.4377  0.4564 -0.1158
12654TIP3    H159377   5.295   4.045  15.517  0.8886  1.4408  0.7713
12654TIP3    H259378   5.315   3.993  15.657 -0.6717  1.6882  1.1104
12655TIP3   OH259379   0.721   2.570   5.673 -0.3495  0.6393 -0.2478
12655TIP3    H159380   0.638   2.587   5.717 -0.0791  1.0760  0.0958
12655TIP3    H259381   0.776   2.529   5.739  0.7632  3.1230  0.4977
12656TIP3   OH259382   6.699   6.126  12.141 -0.3791 -0.0082  0.3228
12656TIP3    H159383   6.780   6.176  12.155 -0.1311 -0.4971  0.7030
12656TIP3    H259384   6.729   6.038  12.120 -0.7471  0.5186 -2.9102
12657TIP3   OH259385   1.539   6.516  13.793 -0.2525  0.1287  0.2864
12657TIP3    H159386   1.495   6.588  13.747 -3.0729 -2.7217 -1.9422
12657TIP3    H259387   1.629   6.518  13.760 -0.8404  1.3078 -1.4290
12658TIP3   OH259388   4.681   4.948  16.084  0.3035 -0.5385  0.1187
12658TIP3    H159389   4.703   4.961  16.177 -0.4613  0.8346  0.1473
12658TIP3    H259390   4.675   4.854  16.074  0.1459 -0.7127  1.5398
12659TIP3   OH259391   2.911   1.401  12.346  0.9052 -0.1717  0.6944
12659TIP3    H159392   2.963   1.474  12.312  1.2845 -0.0074  1.6130
12659TIP3    H259393   2.826   1.441  12.367  1.7842  0.5544  3.2782
12660TIP3   OH259394   1.517   1.462   5.639  0.2377  0.2319 -0.4662
12660TIP3    H159395   1.512   1.433   5.730 -0.9530  0.6546 -0.3787
12660TIP3    H259396   1.439   1.424   5.598  0.6535  0.2190 -1.2645
12661TIP3   OH259397   5.926   3.113   0.010 -0.1516  0.3375 -0.1584
12661TIP3    H159398   5.903   3.187  -0.047 -1.2791  0.1088 -0.0218
12661TIP3    H259399   5.967   3.154   0.086  0.2544  0.7417 -0.5902
12662TIP3   OH259400   2.687   6.261   4.865  0.5562  0.2752  0.1974
12662TIP3    H159401   2.779   6.287   4.862 -0.0292  2.6683  0.6667
12662TIP3    H259402   2.659   6.283   4.954  0.0630 -2.5973  0.8287
12663TIP3   OH259403   5.002   2.610   2.164 -0.5500 -0.3370 -0.5172
12663TIP3    H159404   4.995   2.633   2.257 -1.6769  0.2314 -0.7255
12663TIP3    H259405   5.092   2.580   2.154 -0.2590  0.0802  0.6509
12664TIP3   OH259406   1.806   5.160  11.667  0.0816  0.0311  0.1614
12664TIP3    H159407   1.840   5.241  11.704 -0.0715 -0.2832  1.0084
12664TIP3    H259408   1.714   5.158  11.695  0.3386 -0.9039  0.9725
12665TIP3   OH259409   1.822   6.397   4.220 -0.0425  1.3224  0.2150
12665TIP3    H159410   1.836   6.374   4.128 -0.0235 -0.0712  0.5410
12665TIP3    H259411   1.879   6.473   4.235  1.0867  0.6562 -0.5512
12666TIP3   OH259412   3.632   2.150  14.002  0.3087  0.4186 -0.5390
12666TIP3    H159413   3.677   2.225  14.040 -0.8717  0.0458  1.7658
12666TIP3    H259414   3.579   2.187  13.931 -0.3145  1.8254  0.5963
12667TIP3   OH259415   4.115   4.576   1.416  0.2913  0.3244  0.4368
12667TIP3    H159416   4.121   4.607   1.326 -0.3323  3.4074  1.3626
12667TIP3    H259417   4.193   4.612   1.459 -0.0202 -0.1164  1.4054
12668TIP3   OH259418   4.924   2.515   3.415  0.7004  0.0789 -0.1381
12668TIP3    H159419   4.913   2.487   3.324 -1.3820 -2.0488  0.6683
12668TIP3    H259420   4.862   2.588   3.425 -0.1950 -0.6767 -0.0629
12669TIP3   OH259421   6.541   4.993   0.153 -0.3816  0.6998 -0.6359
12669TIP3    H159422   6.567   4.902   0.137 -1.3395  0.5954 -1.7402
12669TIP3    H259423   6.494   4.990   0.236 -2.6360 -0.3289 -1.8539
12670TIP3   OH259424   2.979   1.404  11.917  0.3625 -0.3931 -0.5395
12670TIP3    H159425   2.903   1.369  11.869 -0.9861 -1.6255  2.2322
12670TIP3    H259426   3.055   1.371  11.870 -0.8579 -1.2286 -2.0029
12671TIP3   OH259427   5.443   3.443  16.016 -0.9436 -0.4419 -0.4105
12671TIP3    H159428   5.501   3.368  16.002 -0.7418 -0.4377  0.3803
12671TIP3    H259429   5.429   3.478  15.928 -0.6783 -1.1315 -0.7404
12672TIP3   OH259430   2.959   1.340   4.207 -0.2108  0.0035 -0.1919
12672TIP3    H159431   2.928   1.297   4.287 -0.2778 -1.3249 -0.8940
12672TIP3    H259432   2.912   1.423   4.205 -0.3635 -0.0304  1.0381
12673TIP3   OH259433   6.615   6.212   6.359 -0.3372  0.2775 -0.6546
12673TIP3    H159434   6.555   6.287   6.356  0.5096  1.1352  1.6394
12673TIP3    H259435   6.586   6.161   6.434  0.8008 -0.1770 -0.5066
12674TIP3   OH259436   6.175   6.369   4.249  0.2045  0.6361 -0.1143
12674TIP3    H159437   6.267   6.350   4.233  0.3706  1.4423 -0.1837
12674TIP3    H259438   6.159   6.340   4.339  0.5739  0.6703 -0.0383
12675TIP3   OH259439   1.340   2.104  16.805 -0.4623 -0.3299  0.3449
12675TIP3    H159440   1.388   2.130  16.726  0.3406 -2.1716  0.1639
12675TIP3    H259441   1.369   2.166  16.872 -0.4283  0.6743 -0.5648
12676TIP3   OH259442   3.701   1.476   4.800  0.1680 -0.2495  0.3531
12676TIP3    H159443   3.669   1.529   4.727 -1.9704 -0.4212  1.0885
12676TIP3    H259444   3.754   1.536   4.852  0.1780  0.3653 -0.3550
12677TIP3   OH259445   0.535   2.865  15.173 -0.1534  0.5783  0.1303
12677TIP3    H159446   0.493   2.890  15.091 -0.4453 -0.0544  0.0776
12677TIP3    H259447   0.464   2.868  15.238 -0.2120 -0.1652  0.1080
12678TIP3   OH259448   6.048   5.363   3.748  0.0154  0.0770 -0.7930
12678TIP3    H159449   6.031   5.454   3.723  0.3826  0.8233  1.4933
12678TIP3    H259450   6.084   5.368   3.836  0.3272 -2.2876 -0.7180
12679TIP3   OH259451   3.174   4.881   1.009  0.6778 -0.1230 -0.5688
12679TIP3    H159452   3.236   4.916   0.944  1.3142  0.3033  0.2485
12679TIP3    H259453   3.143   4.799   0.970  2.4232 -0.8013 -0.6426
12680TIP3   OH259454   3.722   5.859  14.270  0.1923  0.3718 -0.3472
12680TIP3    H159455   3.688   5.942  14.305  2.5836  1.2282  0.2018
12680TIP3    H259456   3.733   5.803  14.347  0.1563  0.1616 -0.4942
12681TIP3   OH259457   2.507   0.227   5.214 -0.4811 -0.1313 -0.7964
12681TIP3    H159458   2.523   0.288   5.141  0.7282 -0.4071 -0.7771
12681TIP3    H259459   2.438   0.169   5.181  0.6565 -0.8106 -2.0870
12682TIP3   OH259460   3.334   2.239  17.270  0.2414  0.4586 -0.0264
12682TIP3    H159461   3.318   2.268  17.181  0.4328 -0.2972 -0.3123
12682TIP3    H259462   3.373   2.315  17.314 -0.1566  0.9363 -0.4899
12683TIP3   OH259463   5.478   2.383   4.598 -0.1594 -0.0448  0.9150
12683TIP3    H159464   5.386   2.407   4.585  0.0936  0.7212  0.4610
12683TIP3    H259465   5.499   2.413   4.687 -0.4620 -0.5958  1.1736
12684TIP3   OH259466   1.339   4.612   1.456  0.0883  0.1899 -0.2169
12684TIP3    H159467   1.389   4.535   1.429  0.6783 -0.0355  1.4309
12684TIP3    H259468   1.403   4.683   1.456  1.0184 -0.4286  3.6282
12685TIP3   OH259469   2.365   1.037   5.852 -0.0756 -0.9720  0.0588
12685TIP3    H159470   2.400   1.091   5.781 -1.1930 -0.3487 -0.0564
12685TIP3    H259471   2.363   0.949   5.815  0.0124 -0.7706 -0.4466
12686TIP3   OH259472   0.483   2.279  15.716 -0.2229 -0.3106  0.1662
12686TIP3    H159473   0.477   2.331  15.796  0.0220  0.4034 -0.2611
12686TIP3    H259474   0.577   2.280  15.694  0.0320 -2.2310  0.9660
12687TIP3   OH259475   5.964   4.624  16.952 -0.6266 -0.4271  0.2619
12687TIP3    H159476   5.890   4.681  16.929 -1.1774  0.0510  2.8552
12687TIP3    H259477   5.979   4.642  17.045  2.4884 -0.8607 -0.0597
12688TIP3   OH259478   1.360   2.305  10.680  0.3235  0.0625 -0.0534
12688TIP3    H159479   1.372   2.399  10.678 -3.6823  0.7339 -0.6033
12688TIP3    H259480   1.292   2.290  10.746 -0.1901 -2.2505 -0.9767
12689TIP3   OH259481   4.812   6.255  11.969  0.2620 -0.1623  0.1536
12689TIP3    H159482   4.762   6.331  11.999 -0.9921 -1.6540  2.0054
12689TIP3    H259483   4.773   6.232  11.885 -0.0225  0.6025  0.0640
12690TIP3   OH259484   0.257   2.739   3.536  0.0632  0.6856 -0.1765
12690TIP3    H159485   0.306   2.789   3.472 -1.1213 -0.1343 -1.7839
12690TIP3    H259486   0.240   2.801   3.607 -2.6310  3.1413 -2.7131
12691TIP3   OH259487   1.185   2.579  16.440  0.1077  0.1586  0.0989
12691TIP3    H159488   1.272   2.539  16.443  0.1362  0.2907  1.4853
12691TIP3    H259489   1.125   2.508  16.464 -0.2491 -0.0912 -1.4384
12692TIP3   OH259490   6.003   2.315  10.991  0.0325 -0.3350 -0.5962
12692TIP3    H159491   6.092   2.316  10.956 -0.2457  1.9954 -1.3531
12692TIP3    H259492   5.949   2.346  10.919 -1.1847 -0.1088  0.3946
12693TIP3   OH259493   6.707   3.817   5.114  0.2420  0.0222 -0.1120
12693TIP3    H159494   6.734   3.877   5.184  0.1770  0.5612 -0.5472
12693TIP3    H259495   6.718   3.730   5.153 -0.9147  0.3377  0.9893
12694TIP3   OH259496   4.651   0.904   4.053  0.2937 -0.1073  0.0282
12694TIP3    H159497   4.722   0.855   4.094  0.8852 -1.0357 -1.9775
12694TIP3    H259498   4.571   0.857   4.078  0.5742 -0.3044  0.5591
12695TIP3   OH259499   3.491   6.398  14.915 -0.0209 -0.1579  0.4006
12695TIP3    H159500   3.466   6.482  14.877 -0.2958 -0.2812  0.3116
12695TIP3    H259501   3.409   6.353  14.931  0.1057 -0.2300  0.8653
12696TIP3   OH259502   0.156   5.379   1.926  0.3355  0.2329  0.3735
12696TIP3    H159503   0.080   5.334   1.962  0.3475 -1.2813 -1.3822
12696TIP3    H259504   0.204   5.312   1.879  1.6118  1.6241 -0.3883
12697TIP3   OH259505   0.744   3.065   0.005  0.4617  0.6057  0.4544
12697TIP3    H159506   0.801   3.138  -0.018  0.9140  0.8418  2.1719
12697TIP3    H259507   0.782   2.990  -0.040 -0.2160  1.4435 -1.6252
12698TIP3   OH259508   2.289   1.684   0.794 -0.7898  0.0186 -0.2943
12698TIP3    H159509   2.244   1.762   0.826  1.0597  1.3466 -0.7447
12698TIP3    H259510   2.363   1.718   0.744  1.2620 -1.9928  1.1627
12699TIP3   OH259511   4.074   4.253  12.713  0.1725 -0.0443  0.2307
12699TIP3    H159512   4.069   4.278  12.621  0.2760  0.6931  0.4156
12699TIP3    H259513   4.063   4.158  12.713  1.4264 -0.2249 -0.6537
12700TIP3   OH259514   6.223   2.076   1.331 -0.0410 -0.3955  0.8483
12700TIP3    H159515   6.157   2.135   1.367  0.4699  0.7357 -0.0266
12700TIP3    H259516   6.294   2.077   1.395 -0.9558 -1.9218  1.9953
12701TIP3   OH259517   0.343   4.112  14.533  0.1267 -0.1472 -0.0987
12701TIP3    H159518   0.295   4.041  14.577 -2.9728  1.3626 -0.7517
12701TIP3    H259519   0.369   4.170  14.604 -0.8637  0.0175  0.1499
12702TIP3   OH259520   4.786   2.780   2.096  0.0485  0.3311 -0.0688
12702TIP3    H159521   4.841   2.715   2.139 -0.6800 -0.2760 -0.0428
12702TIP3    H259522   4.797   2.859   2.149  0.1557 -0.0465  0.4819
12703TIP3   OH259523   6.752   5.435   4.258  0.2717  0.1498  0.3131
12703TIP3    H159524   6.767   5.507   4.319  0.3550  0.1808  0.2557
12703TIP3    H259525   6.728   5.361   4.313  1.1447 -0.0458  0.4482
12704TIP3   OH259526   2.507   1.209  15.805 -0.0930  0.4672  0.0687
12704TIP3    H159527   2.591   1.162  15.799 -0.5757 -0.3586 -0.3988
12704TIP3    H259528   2.507   1.266  15.728 -0.0052  0.3855  0.0068
12705TIP3   OH259529   5.760   4.981   2.050  0.0102  0.2490  0.2197
12705TIP3    H159530   5.808   4.914   2.098 -3.1445 -0.8189  2.2660
12705TIP3    H259531   5.819   5.009   1.980  2.6226 -2.4283  1.1550
12706TIP3   OH259532   0.267   5.610   5.049  0.0428  0.0912  0.3806
12706TIP3    H159533   0.338   5.569   5.000  0.0146  0.6425 -0.1384
12706TIP3    H259534   0.191   5.604   4.991 -0.4618 -0.9281  1.1285
12707TIP3   OH259535   4.793   6.759  16.158 -0.2791  0.4357  0.6753
12707TIP3    H159536   4.710   6.805  16.141  0.4288  1.7052  0.5155
12707TIP3    H259537   4.773   6.699  16.230 -1.4076  0.4977  0.4402
12708TIP3   OH259538   0.304   0.871   4.096  0.2720  0.1788  0.3560
12708TIP3    H159539   0.347   0.951   4.066  0.4888  0.2910  0.9615
12708TIP3    H259540   0.216   0.875   4.058  1.0034 -0.4030 -1.5138
12709TIP3   OH259541   0.125   3.969  11.392  0.4060  0.2323 -0.2097
12709TIP3    H159542   0.121   4.064  11.386 -1.4166  0.2048 -0.0348
12709TIP3    H259543   0.090   3.938  11.308 -3.1080 -0.1929  1.2216
12710TIP3   OH259544   2.546   4.937   5.136 -0.0595 -0.5629 -0.2017
12710TIP3    H159545   2.617   4.912   5.194 -0.6460 -0.4647  0.5907
12710TIP3    H259546   2.547   4.872   5.066  1.1981 -0.1883 -0.5424
12711TIP3   OH259547   2.865   0.734  14.680 -0.2980  0.0338  0.1882
12711TIP3    H159548   2.895   0.699  14.597  0.6504 -0.3075  0.6593
12711TIP3    H259549   2.943   0.733  14.736 -1.1347 -0.6443  1.3751
12712TIP3   OH259550   4.832   3.067   4.110  0.1013  0.5023 -0.1522
12712TIP3    H159551   4.767   3.000   4.129  0.5921  0.0985  0.1200
12712TIP3    H259552   4.781   3.144   4.086 -0.4755 -0.5508 -2.6418
12713TIP3   OH259553   2.244   0.085  11.757  0.1218 -0.0661 -0.5766
12713TIP3    H159554   2.334   0.118  11.762 -0.1576  0.8185  4.4561
12713TIP3    H259555   2.239   0.021  11.829 -3.1503 -0.3663 -0.9437
12714TIP3   OH259556   4.654   5.912   4.231  0.1483  0.3086 -0.3628
12714TIP3    H159557   4.566   5.896   4.196 -0.4073  0.2036  1.0230
12714TIP3    H259558   4.663   5.849   4.303  1.0196  0.9097  0.0702
12715TIP3   OH259559   5.096   4.184   5.860 -0.3578  0.3356  0.2057
12715TIP3    H159560   5.125   4.236   5.934 -1.3211  0.2793  0.6406
12715TIP3    H259561   5.149   4.215   5.786  1.7437 -0.7137  1.1966
12716TIP3   OH259562   3.707   4.362   1.021  1.3076  0.7378 -0.4087
12716TIP3    H159563   3.712   4.410   1.103  3.2416 -0.6124  0.3395
12716TIP3    H259564   3.650   4.287   1.041 -1.6930  2.5378 -1.5658
12717TIP3   OH259565   2.444   2.684   4.620 -0.3081 -0.3793  0.1439
12717TIP3    H159566   2.501   2.741   4.672  0.9203 -1.1900 -0.2672
12717TIP3    H259567   2.401   2.628   4.685  0.1652 -0.4614  0.3935
12718TIP3   OH259568   0.681   4.596  15.709 -0.4662  0.2268 -0.8211
12718TIP3    H159569   0.725   4.516  15.679 -0.6270  0.0714 -0.6489
12718TIP3    H259570   0.694   4.659  15.638 -0.8295 -0.1303 -1.2092
12719TIP3   OH259571   5.247   1.269   3.767  0.0869  0.8275 -0.1984
12719TIP3    H159572   5.287   1.206   3.826  2.3870  2.6071  0.2935
12719TIP3    H259573   5.161   1.287   3.807  1.3702  1.6385  2.4874
12720TIP3   OH259574   0.019   5.860  13.313 -0.2311  0.2721  0.1416
12720TIP3    H159575  -0.025   5.840  13.230  1.6761 -1.1238 -0.5782
12720TIP3    H259576   0.065   5.942  13.297  0.0316  0.0700 -0.1167
12721TIP3   OH259577   2.103   2.111  12.149  0.0129 -0.1422 -0.1651
12721TIP3    H159578   2.008   2.104  12.158  0.0045  0.2740  0.0878
12721TIP3    H259579   2.117   2.157  12.067 -0.0150  0.1499 -0.0069
12722TIP3   OH259580   2.860   2.694  14.885 -0.2101 -0.6430  0.6334
12722TIP3    H159581   2.770   2.700  14.851  0.1572 -3.0264 -1.0305
12722TIP3    H259582   2.889   2.785  14.893 -3.0658  0.2504  2.1781
12723TIP3   OH259583   3.724   6.617   1.369 -0.8193 -0.0006  0.0588
12723TIP3    H159584   3.767   6.642   1.450  1.3483 -1.1623 -0.6739
12723TIP3    H259585   3.731   6.695   1.313  1.5240 -0.5567 -0.4917
12724TIP3   OH259586   0.068   4.333   0.705 -0.0434 -0.4242  0.4124
12724TIP3    H159587   0.077   4.315   0.611 -1.1982  1.4901 -0.1040
12724TIP3    H259588  -0.019   4.371   0.714  0.7819  1.2443  1.9516
12725TIP3   OH259589   3.670   6.050  12.838 -0.2279  0.8355  0.2710
12725TIP3    H159590   3.608   5.977  12.840  1.2149 -0.4158  0.5096
12725TIP3    H259591   3.752   6.014  12.871  1.0091  2.1011 -1.2538
12726TIP3   OH259592   5.973   0.535   0.340 -0.4382  0.2981 -0.6104
12726TIP3    H159593   6.012   0.535   0.427  0.6730  0.1871 -1.0977
12726TIP3    H259594   5.951   0.627   0.323 -0.0956  0.4078 -0.4576
12727TIP3   OH259595   4.010   6.171   1.560  0.3085 -0.3926  0.0960
12727TIP3    H159596   3.927   6.177   1.514 -0.9022  0.6658  2.2404
12727TIP3    H259597   3.986   6.172   1.653  2.7689  0.9111  0.8064
12728TIP3   OH259598   4.598   2.255  16.752 -0.0301 -0.4388  0.2709
12728TIP3    H159599   4.510   2.257  16.713 -0.0819  2.7035  0.2874
12728TIP3    H259600   4.582   2.258  16.846  0.0859  0.3847  0.2664
12729TIP3   OH259601   2.363   4.786  10.741 -0.3305  0.0692  0.0972
12729TIP3    H159602   2.402   4.707  10.704 -0.2646 -0.6023  1.5282
12729TIP3    H259603   2.328   4.833  10.666  2.1855  0.1414 -1.1420
12730TIP3   OH259604   6.114   5.870   1.848 -0.6594  0.5177 -0.3137
12730TIP3    H159605   6.057   5.923   1.793  0.5216  1.9077 -0.2788
12730TIP3    H259606   6.121   5.920   1.930  2.1689  1.5138 -1.0241
12731TIP3   OH259607   0.312   6.074   3.247  0.0444 -0.2061 -0.0569
12731TIP3    H159608   0.220   6.087   3.270  0.4143  2.0497  0.4037
12731TIP3    H259609   0.360   6.092   3.328  0.9622  0.0388 -0.6410
12732TIP3   OH259610   0.350   2.031  13.171  0.3434  0.0145 -0.2391
12732TIP3    H159611   0.323   2.042  13.080 -1.2810 -2.5280 -0.1736
12732TIP3    H259612   0.281   2.075  13.221  0.0559 -0.4503 -0.2184
12733TIP3   OH259613   4.538   2.404  11.860  0.2850 -0.3243  0.7423
12733TIP3    H159614   4.446   2.385  11.877 -0.5679  1.5341 -1.3011
12733TIP3    H259615   4.554   2.372  11.772  1.0484  1.0265  0.3570
12734TIP3   OH259616   3.124   5.486   5.310 -0.0274  0.3291 -0.8114
12734TIP3    H159617   3.083   5.568   5.286 -0.3535  0.7207  0.9351
12734TIP3    H259618   3.149   5.497   5.402 -0.0477 -1.5045 -0.5374
12735TIP3   OH259619   0.467   1.714  13.126  0.5557  0.1881  0.0654
12735TIP3    H159620   0.409   1.752  13.192  0.3780  0.1392 -0.0617
12735TIP3    H259621   0.484   1.785  13.065 -0.3179 -0.1012 -0.5435
12736TIP3   OH259622   3.006   0.600   6.311  0.3109 -0.0348 -0.7741
12736TIP3    H159623   3.049   0.685   6.298 -0.2861  0.4812  0.4681
12736TIP3    H259624   2.916   0.622   6.335  0.5532 -0.9450  1.1134
12737TIP3   OH259625   0.174   6.000   2.912  0.1049 -0.0098  1.0234
12737TIP3    H159626   0.231   6.065   2.952 -0.7603  1.5452 -0.1504
12737TIP3    H259627   0.230   5.954   2.850  0.1472  1.4803 -0.0932
12738TIP3   OH259628   1.414   4.267   6.307  0.4872  0.4013  0.2111
12738TIP3    H159629   1.324   4.268   6.340  0.3984 -0.5201  0.0236
12738TIP3    H259630   1.460   4.208   6.366  1.0654  1.1481  0.5223
12739TIP3   OH259631   6.042   4.583  16.674 -0.0993 -0.1249 -0.3636
12739TIP3    H159632   6.049   4.595  16.769  1.5261 -0.5736 -0.3967
12739TIP3    H259633   6.088   4.659  16.637  0.9456 -0.9136 -0.7359
12740TIP3   OH259634   6.761   2.099   4.038 -0.3389 -0.1542 -0.7674
12740TIP3    H159635   6.783   2.177   3.989 -0.5768  0.8223  0.6199
12740TIP3    H259636   6.765   2.126   4.130  0.1477 -1.9160 -0.2211
12741TIP3   OH259637   4.882   5.156  12.293  0.3080 -0.4205 -0.5064
12741TIP3    H159638   4.927   5.238  12.274 -1.1118  0.4878 -0.0583
12741TIP3    H259639   4.923   5.123  12.373 -0.9533  1.3073  0.9190
12742TIP3   OH259640   0.230   3.696  17.275 -0.3098 -0.3438 -0.1422
12742TIP3    H159641   0.323   3.676  17.278  0.0832  1.2122 -0.8406
12742TIP3    H259642   0.187   3.611  17.277  1.1674 -1.1497 -1.0607
12743TIP3   OH259643   2.200   5.840  12.431  0.7155  0.1550 -0.0389
12743TIP3    H159644   2.189   5.933  12.453 -2.9891 -0.0462 -0.3953
12743TIP3    H259645   2.292   5.822  12.451  1.4836  3.7493  0.4799
12744TIP3   OH259646   1.998   0.356   4.360  0.5861  0.0532  0.2607
12744TIP3    H159647   1.937   0.429   4.346  0.6327 -0.0813 -0.6934
12744TIP3    H259648   1.975   0.292   4.293  0.2062 -1.0623  1.4060
12745TIP3   OH259649   0.160   5.155  13.520  0.2155 -0.2539 -0.0694
12745TIP3    H159650   0.198   5.071  13.547 -0.5587 -0.4268  0.4883
12745TIP3    H259651   0.083   5.131  13.468  0.3016  0.1100 -0.3680
12746TIP3   OH259652   4.683   5.107   0.370 -0.2135  0.5000 -0.2221
12746TIP3    H159653   4.690   5.157   0.289  0.8300  1.3677  0.3825
12746TIP3    H259654   4.615   5.153   0.420 -0.7612  0.0446 -0.5397
12747TIP3   OH259655   2.324   2.553   2.209  0.2722 -0.3639  0.6117
12747TIP3    H159656   2.379   2.631   2.221  0.0243 -0.3444  1.7287
12747TIP3    H259657   2.386   2.483   2.188  0.4633  0.1957 -0.7435
12748TIP3   OH259658   0.952   5.005   0.850 -0.0954  1.0225 -0.5110
12748TIP3    H159659   0.875   5.020   0.905 -0.1881  2.6268 -1.0237
12748TIP3    H259660   0.918   5.006   0.761 -0.0007 -1.9123 -0.6476
12749TIP3   OH259661   6.757   3.427  13.813  0.0008  0.2834  0.3605
12749TIP3    H159662   6.746   3.392  13.725  0.3922  1.7967 -0.3211
12749TIP3    H259663   6.690   3.495  13.820 -0.1588  0.0463  1.3158
12750TIP3   OH259664   0.505   6.583   0.616  0.2691  0.0386  0.5288
12750TIP3    H159665   0.439   6.514   0.622 -0.8112  0.9748 -0.2316
12750TIP3    H259666   0.557   6.572   0.696 -0.5695 -0.9591  0.9719
12751TIP3   OH259667   5.059   4.945  11.739 -0.1754 -0.3382  0.1958
12751TIP3    H159668   5.027   4.900  11.817  0.2538 -1.6873 -0.3801
12751TIP3    H259669   5.151   4.963  11.758 -0.8206  2.2227  1.2577
12752TIP3   OH259670   3.009   3.720   5.045  0.6383 -0.2194 -0.1371
12752TIP3    H159671   2.937   3.783   5.054 -0.0069 -0.9311 -0.2143
12752TIP3    H259672   2.974   3.652   4.988  1.5403 -0.3442 -0.5430
12753TIP3   OH259673   2.294   0.771   3.841 -0.6729 -0.1377 -0.6009
12753TIP3    H159674   2.335   0.848   3.882  0.9155 -1.7662  1.0360
12753TIP3    H259675   2.209   0.765   3.883 -0.5828  0.4038 -0.3225
12754TIP3   OH259676   2.395   6.265   1.557  0.7938  0.2189  0.4272
12754TIP3    H159677   2.311   6.298   1.587  0.6763  1.1229 -0.8447
12754TIP3    H259678   2.403   6.179   1.599 -0.8787 -0.0031  0.3417
12755TIP3   OH259679   0.399   2.922   2.121  0.1060  0.1185 -0.4254
12755TIP3    H159680   0.348   2.968   2.188 -1.2877 -2.0486  0.1046
12755TIP3    H259681   0.460   2.867   2.170  1.7345  1.3124 -1.0408
12756TIP3   OH259682   4.961   5.938   0.870  0.4782  0.1189 -0.3149
12756TIP3    H159683   4.945   5.955   0.963  1.1837  2.4294 -0.5585
12756TIP3    H259684   4.875   5.918   0.835 -0.5706  3.3048  0.1167
12757TIP3   OH259685   4.171   5.934   1.536 -0.0333  0.0781 -0.0013
12757TIP3    H159686   4.114   5.858   1.521  1.0998 -0.7317 -0.3802
12757TIP3    H259687   4.114   6.010   1.526 -1.3007 -0.7310  0.8434
12758TIP3   OH259688   4.581   1.853  10.961 -0.3554  0.5532 -0.1190
12758TIP3    H159689   4.507   1.913  10.971  0.1466  0.8162  2.7548
12758TIP3    H259690   4.609   1.834  11.051  1.9235 -0.9878 -1.0717
12759TIP3   OH259691   2.141   3.298   3.457  0.0553  0.2459 -0.8841
12759TIP3    H159692   2.114   3.343   3.536 -0.4815 -0.2952 -0.7435
12759TIP3    H259693   2.126   3.205   3.476  2.7372 -0.1782 -0.5392
12760TIP3   OH259694   3.058   4.515  14.795 -0.6500 -0.2148 -0.4272
12760TIP3    H159695   3.148   4.537  14.769 -0.1523  0.5598  1.7896
12760TIP3    H259696   3.057   4.419  14.795  0.2325 -0.2347 -0.3168
12761TIP3   OH259697   6.138   0.515  15.962 -0.3920 -0.1679 -0.2757
12761TIP3    H159698   6.107   0.605  15.971  1.7364  1.0707 -3.4459
12761TIP3    H259699   6.198   0.502  16.036 -1.1232  0.8136  0.5038
12762TIP3   OH259700   6.642   5.690   0.600  0.7439  0.5222 -0.6641
12762TIP3    H159701   6.572   5.641   0.643 -0.2524  2.6729  0.3439
12762TIP3    H259702   6.682   5.628   0.540 -1.8965 -0.8739 -1.1085
12763TIP3   OH259703   1.784   4.672   5.792 -0.2771 -0.0817 -0.3557
12763TIP3    H159704   1.869   4.631   5.780  0.1672  0.7212 -0.0536
12763TIP3    H259705   1.781   4.694   5.885 -0.2315  1.0975 -0.6079
12764TIP3   OH259706   2.954   5.752   4.351 -0.1476  0.2255 -0.3957
12764TIP3    H159707   2.894   5.806   4.300  1.3599  3.4400  0.9032
12764TIP3    H259708   2.907   5.732   4.431 -0.2663  0.8350 -0.3103
12765TIP3   OH259709   1.648   2.623  16.628  0.4406  0.0887  0.3960
12765TIP3    H159710   1.599   2.703  16.610 -0.5886 -0.5857  0.1767
12765TIP3    H259711   1.740   2.649  16.616  0.0598  0.9005 -1.0331
12766TIP3   OH259712   3.635   4.943   5.290  0.3488 -0.4954 -0.1171
12766TIP3    H159713   3.676   4.864   5.255  0.8318 -0.7057  0.8652
12766TIP3    H259714   3.673   4.952   5.378 -2.5963 -1.4261  1.4095
12767TIP3   OH259715   4.702   0.985  15.292  0.7266 -0.5444  0.3108
12767TIP3    H159716   4.699   1.053  15.360  0.9301  0.2385 -0.4415
12767TIP3    H259717   4.738   0.909  15.336 -0.4622 -0.4950  1.4493
12768TIP3   OH259718   5.362   1.096  13.411  0.4998 -0.3793 -0.1760
12768TIP3    H159719   5.389   1.127  13.324 -3.2578  1.9650 -0.7535
12768TIP3    H259720   5.330   1.007  13.396  0.4772 -0.2303 -1.0662
12769TIP3   OH259721   1.243   4.116  11.618  0.8462  0.1736  0.0370
12769TIP3    H159722   1.292   4.077  11.691 -0.2708  0.5945  1.0559
12769TIP3    H259723   1.151   4.107  11.644  0.4892  2.8933  0.0671
12770TIP3   OH259724   1.177   5.045   4.022 -0.4542  0.1567 -0.5778
12770TIP3    H159725   1.268   5.047   4.051  0.0726 -1.1126 -1.9976
12770TIP3    H259726   1.177   5.092   3.938 -1.2286  0.6559 -0.3095
12771TIP3   OH259727   0.817   2.234   4.677  0.5377 -0.0068  0.2397
12771TIP3    H159728   0.862   2.305   4.632 -1.3369  0.0040 -1.8069
12771TIP3    H259729   0.826   2.159   4.618  0.8496 -0.9748  1.4660
12772TIP3   OH259730   6.655   0.485  14.683  0.8373  0.1731 -0.3414
12772TIP3    H159731   6.583   0.536  14.722  0.8314 -0.2500  0.2181
12772TIP3    H259732   6.724   0.550  14.667  0.7506  0.3979  0.1646
12773TIP3   OH259733   0.405   1.906  16.990  0.3819 -0.4943 -0.5013
12773TIP3    H159734   0.499   1.889  16.996  0.6934  1.0174 -0.8166
12773TIP3    H259735   0.394   1.992  17.031 -1.0987 -1.3242  0.9402
12774TIP3   OH259736   2.315   4.867  15.040 -0.4606  0.4111  0.4506
12774TIP3    H159737   2.255   4.818  14.983 -1.9703  0.4538  1.9193
12774TIP3    H259738   2.400   4.860  14.997 -1.1646 -1.1925 -0.7895
12775TIP3   OH259739   0.804   4.746  16.447  0.1955 -0.0307 -0.2764
12775TIP3    H159740   0.896   4.769  16.434  0.6835 -1.6508  0.0859
12775TIP3    H259741   0.802   4.701  16.531 -1.0714  0.5921  0.0574
12776TIP3   OH259742   2.124   0.157   2.932 -0.4756  0.2033  1.0188
12776TIP3    H159743   2.202   0.207   2.907 -0.6674  1.2747  2.4737
12776TIP3    H259744   2.159   0.077   2.971 -0.1016  0.5345  1.3773
12777TIP3   OH259745   5.270   1.343  11.219 -0.8662  0.2977  0.0294
12777TIP3    H159746   5.212   1.363  11.293 -0.1483 -0.8294  0.9473
12777TIP3    H259747   5.211   1.321  11.147 -1.6052 -0.8934  0.9623
12778TIP3   OH259748   3.800   5.944  11.966 -0.0067 -0.0608  0.1603
12778TIP3    H159749   3.856   5.928  12.043 -0.1897 -1.1019  0.0799
12778TIP3    H259750   3.847   6.012  11.917  0.6617 -0.1652  0.6350
12779TIP3   OH259751   4.262   3.093   6.109  0.6479  0.0724 -0.0069
12779TIP3    H159752   4.351   3.056   6.109  0.9989  0.8696 -1.2716
12779TIP3    H259753   4.273   3.181   6.144  0.3537  0.1891 -0.2060
12780TIP3   OH259754   6.238   6.498   2.072 -0.1787  0.0597 -0.2294
12780TIP3    H159755   6.206   6.547   1.997 -0.0648  0.1346 -0.2297
12780TIP3    H259756   6.225   6.556   2.147 -0.4359 -0.0757 -0.1682
12781TIP3   OH259757   2.359   2.461  14.833  0.2049 -0.3354  0.2320
12781TIP3    H159758   2.269   2.479  14.804 -0.2654 -1.4197  0.9364
12781TIP3    H259759   2.411   2.464  14.752 -0.4058  0.5564 -0.1510
12782TIP3   OH259760   2.440   0.625   1.551 -0.8552 -0.1538  0.4889
12782TIP3    H159761   2.495   0.608   1.475  1.1083  0.8384  1.6094
12782TIP3    H259762   2.377   0.691   1.522 -1.4641 -1.2707 -0.8093
12783TIP3   OH259763   5.716   5.386   2.365 -0.5028 -0.1054  0.6771
12783TIP3    H159764   5.802   5.352   2.341  0.8079  3.3801 -0.1564
12783TIP3    H259765   5.723   5.407   2.458  0.0260  1.2105  0.3707
12784TIP3   OH259766   0.291   3.778   4.665  0.2145  0.4092 -0.2611
12784TIP3    H159767   0.291   3.682   4.659 -1.3870  0.4632 -2.1026
12784TIP3    H259768   0.326   3.807   4.581  0.0236  1.4626  0.0145
12785TIP3   OH259769   5.045   0.621   5.206  0.6333  0.2550 -0.2223
12785TIP3    H159770   4.997   0.698   5.235  1.0002  0.2066  0.5438
12785TIP3    H259771   5.116   0.656   5.153 -0.0771  0.3412 -1.1351
12786TIP3   OH259772   0.894   1.671   1.654 -0.1822 -0.9392 -0.4647
12786TIP3    H159773   0.886   1.667   1.750 -1.3157  0.0428 -0.4944
12786TIP3    H259774   0.988   1.678   1.638 -0.0604  0.3971  0.6634
12787TIP3   OH259775   1.120   2.780  14.916  0.3556 -0.2740 -0.1639
12787TIP3    H159776   1.188   2.775  14.849  0.7695  0.9091  0.1475
12787TIP3    H259777   1.117   2.872  14.940 -2.2102 -0.0429 -1.0417
12788TIP3   OH259778   4.386   6.556   2.940  0.2105  0.0275  0.2454
12788TIP3    H159779   4.316   6.491   2.940  1.5303 -1.4927 -1.5909
12788TIP3    H259780   4.343   6.639   2.918 -1.1350 -0.6889  0.1379
12789TIP3   OH259781   6.171   1.521   1.893  0.0319 -0.6396 -0.4093
12789TIP3    H159782   6.178   1.426   1.896  0.8332 -0.5728  0.0966
12789TIP3    H259783   6.244   1.552   1.946 -1.4498  0.2115  1.2862
12790TIP3   OH259784   2.370   6.237   1.170 -0.1759 -0.0625  0.0029
12790TIP3    H159785   2.339   6.292   1.098  0.1562  0.4968  0.2784
12790TIP3    H259786   2.327   6.273   1.247 -0.2188 -0.4088  0.1388
12791TIP3   OH259787   0.302   2.781   5.200  0.6454 -0.8938 -0.3736
12791TIP3    H159788   0.282   2.856   5.256 -1.4105 -1.1484 -0.6967
12791TIP3    H259789   0.334   2.819   5.119  0.2878 -0.3938 -0.2813
12792TIP3   OH259790   4.290   4.526   1.043  0.2356  0.0798  0.9717
12792TIP3    H159791   4.353   4.483   1.102  0.0747 -0.0565  1.0447
12792TIP3    H259792   4.340   4.597   1.004  0.7885 -0.7351  0.1450
12793TIP3   OH259793   3.129   2.942  11.509 -0.4744  0.2091  0.2329
12793TIP3    H159794   3.135   3.017  11.569  2.0615 -0.3867  0.8087
12793TIP3    H259795   3.106   2.981  11.425  1.0496  1.6879  0.4553
12794TIP3   OH259796   6.666   0.645  13.417 -0.4709  0.3876 -0.7740
12794TIP3    H159797   6.635   0.581  13.353  0.5409  0.2800 -1.1697
12794TIP3    H259798   6.734   0.694  13.371  0.5482  0.0567  0.3143
12795TIP3   OH259799   4.686   3.397   3.651 -0.3450 -0.0201 -0.2157
12795TIP3    H159800   4.678   3.455   3.727 -0.6386  0.3266 -0.5101
12795TIP3    H259801   4.757   3.337   3.675 -1.5734 -1.0432  1.0701
12796TIP3   OH259802   3.394   1.424   3.443  0.3950 -0.0455 -0.1394
12796TIP3    H159803   3.389   1.346   3.387  1.8244 -0.1045 -0.2242
12796TIP3    H259804   3.432   1.491   3.387  0.9625  0.1607  0.4824
12797TIP3   OH259805   5.810   0.829  12.584 -0.1185 -0.5914 -0.1141
12797TIP3    H159806   5.842   0.918  12.597 -0.3697 -0.3466 -1.0992
12797TIP3    H259807   5.875   0.788  12.527 -0.7870 -0.5488 -0.9200
12798TIP3   OH259808   1.680   4.646  11.127 -0.5804  0.3383 -0.2278
12798TIP3    H159809   1.759   4.696  11.110 -0.1588  0.2963  1.4165
12798TIP3    H259810   1.610   4.695  11.083  0.3423  0.3072 -1.7876
12799TIP3   OH259811   5.082   3.679  12.810  0.4053  0.5266  0.1272
12799TIP3    H159812   5.100   3.611  12.875  1.7967  0.6128 -0.1260
12799TIP3    H259813   5.002   3.722  12.841  0.9243  0.4384  1.6661
12800TIP3   OH259814   0.967   6.446  16.309  0.9099 -0.3847  0.4541
12800TIP3    H159815   0.992   6.355  16.326  1.3736 -0.2014  0.7525
12800TIP3    H259816   0.942   6.447  16.216  2.3281 -0.4973  0.0510
12801TIP3   OH259817   5.569   6.122   0.625 -0.3278  0.1383 -0.7917
12801TIP3    H159818   5.638   6.078   0.676 -1.0225 -0.7094 -0.5700
12801TIP3    H259819   5.610   6.141   0.541  0.1264 -0.5168 -0.7236
12802TIP3   OH259820   6.077   0.486   4.855 -0.8232  0.4073  0.0983
12802TIP3    H159821   6.093   0.543   4.930 -0.8318  0.3203  0.1662
12802TIP3    H259822   6.024   0.539   4.796 -0.3270  0.6860 -0.1106
12803TIP3   OH259823   1.012   3.225  12.711 -0.6949 -0.4479  0.1080
12803TIP3    H159824   0.976   3.310  12.690 -0.4236  0.4200  2.7278
12803TIP3    H259825   0.997   3.215  12.806  2.6699 -1.5744  0.6738
12804TIP3   OH259826   2.414   2.283   4.897  0.0171  0.5031 -0.0365
12804TIP3    H159827   2.432   2.208   4.953 -2.1317  1.1216  1.6054
12804TIP3    H259828   2.403   2.246   4.809 -0.3725 -1.0201  0.6244
12805TIP3   OH259829   0.367   6.131  16.172 -0.2003  0.2930 -0.2111
12805TIP3    H159830   0.395   6.046  16.205 -2.9584 -0.6547 -0.0823
12805TIP3    H259831   0.326   6.112  16.088  1.1849  1.8727 -1.3379
12806TIP3   OH259832   5.234   2.154   5.403 -0.0203 -0.3067 -0.5859
12806TIP3    H159833   5.189   2.069   5.405  0.8702 -0.8134 -1.1784
12806TIP3    H259834   5.214   2.190   5.316 -0.7398  0.2919 -0.1792
12807TIP3   OH259835   5.755   4.062   0.834 -0.3462  0.0031  0.2538
12807TIP3    H159836   5.843   4.083   0.866 -0.6115  0.4885  0.6905
12807TIP3    H259837   5.699   4.072   0.911 -0.7283 -0.7048  0.0728
12808TIP3   OH259838   5.238   4.608   5.323  0.2847 -0.0643  0.0133
12808TIP3    H159839   5.256   4.699   5.303  0.5255 -0.5495 -2.2989
12808TIP3    H259840   5.324   4.567   5.333  0.2814 -0.4841 -1.4262
12809TIP3   OH259841   6.501   6.266  15.891  0.1134 -0.0301 -0.1319
12809TIP3    H159842   6.457   6.317  15.822 -1.6476 -0.9233  0.2844
12809TIP3    H259843   6.579   6.317  15.912 -0.6697  1.5818 -0.9668
12810TIP3   OH259844   3.649   1.701  12.442  0.3769  0.8439 -0.1669
12810TIP3    H159845   3.624   1.764  12.375  1.6205 -0.0951 -1.5611
12810TIP3    H259846   3.686   1.627  12.394 -1.0499 -0.9988  1.3978
12811TIP3   OH259847   4.386   4.161   5.597  0.2350  0.3935 -0.3864
12811TIP3    H159848   4.481   4.160   5.594  0.2350  1.1957 -3.1139
12811TIP3    H259849   4.361   4.070   5.582  0.5809  0.4059 -1.0584
12812TIP3   OH259850   1.200   1.631  13.959 -0.2532 -0.2108  0.2813
12812TIP3    H159851   1.206   1.712  13.908  0.0417  1.0878  2.2431
12812TIP3    H259852   1.286   1.622  14.001 -0.7403 -0.7225  1.2122
12813TIP3   OH259853   3.761   1.239   3.242  0.0666  0.0477  0.2067
12813TIP3    H159854   3.668   1.237   3.266 -0.2656  0.0563 -1.0000
12813TIP3    H259855   3.797   1.158   3.280 -1.4946 -2.4958 -3.1887
12814TIP3   OH259856   6.671   2.226  11.300 -0.4072  0.5262  0.0515
12814TIP3    H159857   6.720   2.270  11.230 -1.9781 -0.2841 -1.6527
12814TIP3    H259858   6.606   2.173  11.254  0.6812 -2.8095  1.9813
12815TIP3   OH259859   6.216   6.467   0.757 -0.8517  0.2996 -0.1865
12815TIP3    H159860   6.199   6.560   0.775 -1.2332  0.1709  0.1133
12815TIP3    H259861   6.135   6.422   0.782 -1.1519  0.0330 -1.5689
12816TIP3   OH259862   5.353   4.784  12.762 -0.1619  0.1403  0.4851
12816TIP3    H159863   5.345   4.839  12.684  0.9282  0.7431  0.7697
12816TIP3    H259864   5.348   4.695  12.729  0.1714  0.3951 -0.2771
12817TIP3   OH259865   5.288   3.113   1.017  0.2328  0.6712  0.1009
12817TIP3    H159866   5.266   3.150   0.931  0.6369  0.1715 -0.2268
12817TIP3    H259867   5.241   3.030   1.020  0.8228  0.3298  0.0422
12818TIP3   OH259868   2.442   6.632  11.684  0.3555  0.1527  0.0897
12818TIP3    H159869   2.428   6.727  11.678  0.1606  0.0549 -1.6520
12818TIP3    H259870   2.376   6.602  11.746  0.4507  1.1554  0.7044
12819TIP3   OH259871   5.241   5.313   4.597 -0.3778 -0.2026  0.2869
12819TIP3    H159872   5.196   5.296   4.514 -1.1412  1.0584  0.4105
12819TIP3    H259873   5.331   5.336   4.570 -0.0300 -1.7790 -0.0223
12820TIP3   OH259874   0.144   1.185  14.809  0.5319 -0.6414 -0.3046
12820TIP3    H159875   0.227   1.144  14.783  0.1391 -1.4460 -0.3063
12820TIP3    H259876   0.096   1.116  14.854 -0.1197 -0.1624 -0.2527
12821TIP3   OH259877   4.881   4.910  17.168 -0.0382  0.6646  0.3098
12821TIP3    H159878   4.833   4.916  17.086  0.8439 -0.6809 -0.3492
12821TIP3    H259879   4.971   4.935  17.146  0.4617 -0.7651  0.5717
12822TIP3   OH259880   3.364   5.355  12.522  0.0933  0.1863 -0.3242
12822TIP3    H159881   3.432   5.344  12.588 -0.5343 -1.5618  0.0952
12822TIP3    H259882   3.397   5.309  12.445 -1.1592 -1.9890  0.3518
12823TIP3   OH259883   5.890   1.252  12.410 -0.7817 -0.3830  0.4758
12823TIP3    H159884   5.817   1.237  12.349  0.9620  0.2460 -1.9549
12823TIP3    H259885   5.968   1.237  12.357  0.8852  1.1883  2.3273
12824TIP3   OH259886   2.389   3.899  13.130 -0.2226  0.3107 -0.9220
12824TIP3    H159887   2.439   3.875  13.208 -2.0219  0.6717  0.4133
12824TIP3    H259888   2.326   3.963  13.161 -2.0824 -0.7436 -2.3172
12825TIP3   OH259889   5.576   5.946  11.566 -0.1888 -0.4585  0.2222
12825TIP3    H159890   5.636   5.873  11.554  0.0509 -0.2330  0.0426
12825TIP3    H259891   5.617   6.001  11.633 -0.5123 -0.6383  0.5746
12826TIP3   OH259892   6.735   0.783   2.224  0.0133  0.3318 -0.0464
12826TIP3    H159893   6.665   0.829   2.177 -0.1211  1.7107  1.3894
12826TIP3    H259894   6.706   0.692   2.226 -1.1209  0.6550 -0.5911
12827TIP3   OH259895   5.493   2.818   6.562 -0.1344 -0.1249 -0.1255
12827TIP3    H159896   5.565   2.757   6.578  1.1361  0.8508 -1.7077
12827TIP3    H259897   5.519   2.897   6.609  0.8441  0.8587 -2.1696
12828TIP3   OH259898   3.213   3.656  13.837  0.0877  0.4324  0.1584
12828TIP3    H159899   3.229   3.621  13.750 -1.2174 -1.2695  0.5470
12828TIP3    H259900   3.170   3.741  13.821 -0.2175  0.1027 -0.8501
12829TIP3   OH259901   3.306   3.104   2.175 -0.1585  0.1317  0.0366
12829TIP3    H159902   3.241   3.139   2.236 -1.1557  0.0002 -0.9161
12829TIP3    H259903   3.336   3.181   2.127  1.2545  0.3682  1.2204
12830TIP3   OH259904   4.708   6.046  15.353 -0.4265 -0.1021  0.4355
12830TIP3    H159905   4.651   5.971  15.339 -1.3493  0.2801  1.9561
12830TIP3    H259906   4.689   6.075  15.442 -0.3862  2.1924 -0.2446
12831TIP3   OH259907   5.474   5.348  16.246  0.0454  0.3577  0.1167
12831TIP3    H159908   5.480   5.253  16.254  0.1315 -0.0625 -3.3429
12831TIP3    H259909   5.542   5.371  16.183 -0.0423  2.7249  0.7838
12832TIP3   OH259910   2.461   0.364  11.545  0.0504  0.0673  0.8052
12832TIP3    H159911   2.466   0.291  11.484 -2.1026 -0.5796  1.3257
12832TIP3    H259912   2.481   0.326  11.630 -0.5410  0.1890  1.0038
12833TIP3   OH259913   3.824   4.467   0.283 -0.7971  0.1610 -0.2610
12833TIP3    H159914   3.789   4.539   0.230  0.3255  0.1142 -1.1196
12833TIP3    H259915   3.918   4.487   0.290 -0.8340 -0.1404  1.2533
12834TIP3   OH259916   6.256   3.307   3.584 -0.3612 -0.0788  0.6312
12834TIP3    H159917   6.165   3.332   3.602 -0.3698  0.0798  0.3759
12834TIP3    H259918   6.286   3.372   3.520 -0.2616 -0.5040  0.2444
12835TIP3   OH259919   2.709   3.290  16.849  0.4951 -0.2455  0.3601
12835TIP3    H159920   2.685   3.317  16.938 -0.5360  1.2658 -0.3198
12835TIP3    H259921   2.772   3.356  16.820  0.4829 -0.4669 -0.1779
12836TIP3   OH259922   2.676   0.088   1.157 -0.1453 -0.2648  0.7650
12836TIP3    H159923   2.607   0.102   1.092 -1.8725 -0.0344  2.5456
12836TIP3    H259924   2.640   0.023   1.218  1.3980 -0.4810  1.5080
12837TIP3   OH259925   5.855   0.570  13.414  0.2490  0.6946  0.8167
12837TIP3    H159926   5.876   0.658  13.446  0.1836  0.9658  0.1182
12837TIP3    H259927   5.918   0.553  13.344  1.5006 -0.5886  2.1846
12838TIP3   OH259928   4.664   3.137   5.022 -0.2591  0.7691 -0.0061
12838TIP3    H159929   4.692   3.221   4.986  0.4324  1.0565  1.1315
12838TIP3    H259930   4.728   3.118   5.091 -1.3648  0.1208  0.8772
12839TIP3   OH259931   4.722   3.599  14.576  0.0964 -0.4820  0.1709
12839TIP3    H159932   4.742   3.527  14.636 -0.1793  0.1085  0.9896
12839TIP3    H259933   4.627   3.612  14.585  0.4527  1.5065  1.8275
12840TIP3   OH259934   0.219   1.781   4.128  0.3063  0.2174 -0.4548
12840TIP3    H159935   0.259   1.695   4.142 -0.6494 -0.2243 -0.2977
12840TIP3    H259936   0.209   1.817   4.216  1.2771  0.7731 -0.5611
12841TIP3   OH259937   3.700   6.032   0.826  0.4218  0.0326  0.5766
12841TIP3    H159938   3.624   5.984   0.858  0.7641 -1.8922 -1.3081
12841TIP3    H259939   3.729   6.083   0.902 -5.3294  4.7148  0.4099
12842TIP3   OH259940   1.235   6.402  17.310 -0.0728 -0.3693  0.8035
12842TIP3    H159941   1.175   6.473  17.334 -1.1472 -0.8444 -0.3901
12842TIP3    H259942   1.258   6.362  17.394 -1.3404 -0.0895  1.3210
12843TIP3   OH259943   3.086   4.479   0.080 -0.1145 -0.6879 -0.8367
12843TIP3    H159944   2.992   4.485   0.096  0.0349 -0.6032  0.0608
12843TIP3    H259945   3.126   4.508   0.161  0.6974 -0.3056 -1.3588
12844TIP3   OH259946   4.451   2.021   3.160  0.2862 -0.2132 -0.2890
12844TIP3    H159947   4.542   2.029   3.186 -0.1924 -0.6189  1.6752
12844TIP3    H259948   4.451   1.951   3.094  1.3556 -0.3966 -0.1136
12845TIP3   OH259949   0.090   6.203   3.367 -0.5840 -0.0001 -0.2600
12845TIP3    H159950   0.042   6.210   3.449 -2.0996 -0.9071 -1.0148
12845TIP3    H259951   0.107   6.294   3.341 -0.0110  0.2959  1.0547
12846TIP3   OH259952   5.420   3.445   0.079  0.6656  0.0754  0.0915
12846TIP3    H159953   5.374   3.407   0.004  1.1140  1.0864 -0.7106
12846TIP3    H259954   5.419   3.375   0.144 -1.9315  0.0204  0.1047
12847TIP3   OH259955   0.560   5.900  14.551 -0.1251 -0.3550 -0.1763
12847TIP3    H159956   0.504   5.978  14.557  1.4796  0.7831  0.6036
12847TIP3    H259957   0.499   5.827  14.558 -1.3796  0.8118  2.7337
12848TIP3   OH259958   1.291   5.364  17.067 -0.9523  0.2074 -0.1343
12848TIP3    H159959   1.280   5.436  17.130 -1.5252  0.3763 -0.4190
12848TIP3    H259960   1.373   5.384  17.023 -0.8814  0.4483  0.0976
12849TIP3   OH259961   3.190   3.664  12.566 -0.1763  0.2672  0.1025
12849TIP3    H159962   3.202   3.585  12.514 -0.2316  0.1370  0.2869
12849TIP3    H259963   3.274   3.710  12.560 -0.8776  1.4004 -1.9963
12850TIP3   OH259964   5.293   6.101   3.197  0.2567  0.4632 -0.1386
12850TIP3    H159965   5.298   6.042   3.122 -0.9496  0.0882  0.0547
12850TIP3    H259966   5.216   6.156   3.180  1.5091  2.2261 -0.4605
12851TIP3   OH259967   4.853   4.600   2.856  0.0503  0.2477 -0.1216
12851TIP3    H159968   4.773   4.651   2.867  0.1027  0.8918 -2.2219
12851TIP3    H259969   4.923   4.665   2.861  0.4553 -0.2711  1.4271
12852TIP3   OH259970   6.384   0.867   5.341  0.1358  0.2639 -0.5454
12852TIP3    H159971   6.338   0.787   5.314 -0.0963  0.6156 -1.2186
12852TIP3    H259972   6.318   0.917   5.389  0.1287  0.2873 -0.5796
12853TIP3   OH259973   5.476   6.288   4.997 -0.7529 -0.1121 -0.2252
12853TIP3    H159974   5.412   6.217   4.993 -0.7618 -0.1030 -0.2362
12853TIP3    H259975   5.561   6.244   4.997 -0.7741 -0.1666  0.7333
12854TIP3   OH259976   4.428   3.593   4.226  0.2707  0.6142  0.2106
12854TIP3    H159977   4.517   3.564   4.206  0.8021  0.6075  2.3623
12854TIP3    H259978   4.429   3.609   4.320 -1.7842  1.4528  0.1292
12855TIP3   OH259979   4.463   5.846  15.992 -0.2560  0.6664 -0.0721
12855TIP3    H159980   4.383   5.824  15.944  1.2597  1.0866 -3.0423
12855TIP3    H259981   4.490   5.763  16.031 -1.9445  0.4561  0.7359
12856TIP3   OH259982   2.954   3.246  16.992  0.5099  0.4710 -0.1976
12856TIP3    H159983   2.876   3.300  17.006 -0.5800 -0.9841 -0.4135
12856TIP3    H259984   2.972   3.254  16.899  1.1271  1.4318 -0.0139
12857TIP3   OH259985   3.644   3.292  11.929  0.7192  0.1857 -0.0952
12857TIP3    H159986   3.704   3.361  11.901  2.3157 -1.6289 -1.4589
12857TIP3    H259987   3.586   3.279  11.854 -0.6611  1.1150  0.7726
12858TIP3   OH259988   4.894   5.553   0.045 -0.2720 -0.1640  0.2680
12858TIP3    H159989   4.816   5.590   0.086 -2.2611 -2.2090 -1.4629
12858TIP3    H259990   4.938   5.506   0.116 -1.4424 -0.2495  0.9643
12859TIP3   OH259991   0.900   3.251  13.863 -0.2924  0.0520 -0.0396
12859TIP3    H159992   0.844   3.329  13.867 -0.2623  0.0391  0.8726
12859TIP3    H259993   0.838   3.177  13.863 -0.3108  0.0690 -0.4365
12860TIP3   OH259994   0.466   3.678  13.770 -0.2965  0.2154  0.5369
12860TIP3    H159995   0.384   3.726  13.758 -0.2873  0.4548  1.3367
12860TIP3    H259996   0.439   3.587  13.782 -0.3897  0.1788  0.0641
12861TIP3   OH259997   6.300   6.208  11.400 -0.0877  0.5298 -0.0763
12861TIP3    H159998   6.333   6.201  11.490 -0.1689  0.8779 -0.0146
12861TIP3    H259999   6.307   6.120  11.364 -0.3900  0.3114  0.3898
12862TIP3   OH260000   2.351   1.937   2.432 -0.3972 -0.2319 -0.3074
12862TIP3    H160001   2.403   1.868   2.473  0.5754  0.5254 -0.2316
12862TIP3    H260002   2.325   1.902   2.347  1.9546  0.0954 -1.2355
12863TIP3   OH260003   5.857   6.341  11.648  0.5755  0.1627 -0.6971
12863TIP3    H160004   5.918   6.273  11.621 -0.1187  0.0235 -2.0221
12863TIP3    H260005   5.911   6.406  11.692  2.1332  1.1266 -3.7459
12864TIP3   OH260006   5.520   3.910   2.755 -0.0693  0.1489  0.1344
12864TIP3    H160007   5.579   3.981   2.784 -0.2285  1.3635 -2.2267
12864TIP3    H260008   5.449   3.910   2.819  1.5766 -0.1612  2.0608
12865TIP3   OH260009   4.936   4.172  15.181 -0.1985  0.1501 -0.0076
12865TIP3    H160010   4.919   4.194  15.273  0.5290  3.3517 -0.5267
12865TIP3    H260011   5.031   4.163  15.176 -0.3247 -1.1753 -0.2614
12866TIP3   OH260012   5.704   6.770   5.469  0.1220 -0.1210 -0.3618
12866TIP3    H160013   5.776   6.822   5.503  0.4945 -0.2056 -0.9965
12866TIP3    H260014   5.676   6.715   5.542 -1.1344  1.8551  0.7387
12867TIP3   OH260015   2.003   6.337  16.906 -0.1422  0.0715  0.0877
12867TIP3    H160016   1.929   6.397  16.914  1.6049  2.1375  1.8890
12867TIP3    H260017   2.041   6.357  16.820 -1.5946 -1.0382 -0.8720
12868TIP3   OH260018   5.305   5.832  14.670  0.4700  0.0928 -0.4473
12868TIP3    H160019   5.368   5.806  14.738  0.1742 -2.0336 -0.9392
12868TIP3    H260020   5.304   5.759  14.608 -2.3429  0.1215 -0.5631
12869TIP3   OH260021   6.262   1.131  15.491  0.2715 -0.1179 -0.0787
12869TIP3    H160022   6.352   1.104  15.510  0.2820  0.5122  0.8476
12869TIP3    H260023   6.271   1.203  15.430  0.4237  0.2297  0.3494
12870TIP3   OH260024   3.806   4.909   3.656 -0.2066  0.1482 -0.5432
12870TIP3    H160025   3.887   4.914   3.606 -1.0031 -0.5020 -1.9459
12870TIP3    H260026   3.790   4.816   3.669 -0.3846  0.2857  0.3445
12871TIP3   OH260027   3.401   0.197   1.540  0.0188 -0.3196 -0.0015
12871TIP3    H160028   3.436   0.109   1.549  0.3062 -0.0626  1.7663
12871TIP3    H260029   3.306   0.186   1.543  0.0593 -0.5611  0.5782
12872TIP3   OH260030   3.493   2.831  13.993 -0.2078  0.2112 -0.3727
12872TIP3    H160031   3.472   2.868  14.079  0.0478 -0.6667  0.0781
12872TIP3    H260032   3.450   2.890  13.931 -0.9919  0.4642  0.3819
12873TIP3   OH260033   2.557   3.566   2.117 -0.3078  0.0328  0.0575
12873TIP3    H160034   2.539   3.480   2.154  0.5837 -0.2107 -0.0503
12873TIP3    H260035   2.510   3.567   2.034  1.1926 -1.1134 -0.8697
12874TIP3   OH260036   0.418   3.998  11.511 -0.2570 -0.1562  0.3668
12874TIP3    H160037   0.329   3.967  11.522 -0.3353  0.7889  2.9562
12874TIP3    H260038   0.419   4.085  11.552  1.5910  0.3208 -0.5621
12875TIP3   OH260039   3.561   1.835  13.301 -0.1044  0.0328 -0.1392
12875TIP3    H160040   3.582   1.756  13.251  0.4870  0.0014  0.1480
12875TIP3    H260041   3.647   1.875  13.320 -0.4190  1.0227 -0.7265
12876TIP3   OH260042   2.491   0.120   0.936  0.4307 -0.0499  0.1307
12876TIP3    H160043   2.519   0.106   0.845 -0.6034  2.2395 -0.6124
12876TIP3    H260044   2.396   0.106   0.934  0.6660 -2.4040  1.4604
12877TIP3   OH260045   1.142   0.942  14.190  0.0491  0.3518 -0.7958
12877TIP3    H160046   1.120   0.858  14.150  2.8933  0.1811 -2.2655
12877TIP3    H260047   1.075   1.003  14.158 -1.8507 -1.2169  0.0233
12878TIP3   OH260048   0.799   1.350   2.632 -0.7399  1.1358  0.0735
12878TIP3    H160049   0.784   1.385   2.720 -2.6754 -0.6339  0.5228
12878TIP3    H260050   0.713   1.324   2.601  0.2268 -0.7765 -1.2496
12879TIP3   OH260051   0.818   2.935   2.005 -0.5705 -0.7474  0.3886
12879TIP3    H160052   0.856   2.872   2.066  0.5276 -0.1216  0.3855
12879TIP3    H260053   0.868   2.924   1.924 -0.5873 -0.1175  0.2837
12880TIP3   OH260054   4.119   3.526  11.496  0.2609  0.6656 -0.5139
12880TIP3    H160055   4.204   3.570  11.489  0.1906  0.9833  0.5031
12880TIP3    H260056   4.058   3.589  11.458  0.4385  0.5571 -0.9856
12881TIP3   OH260057   3.410   0.503   4.649 -0.1023 -0.0608 -0.2463
12881TIP3    H160058   3.416   0.410   4.670 -1.1895 -0.1244 -0.1398
12881TIP3    H260059   3.478   0.544   4.702 -1.3106 -0.4952  1.7543
12882TIP3   OH260060   5.305   1.690  16.053 -0.7442 -0.3662 -0.0229
12882TIP3    H160061   5.366   1.657  15.987 -0.3271  0.9872 -0.3578
12882TIP3    H260062   5.241   1.619  16.065 -0.6471 -0.7658 -1.6588
12883TIP3   OH260063   0.199   1.643  10.977  0.3458  0.3089 -0.0185
12883TIP3    H160064   0.206   1.717  10.917 -1.7546 -0.7119 -1.6462
12883TIP3    H260065   0.253   1.575  10.936  1.6723  0.6527  1.0894
12884TIP3   OH260066   3.593   1.522  15.467  0.1037  0.7305 -0.5034
12884TIP3    H160067   3.584   1.618  15.468 -0.5795  0.9000  4.7523
12884TIP3    H260068   3.676   1.506  15.512 -0.5355 -1.1527  0.0670
12885TIP3   OH260069   6.752   4.289   3.387  0.6783 -0.1237  0.1518
12885TIP3    H160070   6.743   4.257   3.477  1.4900 -0.4052  0.1444
12885TIP3    H260071   6.671   4.337   3.370 -0.8119 -2.5237  0.0139
12886TIP3   OH260072   1.515   0.222  13.980  0.1613 -0.7954  0.7084
12886TIP3    H160073   1.600   0.220  13.936 -1.2457 -1.6344 -2.2170
12886TIP3    H260074   1.451   0.202  13.911 -2.5369  0.7718  2.5338
12887TIP3   OH260075   0.639   0.148   5.211  0.1398 -0.0988 -0.1647
12887TIP3    H160076   0.681   0.187   5.287 -0.5224  0.7814 -0.2270
12887TIP3    H260077   0.708   0.140   5.146  0.1091  2.0067 -0.5271
12888TIP3   OH260078   4.174   6.691  12.918 -0.1512  0.5529 -0.5072
12888TIP3    H160079   4.223   6.662  12.995 -1.3111  2.0470  0.8933
12888TIP3    H260080   4.210   6.641  12.845  1.5106 -0.3838  0.8879
12889TIP3   OH260081   6.187   6.450   5.950 -0.1497 -0.9331 -0.0589
12889TIP3    H160082   6.170   6.505   5.873 -1.1143 -0.0464  0.7505
12889TIP3    H260083   6.253   6.499   5.999  1.7727 -2.3336 -1.1186
12890TIP3   OH260084   3.576   6.405   4.151  0.2095 -0.2272  0.1015
12890TIP3    H160085   3.646   6.454   4.108 -0.9308  0.4844 -1.0389
12890TIP3    H260086   3.527   6.472   4.200 -2.1477  0.1860 -2.5082
12891TIP3   OH260087   4.022   3.343   2.689 -0.1360  0.3704 -0.0999
12891TIP3    H160088   3.967   3.420   2.673 -0.2189  0.0352 -1.5092
12891TIP3    H260089   4.091   3.349   2.623  0.0323 -0.5916 -0.0178
12892TIP3   OH260090   0.802   3.067   3.494 -0.5514  0.0529  0.0251
12892TIP3    H160091   0.860   2.993   3.483  1.0969  1.4483 -1.2866
12892TIP3    H260092   0.791   3.076   3.589  1.0280 -0.5205  0.2897
12893TIP3   OH260093   5.135   3.546  11.312  0.1596  0.5247  0.5460
12893TIP3    H160094   5.160   3.454  11.322  0.3983  0.6703  1.3043
12893TIP3    H260095   5.039   3.544  11.310  0.1557  0.2875  0.8719
12894TIP3   OH260096   3.859   2.372   3.176  0.2394  0.4088  0.5676
12894TIP3    H160097   3.884   2.284   3.206  1.4243  0.1833 -0.9301
12894TIP3    H260098   3.811   2.410   3.249  0.3871 -1.2004  1.5479
12895TIP3   OH260099   5.377   2.083   2.265  0.0242 -0.2500  0.0159
12895TIP3    H160100   5.472   2.076   2.270 -0.0286 -0.4288  1.1917
12895TIP3    H260101   5.358   2.090   2.172  1.4162  3.0587 -0.1681
12896TIP3   OH260102   3.133   6.626   5.985  0.3105  0.3170 -0.0180
12896TIP3    H160103   3.115   6.717   5.961  0.3424 -0.2919 -2.7697
12896TIP3    H260104   3.228   6.617   5.972  0.4932  0.1236  1.3013
12897TIP3   OH260105   1.686   4.877  14.398  0.0975  0.0664 -0.0337
12897TIP3    H160106   1.628   4.953  14.390 -1.4735 -1.2074 -1.3415
12897TIP3    H260107   1.734   4.893  14.479  1.1631  3.3029 -1.1581
12898TIP3   OH260108   1.301   6.515   4.975 -0.2205  0.1276 -0.0552
12898TIP3    H160109   1.348   6.596   4.957 -0.6563  0.8640  1.8284
12898TIP3    H260110   1.264   6.527   5.063  0.3670 -2.4217  0.6478
12899TIP3   OH260111   0.777   2.018   3.868  0.1560  0.5203  0.5327
12899TIP3    H160112   0.824   2.055   3.794  0.0481  1.9184  1.1313
12899TIP3    H260113   0.686   2.041   3.853 -0.2655 -1.3836 -0.1510
12900TIP3   OH260114   1.406   1.621   1.569 -0.1288 -0.1300  0.3425
12900TIP3    H160115   1.395   1.715   1.582 -0.7317 -0.0248 -0.8099
12900TIP3    H260116   1.337   1.597   1.507 -1.0704 -1.6476  1.8806
12901TIP3   OH260117   4.702   6.758   4.749 -0.1338 -0.0330  0.5032
12901TIP3    H160118   4.739   6.693   4.688 -2.2451 -1.7556  0.9365
12901TIP3    H260119   4.667   6.706   4.821 -1.3548  1.6452  1.1856
12902TIP3   OH260120   3.783   2.601  11.178 -0.3289 -0.0118 -0.3513
12902TIP3    H160121   3.863   2.649  11.154  0.5126 -0.7621  0.8467
12902TIP3    H260122   3.753   2.563  11.095  1.4151 -0.9556 -0.6146
12903TIP3   OH260123   5.321   1.080   3.944  0.0696 -0.5434 -0.3418
12903TIP3    H160124   5.404   1.031   3.945 -0.2736 -1.1147  0.8547
12903TIP3    H260125   5.309   1.109   4.034  0.8910  2.8866 -1.1659
12904TIP3   OH260126   2.654   0.057  13.184  0.1583  0.1004 -0.0170
12904TIP3    H160127   2.584   0.064  13.119 -0.8159  0.9649  1.0882
12904TIP3    H260128   2.611   0.075  13.268  2.1074  3.0008  0.4677
12905TIP3   OH260129   6.438   0.810   4.774 -0.6967  0.1458 -0.0991
12905TIP3    H160130   6.397   0.724   4.767  1.2495 -0.8827  0.4100
12905TIP3    H260131   6.501   0.801   4.845  0.4504  1.6007 -0.8612
12906TIP3   OH260132   2.122   4.291   5.710 -0.2446 -0.2989 -0.1824
12906TIP3    H160133   2.173   4.294   5.791 -0.7643  0.0465  0.1390
12906TIP3    H260134   2.160   4.218   5.661 -0.2269 -0.8249  0.5840
12907TIP3   OH260135   0.146   1.365  11.117 -0.1772  0.4478  0.5761
12907TIP3    H160136   0.114   1.404  11.035 -0.2264 -0.2717  0.2453
12907TIP3    H260137   0.225   1.317  11.091 -1.3548 -1.5446  0.5433
12908TIP3   OH260138   1.327   2.892  15.924  0.6173 -0.5076  0.2565
12908TIP3    H160139   1.272   2.861  15.997 -0.5170  0.7569 -0.0178
12908TIP3    H260140   1.382   2.817  15.903  0.1490 -1.2909  1.6452
12909TIP3   OH260141   5.179   1.792   0.864  0.0186  0.4731  0.5171
12909TIP3    H160142   5.226   1.853   0.808  0.7478 -0.0477  0.5548
12909TIP3    H260143   5.236   1.780   0.940 -0.1627 -0.1688  0.5593
12910TIP3   OH260144   3.998   0.451  16.365  0.0684  0.0816 -0.2785
12910TIP3    H160145   4.002   0.398  16.444  1.2409  0.0303 -0.3646
12910TIP3    H260146   4.057   0.408  16.303 -1.5489 -0.4506 -1.5592
12911TIP3   OH260147   5.670   2.003  15.367 -0.3284  0.2833  0.4425
12911TIP3    H160148   5.622   2.072  15.322  0.4819  0.3346 -0.3714
12911TIP3    H260149   5.662   1.927  15.309  1.2633  0.5249 -0.1323
12912TIP3   OH260150   1.777   3.865   1.969  0.4133 -0.1050 -0.4682
12912TIP3    H160151   1.783   3.788   1.912 -0.1339  0.5218 -1.4152
12912TIP3    H260152   1.833   3.930   1.927 -0.5605  0.6025 -0.7246
12913TIP3   OH260153   3.603   3.249  12.796  0.1307  0.4846  0.2315
12913TIP3    H160154   3.624   3.267  12.704 -2.2376  0.8980 -0.2932
12913TIP3    H260155   3.639   3.162  12.812  1.6499  0.8910 -0.6866
12914TIP3   OH260156   2.732   1.837  16.038 -0.6295 -0.3210 -0.2580
12914TIP3    H160157   2.679   1.838  16.118  1.6542 -0.6042  1.3664
12914TIP3    H260158   2.700   1.761  15.989 -1.3831 -0.7858  0.9144
12915TIP3   OH260159   3.744   4.914   6.088 -0.3947  0.4162 -0.2474
12915TIP3    H160160   3.808   4.910   6.017  0.6134  0.7413  0.6308
12915TIP3    H260161   3.711   5.004   6.085  2.0515  1.4786  1.7253
12916TIP3   OH260162   3.147   3.626   3.962  0.0054 -0.7611  0.4277
12916TIP3    H160163   3.239   3.653   3.964 -0.0159 -0.6352 -0.0419
12916TIP3    H260164   3.109   3.666   4.040  0.4886 -1.3460  0.9742
12917TIP3   OH260165   2.528   1.475   3.775 -0.3683  0.4158  0.0269
12917TIP3    H160166   2.605   1.441   3.822  0.0363  2.2376  0.7774
12917TIP3    H260167   2.460   1.411   3.791 -0.0363  0.5763  2.5606
12918TIP3   OH260168   1.036   0.193  11.424 -0.0047  0.1234 -0.1939
12918TIP3    H160169   1.073   0.281  11.415  0.3805 -0.0725 -0.5501
12918TIP3    H260170   1.016   0.166  11.334  0.5226 -0.4227 -0.1580
12919TIP3   OH260171   2.436   0.510  14.417 -0.8296 -0.2767 -0.2797
12919TIP3    H160172   2.440   0.542  14.327 -1.0647  0.6436  0.0177
12919TIP3    H260173   2.346   0.527  14.444 -0.8274 -0.7718  0.0490
12920TIP3   OH260174   4.143   3.759  16.486 -0.0858  0.0913  0.0285
12920TIP3    H160175   4.225   3.733  16.444  0.1960 -1.1478  1.2339
12920TIP3    H260176   4.158   3.849  16.515 -0.0230  0.7012 -1.7661
12921TIP3   OH260177   4.278   2.165  15.203  0.4068 -0.2307  0.1563
12921TIP3    H160178   4.246   2.241  15.154 -0.7507 -0.6548  0.2175
12921TIP3    H260179   4.224   2.092  15.171  1.9233 -1.1644 -0.3731
12922TIP3   OH260180   2.470   4.415  13.961  0.3255 -0.1739  0.5503
12922TIP3    H160181   2.565   4.408  13.960  0.4380  1.1706 -0.7253
12922TIP3    H260182   2.443   4.356  14.031  1.9076 -2.7271 -0.8177
12923TIP3   OH260183   1.835   2.706   5.146  1.0078  0.2584  1.0004
12923TIP3    H160184   1.869   2.622   5.114  0.5164  0.8367 -1.1659
12923TIP3    H260185   1.761   2.681   5.202 -0.1566 -0.7530 -0.8841
12924TIP3   OH260186   4.378   5.669  12.773  0.4561  0.3078 -0.1670
12924TIP3    H160187   4.319   5.594  12.761  0.6766 -0.0832  1.0796
12924TIP3    H260188   4.364   5.722  12.695 -0.9397 -0.1938 -0.3030
12925TIP3   OH260189   0.262   1.309   0.902  0.3060  0.2589 -0.0049
12925TIP3    H160190   0.221   1.339   0.821  1.1951  0.6061 -0.3362
12925TIP3    H260191   0.341   1.362   0.910 -0.2992  0.9892  1.6480
12926TIP3   OH260192   2.762   4.285   2.775  0.3501 -0.0898 -0.4327
12926TIP3    H160193   2.767   4.206   2.828 -1.9156  0.9473  1.4905
12926TIP3    H260194   2.828   4.344   2.813  0.3407 -0.1795 -0.2769
12927TIP3   OH260195   5.992   2.537   0.657  0.5862  0.2344 -0.2134
12927TIP3    H160196   6.006   2.456   0.706 -0.8787  0.8868  1.3964
12927TIP3    H260197   5.982   2.509   0.566  0.3585 -1.3668  0.2724
12928TIP3   OH260198   1.788   2.728  15.503  0.1103  0.7716 -0.5151
12928TIP3    H160199   1.854   2.757  15.566  0.2634  2.3793 -1.3807
12928TIP3    H260200   1.835   2.721  15.420 -0.2709 -0.5467 -0.6575
12929TIP3   OH260201   4.257   0.424  13.199  0.5574  0.1049 -0.1973
12929TIP3    H160202   4.238   0.335  13.171 -0.7744  0.2043  0.3169
12929TIP3    H260203   4.285   0.469  13.119 -3.0692  0.3583 -1.4860
12930TIP3   OH260204   5.658   2.557  12.233 -0.2511  0.1810  0.3104
12930TIP3    H160205   5.752   2.542  12.244 -0.1705  0.5894  0.1924
12930TIP3    H260206   5.618   2.514  12.308 -0.0343 -0.6938 -0.0604
12931TIP3   OH260207   0.189   0.925   0.793  0.5871 -0.3570  0.1324
12931TIP3    H160208   0.266   0.920   0.849  1.1337 -0.0259 -0.5670
12931TIP3    H260209   0.197   0.849   0.735 -0.4732 -1.2407  1.0970
12932TIP3   OH260210   3.770   0.713   6.286 -0.3171  0.3786  0.4167
12932TIP3    H160211   3.851   0.662   6.286 -0.9466 -0.7677 -1.6722
12932TIP3    H260212   3.734   0.701   6.374  2.4245  2.1674  1.9316
12933TIP3   OH260213   0.762   0.530   3.453  0.0283 -0.2590 -0.5195
12933TIP3    H160214   0.675   0.569   3.464 -2.2731 -4.1787 -2.5807
12933TIP3    H260215   0.787   0.502   3.540 -1.1174  0.2778  0.0042
12934TIP3   OH260216   2.392   0.546  12.090  0.2004  0.1053 -0.3274
12934TIP3    H160217   2.365   0.623  12.041  1.6306  0.0527 -1.2495
12934TIP3    H260218   2.326   0.480  12.068 -0.0748  0.5627 -0.8981
12935TIP3   OH260219   1.904   0.224   0.091  0.1485  0.1917 -0.5755
12935TIP3    H160220   1.932   0.301   0.141  1.2468 -0.2829 -0.4293
12935TIP3    H260221   1.816   0.204   0.124 -0.2474  1.5055 -0.7734
12936TIP3   OH260222   4.853   4.569   0.230  0.4394 -0.4825 -0.0121
12936TIP3    H160223   4.907   4.638   0.191  2.0580 -1.5677  0.2198
12936TIP3    H260224   4.904   4.539   0.305 -0.0676 -2.1453 -0.2958
12937TIP3   OH260225   0.510   2.669   0.159  0.4100  0.3940  0.1058
12937TIP3    H160226   0.525   2.608   0.087 -0.0377  0.3472  0.0477
12937TIP3    H260227   0.447   2.624   0.215  0.1939  0.7371  0.1431
12938TIP3   OH260228   3.863   2.353  12.376 -0.5334  0.0916 -0.3174
12938TIP3    H160229   3.866   2.332  12.469  0.5665 -0.9440 -0.5564
12938TIP3    H260230   3.952   2.337  12.345 -1.0302 -0.2092 -1.6737
12939TIP3   OH260231   3.704   4.175  13.691  0.2472 -0.3593  0.1034
12939TIP3    H160232   3.784   4.228  13.687  1.7369 -2.3934  1.0423
12939TIP3    H260233   3.716   4.120  13.769 -2.2113 -0.5571  0.4025
12940TIP3   OH260234   3.708   3.573   4.876  0.1487 -0.5629  0.3093
12940TIP3    H160235   3.621   3.582   4.915 -0.4056  0.3614 -1.0673
12940TIP3    H260236   3.701   3.496   4.819 -0.9003  1.4165 -2.4626
12941TIP3   OH260237   1.703   1.754   5.364  0.1850 -0.2940  0.5614
12941TIP3    H160238   1.772   1.715   5.418  1.8734  1.4575 -0.1916
12941TIP3    H260239   1.746   1.773   5.280 -1.3333  0.4466 -0.0942
12942TIP3   OH260240   1.126   4.956  11.632  0.3344 -0.1409  0.0174
12942TIP3    H160241   1.144   4.924  11.720  0.1387  0.3384  0.2340
12942TIP3    H260242   1.038   4.926  11.612  0.8944 -1.4947 -0.5930
12943TIP3   OH260243   3.757   6.175   4.223 -0.1139 -0.6779 -0.3609
12943TIP3    H160244   3.770   6.270   4.228 -3.2293 -0.1669  0.1369
12943TIP3    H260245   3.774   6.153   4.131  0.7980  0.3278 -0.4477
12944TIP3   OH260246   5.017   2.332  13.305  0.6716 -0.5158  0.7158
12944TIP3    H160247   5.043   2.241  13.289  3.4254  0.0774  1.2304
12944TIP3    H260248   4.963   2.355  13.229 -1.0962 -2.8792  1.1637
12945TIP3   OH260249   5.821   0.865   4.983  0.5842 -0.3216 -0.4372
12945TIP3    H160250   5.801   0.934   5.046 -0.3265 -1.0711  0.1240
12945TIP3    H260251   5.912   0.881   4.957 -0.5475  3.1985 -3.0321
12946TIP3   OH260252   6.556   4.018  16.140  0.2751  0.7624  0.1944
12946TIP3    H160253   6.622   3.968  16.092  0.5858  0.4957  0.8997
12946TIP3    H260254   6.562   3.987  16.230 -0.9982  0.5368  0.2255
12947TIP3   OH260255   5.632   3.650  12.937 -0.2499  0.2305 -0.0071
12947TIP3    H160256   5.537   3.644  12.950 -0.4453  1.5432 -0.6192
12947TIP3    H260257   5.642   3.692  12.852  0.9204 -1.3970 -0.7244
12948TIP3   OH260258   5.329   0.446   3.775  0.3544  0.5472  0.2371
12948TIP3    H160259   5.319   0.413   3.864  1.8964  0.5821  0.4411
12948TIP3    H260260   5.240   0.443   3.739 -0.2763  0.4375  1.7254
12949TIP3   OH260261   1.277   3.799  11.658 -0.0832  0.0686  0.2313
12949TIP3    H160262   1.268   3.886  11.620 -0.3504  0.3387  0.9028
12949TIP3    H260263   1.245   3.740  11.590  1.8865  0.3212 -0.9820
12950TIP3   OH260264   5.843   4.849   3.845  0.4606 -0.6415 -0.0629
12950TIP3    H160265   5.825   4.810   3.759 -2.6719 -1.8472  0.9904
12950TIP3    H260266   5.841   4.775   3.905  0.4465  0.4215  1.2921
12951TIP3   OH260267   4.668   4.172   2.018 -0.4867  0.0660 -0.0249
12951TIP3    H160268   4.744   4.115   2.027 -0.0242  0.4337 -1.3673
12951TIP3    H260269   4.616   4.155   2.097  1.7989  1.0915  1.8083
12952TIP3   OH260270   0.352   2.064   5.241  0.0686 -0.7241  0.2353
12952TIP3    H160271   0.435   2.020   5.258  1.5858  1.0870 -1.8149
12952TIP3    H260272   0.341   2.126   5.313  1.4308  0.2265 -0.3437
12953TIP3   OH260273   2.712   2.145  14.900  0.0937 -0.0603 -0.3294
12953TIP3    H160274   2.621   2.171  14.913 -0.2488 -0.3529 -2.0274
12953TIP3    H260275   2.708   2.057  14.864  1.0472 -0.0740 -0.4313
12954TIP3   OH260276   3.147   0.323   1.546 -0.1865  0.0509 -0.1577
12954TIP3    H160277   3.102   0.352   1.625  1.0388  0.2676  0.4896
12954TIP3    H260278   3.193   0.401   1.515 -0.0281 -0.2316 -0.6394
12955TIP3   OH260279   5.134   6.400  16.672  0.0335 -0.3273 -0.0794
12955TIP3    H160280   5.043   6.408  16.702  0.4952  1.0802  1.0251
12955TIP3    H260281   5.185   6.451  16.734  1.2357  1.3842 -2.2961
12956TIP3   OH260282   2.015   1.533   4.230 -0.2699 -0.0542 -0.0981
12956TIP3    H160283   1.997   1.555   4.139 -0.0045 -0.7334 -0.3195
12956TIP3    H260284   2.107   1.506   4.230  0.1804  1.3693  0.6423
12957TIP3   OH260285   5.655   6.527   3.357 -0.0600  0.0835 -0.1015
12957TIP3    H160286   5.597   6.476   3.300 -0.1957  1.1752 -0.9689
12957TIP3    H260287   5.597   6.583   3.407  0.1676  0.2453 -0.0168
12958TIP3   OH260288   6.406   1.791   3.037  0.6176 -0.1156 -0.3693
12958TIP3    H160289   6.378   1.881   3.055 -0.3242 -0.2382 -1.1742
12958TIP3    H260290   6.407   1.749   3.124  0.2686  0.4505 -0.0843
12959TIP3   OH260291   5.084   4.920  12.362 -0.2279  0.7169  0.0231
12959TIP3    H160292   5.117   4.832  12.350 -1.2542  0.3175 -0.0140
12959TIP3    H260293   5.096   4.962  12.276  0.0101  0.5291 -0.0362
12960TIP3   OH260294   4.648   1.179  11.629  0.0595  0.3445 -0.0934
12960TIP3    H160295   4.629   1.090  11.600  0.3142  0.6253 -1.1678
12960TIP3    H260296   4.653   1.173  11.724  1.4481 -1.0520 -0.2270
12961TIP3   OH260297   0.854   4.738   1.927  0.3666 -0.4716 -0.1365
12961TIP3    H160298   0.813   4.705   1.847  0.8568 -1.5353  0.0313
12961TIP3    H260299   0.802   4.700   1.998 -1.0329  1.7241  0.0760
12962TIP3   OH260300   1.806   4.871   5.619  0.2221 -0.2695 -0.1543
12962TIP3    H160301   1.823   4.832   5.533  0.6572 -0.8779  0.1986
12962TIP3    H260302   1.794   4.796   5.677 -2.7716  0.0858 -0.1662
12963TIP3   OH260303   3.186   6.469  13.380  0.3280  0.3916  0.1762
12963TIP3    H160304   3.092   6.477  13.395  0.0904 -1.0065 -0.4199
12963TIP3    H260305   3.226   6.503  13.460 -0.6365  1.8802  0.0587
12964TIP3   OH260306   5.738   5.942  14.378  0.4377 -0.0399  0.3979
12964TIP3    H160307   5.706   5.856  14.406  0.6001  0.3376  1.8523
12964TIP3    H260308   5.832   5.939  14.397  0.3643  0.6010  0.8724
12965TIP3   OH260309   5.742   5.210  11.474  0.2256 -0.2610 -0.2199
12965TIP3    H160310   5.799   5.239  11.546  0.8561 -0.1968 -0.7366
12965TIP3    H260311   5.665   5.266  11.482 -0.1264 -0.8894  0.9715
12966TIP3   OH260312   5.741   6.190   5.016 -0.2465  0.3820 -0.0782
12966TIP3    H160313   5.725   6.096   5.014 -1.0155  0.5122 -0.8912
12966TIP3    H260314   5.835   6.199   5.002 -0.1069 -0.2765  0.4329
12967TIP3   OH260315   5.921   3.986  15.805  0.2215 -0.3115 -0.3394
12967TIP3    H160316   5.940   3.945  15.721  2.1989 -1.1510  0.4707
12967TIP3    H260317   5.946   4.078  15.793  2.3138 -0.8027 -0.1791
12968TIP3   OH260318   4.701   0.641   3.348 -0.6054 -0.1644  0.0983
12968TIP3    H160319   4.698   0.614   3.256  0.9647 -0.6759  0.1799
12968TIP3    H260320   4.783   0.606   3.381 -1.4472 -0.5789  1.8952
12969TIP3   OH260321   0.242   4.431  12.903 -0.6202 -0.2204  0.3091
12969TIP3    H160322   0.332   4.440  12.872 -0.1275 -0.5138  1.5945
12969TIP3    H260323   0.190   4.483  12.841  0.1067 -1.9042 -1.8506
12970TIP3   OH260324   1.862   4.657  12.240 -0.5475 -0.0548  0.3031
12970TIP3    H160325   1.874   4.648  12.145 -1.5773  0.2168  0.1402
12970TIP3    H260326   1.830   4.747  12.251 -1.2684 -0.3733  0.8199
12971TIP3   OH260327   2.882   1.586  16.385  0.3075 -0.5387 -0.1169
12971TIP3    H160328   2.944   1.559  16.318 -0.6202 -2.7087 -0.1828
12971TIP3    H260329   2.897   1.527  16.458 -0.1682  0.3751  0.7511
12972TIP3   OH260330   2.179   5.645  13.823  0.1393  0.1222 -0.1304
12972TIP3    H160331   2.234   5.573  13.853 -0.1548 -0.5553 -1.1675
12972TIP3    H260332   2.237   5.699  13.770  0.0617 -0.0185 -0.3585
12973TIP3   OH260333   2.550   1.524  11.217  0.1449 -0.1149  0.5377
12973TIP3    H160334   2.527   1.446  11.166 -2.0493  0.3016  0.8006
12973TIP3    H260335   2.600   1.489  11.291  1.2641 -0.9799 -0.5794
12974TIP3   OH260336   1.998   1.045   0.787 -0.0757 -0.1273  0.0161
12974TIP3    H160337   1.941   0.970   0.807 -0.4255 -0.1379 -0.9480
12974TIP3    H260338   2.069   1.008   0.735 -0.5021  0.2660 -0.8743
12975TIP3   OH260339   3.102   4.969   6.647 -0.6434  0.3982 -0.3565
12975TIP3    H160340   3.114   4.972   6.741 -1.8606  0.4483 -0.1899
12975TIP3    H260341   3.059   4.885   6.630  1.1278 -0.4155 -1.0808
12976TIP3   OH260342   6.535   5.311   4.438 -0.3461 -0.1918  0.8000
12976TIP3    H160343   6.448   5.341   4.410  0.0627  0.5133  0.2663
12976TIP3    H260344   6.548   5.230   4.388 -0.1419  0.4102 -0.1384
12977TIP3   OH260345   5.222   2.190   1.784  0.4072  0.2786 -0.8380
12977TIP3    H160346   5.255   2.115   1.733  0.6224 -0.6250  0.5812
12977TIP3    H260347   5.250   2.267   1.734  2.8961 -0.4854 -0.7580
12978TIP3   OH260348   6.766   2.067  14.636  0.1193 -0.2261  0.5543
12978TIP3    H160349   6.732   2.050  14.724 -0.0472 -1.0258  0.3469
12978TIP3    H260350   6.725   2.150  14.610 -0.2609 -0.2664  1.0151
12979TIP3   OH260351   1.848   2.501   0.914 -0.0173  0.4333  0.3084
12979TIP3    H160352   1.795   2.482   0.992  0.5014 -2.5195  0.0511
12979TIP3    H260353   1.929   2.539   0.949  0.1073 -0.6153  1.2279
12980TIP3   OH260354   2.293   4.117   5.559  0.3333  0.3263  0.3445
12980TIP3    H160355   2.236   4.055   5.513 -1.1836  1.2212  0.9273
12980TIP3    H260356   2.376   4.113   5.511 -0.6895  0.0927 -1.5262
12981TIP3   OH260357   1.593   2.592   3.274 -0.4630  0.4896 -0.6810
12981TIP3    H160358   1.571   2.509   3.234 -0.7850 -0.1075  0.6816
12981TIP3    H260359   1.559   2.586   3.363 -0.7166  2.1805 -0.6326
12982TIP3   OH260360   6.733   2.896   3.698 -0.3287  0.6164 -0.1159
12982TIP3    H160361   6.828   2.898   3.711 -0.2406 -0.5536 -0.4173
12982TIP3    H260362   6.707   2.988   3.692  0.5312  1.0075  1.6904
12983TIP3   OH260363   5.361   3.896   5.263 -0.1555  0.2022  0.2373
12983TIP3    H160364   5.438   3.901   5.320 -0.4920  0.8046  0.6508
12983TIP3    H260365   5.300   3.840   5.311 -0.3042  0.4247  0.3078
12984TIP3   OH260366   1.171   1.127   0.687 -0.5129  0.2971  0.9991
12984TIP3    H160367   1.217   1.132   0.771 -0.2169  0.8627  0.8080
12984TIP3    H260368   1.220   1.062   0.637 -1.1500 -0.6139  1.5388
12985TIP3   OH260369   4.098   2.103  13.505  0.3310 -0.0110  0.3028
12985TIP3    H160370   4.071   2.133  13.418 -1.6702 -3.0293 -0.2648
12985TIP3    H260371   4.016   2.090  13.552  1.3215  0.0416  2.0988
12986TIP3   OH260372   1.076   0.022   6.344 -0.1422 -0.3729 -0.1141
12986TIP3    H160373   1.139   0.087   6.312  1.8173 -0.9321  2.2551
12986TIP3    H260374   1.026   0.069   6.411 -0.1229 -0.7243  0.1493
12987TIP3   OH260375   1.261   0.607   4.945  0.2578  1.1372  0.2650
12987TIP3    H160376   1.277   0.615   5.039  1.1012  0.6929  0.1644
12987TIP3    H260377   1.339   0.644   4.904  0.2109  0.6692 -0.2570
12988TIP3   OH260378   2.520   6.142   5.301 -0.0270 -0.5037  0.0919
12988TIP3    H160379   2.538   6.061   5.251  0.9255 -0.6307  0.6166
12988TIP3    H260380   2.426   6.141   5.315  0.0657 -1.9854  0.8262
12989TIP3   OH260381   2.596   3.039  14.324 -0.2163 -0.2558 -0.4506
12989TIP3    H160382   2.520   2.985  14.344  0.3250 -0.6343  0.6991
12989TIP3    H260383   2.624   3.074  14.409  1.3360 -0.7590 -0.7149
12990TIP3   OH260384   2.776   3.609   4.657 -0.7713 -0.3995  0.2060
12990TIP3    H160385   2.751   3.530   4.609 -1.8930 -1.1492  1.9599
12990TIP3    H260386   2.844   3.649   4.602 -1.3801 -1.6537 -1.5700
12991TIP3   OH260387   0.793   4.887  15.741  0.7105  0.4424  0.4676
12991TIP3    H160388   0.847   4.962  15.767 -0.4498  1.0127  1.3778
12991TIP3    H260389   0.726   4.882  15.809 -0.8528  0.2660 -1.0181
12992TIP3   OH260390   4.580   2.228  13.609  0.3211 -0.0967  0.3894
12992TIP3    H160391   4.665   2.188  13.589  0.0945  0.1662 -1.1888
12992TIP3    H260392   4.517   2.175  13.561 -0.5902 -0.9814  2.4252
12993TIP3   OH260393   1.182   3.823  11.941  0.6647 -0.3866  0.0890
12993TIP3    H160394   1.235   3.894  11.976  0.0556  1.1737 -1.9605
12993TIP3    H260395   1.209   3.815  11.849 -0.6391 -1.4548 -0.2425
12994TIP3   OH260396   5.016   5.605  11.193 -0.2297  0.6682 -0.0409
12994TIP3    H160397   5.048   5.570  11.110  0.2215  0.2770  0.2924
12994TIP3    H260398   5.043   5.541  11.258  0.9324  1.8126  0.6388
12995TIP3   OH260399   5.943   5.509  16.752 -0.3339  0.1959 -1.0051
12995TIP3    H160400   5.874   5.558  16.797  0.5025  0.5104 -0.0358
12995TIP3    H260401   6.016   5.571  16.745  0.0066 -0.2583 -1.6584
12996TIP3   OH260402   6.573   0.047  14.406  0.6965  0.3488  0.9800
12996TIP3    H160403   6.603   0.065  14.495  0.1903 -2.6700  1.8740
12996TIP3    H260404   6.498   0.105  14.394  1.3585  1.4962  2.1317
12997TIP3   OH260405   6.280   0.513  14.947  0.1090  0.2260  0.4398
12997TIP3    H160406   6.336   0.492  14.872  0.2495 -0.0424  0.6174
12997TIP3    H260407   6.242   0.429  14.973 -1.1395  0.5406 -0.2806
12998TIP3   OH260408   0.770   2.829   0.188 -0.5482  0.0797 -0.5348
12998TIP3    H160409   0.771   2.835   0.284 -1.0098 -1.7311 -0.3883
12998TIP3    H260410   0.681   2.802   0.167  0.1783 -1.8202 -1.3015
12999TIP3   OH260411   5.727   5.278  14.622 -0.0324  0.4319  0.1384
12999TIP3    H160412   5.753   5.289  14.713  2.0409 -1.8918 -0.0864
12999TIP3    H260413   5.655   5.215  14.624 -0.6703  1.1492  0.2114
13000TIP3   OH260414   0.926   6.727   4.840  0.3265  0.4461 -0.4965
13000TIP3    H160415   0.969   6.646   4.814  1.4244  1.3147 -1.5416
13000TIP3    H260416   0.840   6.701   4.871  0.9399 -1.1816 -0.0987
13001TIP3   OH260417   4.869   6.405  13.061  0.2348 -0.0164 -0.5738
13001TIP3    H160418   4.962   6.413  13.081  0.1976  0.3568 -0.5490
13001TIP3    H260419   4.851   6.477  13.000 -0.1938  0.3421 -0.0268
13002TIP3   OH260420   1.852   3.923  13.382 -0.0544  0.3629 -0.0049
13002TIP3    H160421   1.805   3.868  13.320  1.9108  0.6531 -1.8808
13002TIP3    H260422   1.787   3.987  13.411 -0.8183  0.9685 -2.7287
13003TIP3   OH260423   4.036   1.171  11.314 -0.0568  0.1870 -0.4454
13003TIP3    H160424   4.096   1.096  11.309 -0.0737  0.2079 -0.9184
13003TIP3    H260425   4.010   1.188  11.224 -1.7245 -0.5836 -0.1375
13004TIP3   OH260426   2.899   5.721   4.932  0.0174  0.0331 -0.3746
13004TIP3    H160427   2.819   5.773   4.928  0.0257  0.1099  0.2721
13004TIP3    H260428   2.869   5.634   4.961  0.1084 -0.0762 -0.6097
13005TIP3   OH260429   6.598   0.024  15.296  0.5878  0.1758 -0.0904
13005TIP3    H160430   6.624  -0.067  15.311 -0.1964  0.0141  0.3230
13005TIP3    H260431   6.551   0.049  15.375 -0.4913  0.4532 -0.7995
13006TIP3   OH260432   5.211   3.754  16.595  0.3510 -0.0728  0.1665
13006TIP3    H160433   5.140   3.802  16.637  0.5648  0.9378 -0.5885
13006TIP3    H260434   5.289   3.807  16.612  0.4765  0.2408 -1.2735
13007TIP3   OH260435   6.171   3.930   6.833 -0.4366  0.0743 -0.0632
13007TIP3    H160436   6.225   3.851   6.835 -2.3293 -1.3571 -1.3559
13007TIP3    H260437   6.087   3.900   6.799 -1.4190  2.5686 -0.0271
13008TIP3   OH260438   3.904   6.473   5.608  0.2214 -0.0371  0.5131
13008TIP3    H160439   3.829   6.529   5.586 -0.9407 -1.1249  1.5222
13008TIP3    H260440   3.865   6.389   5.629  1.6347 -0.3305  2.1571
13009TIP3   OH260441   1.677   3.521   0.475  0.2580 -0.2539 -0.4498
13009TIP3    H160442   1.718   3.580   0.538 -2.2019 -0.9853  2.0245
13009TIP3    H260443   1.675   3.436   0.519  0.1963 -1.2872 -2.3395
13010TIP3   OH260444   4.098   3.843  15.680  0.0923  0.2657 -0.2657
13010TIP3    H160445   4.148   3.901  15.622 -0.8401 -0.2535 -1.6329
13010TIP3    H260446   4.097   3.889  15.764 -0.5344  2.2128 -1.2806
13011TIP3   OH260447   1.942   5.415  14.843  0.8223 -0.5821  0.4732
13011TIP3    H160448   1.850   5.391  14.854  0.4946 -0.1045 -0.9181
13011TIP3    H260449   1.983   5.337  14.805  0.3772  0.0267 -1.3832
13012TIP3   OH260450   4.222   0.347   1.192 -0.5090 -0.3458 -0.2964
13012TIP3    H160451   4.160   0.364   1.121  0.7751  0.5256 -1.2419
13012TIP3    H260452   4.293   0.297   1.151  0.6163  0.8171  0.1577
13013TIP3   OH260453   5.809   3.905  16.034  0.2504  0.9900  0.0372
13013TIP3    H160454   5.851   3.956  15.965  0.8295  0.3099 -0.1196
13013TIP3    H260455   5.751   3.845  15.988  2.5446 -1.2924 -0.1116
13014TIP3   OH260456   0.450   1.385  11.202  1.0487 -0.4014  0.0472
13014TIP3    H160457   0.539   1.416  11.221  1.0195 -0.3466  0.0944
13014TIP3    H260458   0.435   1.315  11.265  0.3898  0.7774  1.2364
13015TIP3   OH260459   6.117   4.504   5.860  0.6802 -0.5891 -0.1729
13015TIP3    H160460   6.091   4.412   5.862 -0.2414 -0.4111 -1.8111
13015TIP3    H260461   6.096   4.533   5.771 -1.9914  2.0386  1.1489
13016TIP3   OH260462   3.827   3.398  15.934 -0.7388  0.3440 -0.2292
13016TIP3    H160463   3.774   3.354  16.000 -0.9158  0.3133 -0.3899
13016TIP3    H260464   3.765   3.424  15.866 -0.5024 -0.0263 -0.5972
13017TIP3   OH260465   6.253   4.299   1.053  0.4679  0.3217 -0.1958
13017TIP3    H160466   6.274   4.387   1.020  1.7405 -0.0071 -0.3042
13017TIP3    H260467   6.274   4.240   0.980 -1.2291 -0.0152 -0.4393
13018TIP3   OH260468   0.441   5.302   2.717  0.3794  0.1461  0.4011
13018TIP3    H160469   0.530   5.320   2.745  1.2762 -2.1087 -0.7130
13018TIP3    H260470   0.428   5.209   2.739 -1.9270  0.5649  1.0657
13019TIP3   OH260471   4.274   0.192  16.470  0.5198 -0.6812  0.0484
13019TIP3    H160472   4.262   0.179  16.376  0.1026  1.9209 -0.3148
13019TIP3    H260473   4.199   0.245  16.497  1.3803 -0.1780  1.5697
13020TIP3   OH260474   1.448   0.998  14.773  0.0045  0.0402 -0.0812
13020TIP3    H160475   1.521   0.967  14.719 -0.5342  1.3231 -1.6574
13020TIP3    H260476   1.371   0.988  14.717 -0.5946  1.3483  0.4528
13021TIP3   OH260477   1.981   1.996  10.429  0.5628  0.1171  0.0532
13021TIP3    H160478   1.928   1.991  10.509  0.8243 -1.1557  0.1645
13021TIP3    H260479   1.939   2.065  10.377 -0.1166  0.3730  0.9152
13022TIP3   OH260480   5.723   1.730  12.258  0.2423 -0.0864 -0.4573
13022TIP3    H160481   5.794   1.666  12.254  0.5859  0.2213  0.4878
13022TIP3    H260482   5.750   1.792  12.326 -1.1077 -0.1741  0.1874
13023TIP3   OH260483   1.737   5.210  17.021 -0.0986 -0.0141  0.0625
13023TIP3    H160484   1.774   5.286  16.978 -0.9566  0.2594 -0.2111
13023TIP3    H260485   1.662   5.244  17.070 -0.5813 -0.6979 -0.1826
13024TIP3   OH260486   3.971   4.629   4.407 -0.8561 -0.1092 -0.1469
13024TIP3    H160487   3.984   4.570   4.481  0.3160  0.2522 -0.0414
13024TIP3    H260488   4.028   4.704   4.426 -1.3580  0.4807 -0.8940
13025TIP3   OH260489   0.506   0.414   2.478 -0.0275  0.3073  0.1768
13025TIP3    H160490   0.537   0.500   2.449 -0.5335  0.5710  0.4096
13025TIP3    H260491   0.498   0.422   2.573  0.9541 -0.3374  0.3269
13026TIP3   OH260492   2.441   0.789  13.732 -0.0152 -0.4113 -0.4049
13026TIP3    H160493   2.386   0.732  13.677  0.0423 -0.9639  0.1022
13026TIP3    H260494   2.479   0.852  13.670 -1.8953  0.5472 -0.6460
13027TIP3   OH260495   1.488   1.578   4.971 -0.3434 -0.3741 -0.5554
13027TIP3    H160496   1.502   1.641   5.042 -0.3255 -0.8722 -0.1064
13027TIP3    H260497   1.440   1.627   4.904 -0.7268 -0.0045 -0.0226
13028TIP3   OH260498   0.134   1.188   4.705  0.4661 -0.3858  0.4743
13028TIP3    H160499   0.049   1.180   4.662  0.7766 -1.4861  0.0257
13028TIP3    H260500   0.183   1.250   4.652  0.5526 -1.1083 -0.3082
13029TIP3   OH260501   4.406   5.523   2.932  0.1666  0.5936 -0.6099
13029TIP3    H160502   4.390   5.450   2.992  0.6802 -0.1805 -1.3942
13029TIP3    H260503   4.480   5.570   2.970 -0.2734  0.8322 -0.0127
13030TIP3   OH260504   1.983   5.036  15.809  0.3458 -0.0788 -0.0209
13030TIP3    H160505   2.036   5.114  15.825 -0.0497  1.0079 -3.2313
13030TIP3    H260506   1.904   5.069  15.766  0.8063 -2.2658 -2.8496
13031TIP3   OH260507   0.116   4.278   1.077  0.1627  0.1602  0.1786
13031TIP3    H160508   0.144   4.192   1.047  2.0160  0.6009  0.5413
13031TIP3    H260509   0.065   4.260   1.156 -0.0295 -0.6388 -0.1199
13032TIP3   OH260510   2.032   1.087  15.594  0.6537  0.1349 -0.2112
13032TIP3    H160511   2.042   0.994  15.570  1.2678  0.2483 -0.4063
13032TIP3    H260512   1.970   1.086  15.667 -1.3982 -0.2312 -1.8359
13033TIP3   OH260513   3.177   6.630   3.754 -0.0640  0.1282 -0.3563
13033TIP3    H160514   3.259   6.655   3.713 -0.5042  0.4555 -1.0450
13033TIP3    H260515   3.176   6.678   3.837  0.3041  0.3512 -0.4789
13034TIP3   OH260516   2.652   6.470  17.249 -1.1279 -0.7276  0.3697
13034TIP3    H160517   2.673   6.385  17.211  0.9242 -1.4741  2.8988
13034TIP3    H260518   2.703   6.532  17.197  1.7537 -1.7375  1.7980
13035TIP3   OH260519   5.290   2.939   3.217 -0.1214  0.0076 -0.1867
13035TIP3    H160520   5.296   2.875   3.288 -3.3005  1.7434  1.9039
13035TIP3    H260521   5.375   2.983   3.218 -0.2142  0.3357  3.0276
13036TIP3   OH260522   5.964   4.050  14.910  0.4711  0.0364  0.4449
13036TIP3    H160523   5.972   3.963  14.871  3.4464  0.2132  0.4537
13036TIP3    H260524   5.886   4.045  14.965 -1.2736 -1.5959 -1.9555
13037TIP3   OH260525   2.909   3.306  14.477  0.0623 -0.3652  0.5049
13037TIP3    H160526   2.841   3.239  14.467  0.6506 -0.9170  0.0851
13037TIP3    H260527   2.908   3.354  14.393 -1.0048  0.7967  1.1461
13038TIP3   OH260528   6.277   0.301   1.042 -0.1734 -0.1246  0.3169
13038TIP3    H160529   6.274   0.385   0.996 -1.2796  0.5743  1.5863
13038TIP3    H260530   6.368   0.289   1.066  0.1647  0.2108 -0.7693
13039TIP3   OH260531   1.405   1.488  12.623  0.2529  0.1814  0.4069
13039TIP3    H160532   1.362   1.419  12.674  2.7128 -1.2794  0.6508
13039TIP3    H260533   1.425   1.556  12.687 -0.9261  0.5110  0.4409
13040TIP3   OH260534   4.141   0.349   0.437 -0.6562  0.1540 -0.7774
13040TIP3    H160535   4.136   0.443   0.457 -2.4117 -0.0234 -0.2256
13040TIP3    H260536   4.155   0.345   0.342  1.3376  0.9605 -0.5637
13041TIP3   OH260537   5.872   6.014   1.856  0.2182  0.2061  0.3873
13041TIP3    H160538   5.912   5.996   1.941  1.4208  0.0598 -0.1896
13041TIP3    H260539   5.865   6.110   1.854 -1.4495  0.1428  1.3493
13042TIP3   OH260540   5.608   2.523   1.087  0.1061 -0.1137 -0.6103
13042TIP3    H160541   5.660   2.562   1.016  0.2554 -0.1777 -0.5364
13042TIP3    H260542   5.540   2.473   1.042  0.1363 -0.0661 -0.7083
13043TIP3   OH260543   2.950   0.419   1.723  0.1253  0.2937  0.2089
13043TIP3    H160544   2.924   0.483   1.790  2.3801  0.8196  0.6514
13043TIP3    H260545   2.867   0.394   1.681 -1.1585  1.2605  2.0059
13044TIP3   OH260546   1.213   1.292   4.213 -0.0244 -0.5756  0.1652
13044TIP3    H160547   1.227   1.242   4.294 -0.3989 -0.1387  0.5086
13044TIP3    H260548   1.131   1.257   4.177  0.5317 -1.2893 -0.4303
13045TIP3   OH260549   3.977   5.683  11.919 -0.0529 -0.1373 -0.6152
13045TIP3    H160550   3.960   5.760  11.864  2.6805  0.6919 -0.4256
13045TIP3    H260551   4.067   5.659  11.899 -0.2715 -2.2419  0.6626
13046TIP3   OH260552   0.855   3.500  10.723  0.0618  0.1857 -0.4174
13046TIP3    H160553   0.889   3.525  10.638  0.8352 -0.7401 -0.3956
13046TIP3    H260554   0.874   3.406  10.730  0.9538  0.4500  1.1956
13047TIP3   OH260555   0.014   4.504  16.585 -0.3224 -0.7022 -0.3711
13047TIP3    H160556  -0.017   4.565  16.653 -1.8802  1.0821 -2.5411
13047TIP3    H260557  -0.054   4.437  16.581  0.4323 -1.5709  0.6736
13048TIP3   OH260558   2.671   5.205   1.744  0.1025 -0.1154  0.1369
13048TIP3    H160559   2.632   5.118   1.730  0.6302 -0.1822 -1.0299
13048TIP3    H260560   2.755   5.187   1.785  0.4700 -0.2044 -0.6402
13049TIP3   OH260561   4.959   5.640  13.114 -0.2829  0.6407 -0.6562
13049TIP3    H160562   4.992   5.641  13.204  2.6175 -0.4122 -1.5910
13049TIP3    H260563   4.898   5.713  13.110 -1.3114  0.0957  2.4159
13050TIP3   OH260564   4.808   0.467   5.147 -0.4374  0.6112 -0.6430
13050TIP3    H160565   4.757   0.461   5.228 -0.5669 -1.5194 -0.8130
13050TIP3    H260566   4.896   0.488   5.176 -0.5399  0.1297  0.0604
13051TIP3   OH260567   4.327   5.515   4.549  0.2208 -0.4835  0.1357
13051TIP3    H160568   4.356   5.424   4.560  0.4401 -0.4784 -0.3457
13051TIP3    H260569   4.398   5.567   4.584  0.6443 -0.4796 -0.6888
13052TIP3   OH260570   1.602   2.203  11.662 -0.1351 -0.3938  0.0529
13052TIP3    H160571   1.669   2.139  11.635 -0.6127  0.3779 -3.4444
13052TIP3    H260572   1.519   2.159  11.645 -0.4859  0.2658  0.0376
13053TIP3   OH260573   1.394   4.575  11.405  0.4145 -0.3995  0.4349
13053TIP3    H160574   1.377   4.568  11.499  0.2845 -1.2819  0.3550
13053TIP3    H260575   1.475   4.526  11.392 -1.5434 -3.7876 -0.4434
13054TIP3   OH260576   3.408   2.679  16.673 -0.1591 -0.0749  0.0407
13054TIP3    H160577   3.430   2.591  16.641 -0.2021 -0.5032  1.1680
13054TIP3    H260578   3.342   2.710  16.611 -0.9909 -1.2949  0.2849
13055TIP3   OH260579   5.696   3.535   3.519  0.0617 -0.2656 -0.0240
13055TIP3    H160580   5.693   3.509   3.427  0.2671 -0.6127  0.0653
13055TIP3    H260581   5.663   3.458   3.566 -0.3221  0.0164  0.1739
13056TIP3   OH260582   5.911   6.630  16.156  0.4127  0.0490 -0.1045
13056TIP3    H160583   5.925   6.722  16.133  0.8474  0.0998  0.3488
13056TIP3    H260584   5.990   6.605  16.203  0.9404 -0.9811 -1.4845
13057TIP3   OH260585   5.060   2.212  13.664  0.0288 -0.3794  0.4059
13057TIP3    H160586   5.072   2.307  13.675  0.2829 -0.1224 -1.6121
13057TIP3    H260587   5.007   2.186  13.739 -0.4891  1.4587  0.7365
13058TIP3   OH260588   0.829   1.809  14.877 -0.0984 -0.2309 -0.3705
13058TIP3    H160589   0.818   1.896  14.838  1.3772 -0.2647 -0.9258
13058TIP3    H260590   0.918   1.809  14.911 -0.6798 -0.9128  1.2796
13059TIP3   OH260591   2.658   4.352   6.131  0.6259  0.0025  0.4030
13059TIP3    H160592   2.722   4.423   6.130  0.3619  0.3516  2.6702
13059TIP3    H260593   2.581   4.388   6.088  0.7806  0.7948  0.7725
13060TIP3   OH260594   5.215   6.185  12.781  0.3341 -0.2307  0.2234
13060TIP3    H160595   5.218   6.252  12.714  0.6020 -1.0942 -0.6516
13060TIP3    H260596   5.122   6.171  12.798  0.1729 -1.4350 -1.4579
13061TIP3   OH260597   5.724   6.593  17.033  0.3098  0.1120 -0.3150
13061TIP3    H160598   5.784   6.546  16.976  1.1247 -1.7110  1.9008
13061TIP3    H260599   5.657   6.529  17.057 -0.0378  0.8290  0.7314
13062TIP3   OH260600   6.349   4.407   2.945 -0.0041  0.0446  0.7198
13062TIP3    H160601   6.283   4.449   2.890 -0.2636 -0.3210  0.7531
13062TIP3    H260602   6.432   4.447   2.917 -0.4612  2.4408  2.4409
13063TIP3   OH260603   0.979   2.843   3.524  0.2451  0.2743  0.1218
13063TIP3    H160604   1.066   2.866   3.556  0.3888  1.5889 -1.1046
13063TIP3    H260605   0.976   2.748   3.527  1.4557  0.2397  0.8457
13064TIP3   OH260606   2.856   0.732   0.112  0.7418  0.3933 -0.2163
13064TIP3    H160607   2.907   0.672   0.059 -2.2247 -1.2849 -1.4162
13064TIP3    H260608   2.804   0.783   0.049 -0.6662  0.4516  0.9283
13065TIP3   OH260609   0.380   5.014   2.793 -0.1750 -0.0390 -0.2904
13065TIP3    H160610   0.466   4.978   2.817 -0.1838  1.5210  2.6057
13065TIP3    H260611   0.337   4.943   2.745  1.2786 -2.3668  1.5843
13066TIP3   OH260612   0.115   6.582   5.347  0.8868 -0.3936 -0.9639
13066TIP3    H160613   0.140   6.550   5.434  2.0766  1.4667 -0.5635
13066TIP3    H260614   0.021   6.564   5.341  0.6825 -0.1186  0.9037
13067TIP3   OH260615   4.001   6.601   5.002 -0.5678  0.2410  0.1960
13067TIP3    H160616   4.052   6.589   4.922 -0.1641 -0.5639  0.5642
13067TIP3    H260617   3.972   6.692   4.998 -0.2884  0.3013 -0.7094
13068TIP3   OH260618   5.336   3.329  16.626  0.6638  0.5358 -0.1137
13068TIP3    H160619   5.400   3.258  16.625 -1.2808 -1.3630 -1.8079
13068TIP3    H260620   5.344   3.370  16.540  0.8359  1.5210  0.3542
13069TIP3   OH260621   3.135   6.126  13.345 -0.1405  0.1248  0.0868
13069TIP3    H160622   3.158   6.057  13.408 -0.3556 -0.0307 -0.0073
13069TIP3    H260623   3.210   6.187  13.349  1.8029 -1.8605 -2.3791
13070TIP3   OH260624   5.634   0.241   4.944  0.7117  0.4443  0.5125
13070TIP3    H160625   5.578   0.165   4.930 -0.8413  1.5995  0.2222
13070TIP3    H260626   5.638   0.250   5.040  1.7881 -0.6004  0.5907
13071TIP3   OH260627   1.453   2.536  17.115  0.1252  0.5883  0.0966
13071TIP3    H160628   1.433   2.581  17.197  0.4481 -0.5591  0.8413
13071TIP3    H260629   1.548   2.523  17.118  0.0531 -0.0189 -0.1584
13072TIP3   OH260630   3.104   2.455   4.276 -0.0703  0.1829 -0.3633
13072TIP3    H160631   3.051   2.381   4.306  0.1104 -0.2580 -1.1076
13072TIP3    H260632   3.171   2.467   4.343 -0.3616 -0.0479 -0.0299
13073TIP3   OH260633   2.229   0.019   3.552  0.0102 -0.1185  0.1296
13073TIP3    H160634   2.142  -0.019   3.538  0.1613  0.0554 -1.5059
13073TIP3    H260635   2.289  -0.039   3.505  1.0195 -1.0194  2.3734
13074TIP3   OH260636   5.084   0.553   3.992 -0.3706  0.4061 -0.0223
13074TIP3    H160637   5.058   0.552   4.084  0.6905 -0.3239  0.2999
13074TIP3    H260638   5.172   0.590   3.992 -0.6525  1.1177 -0.8476
13075TIP3   OH260639   5.863   6.404  16.886  0.1515 -0.4349 -0.4341
13075TIP3    H160640   5.790   6.394  16.825 -0.8665 -1.4268  0.8918
13075TIP3    H260641   5.907   6.320  16.885 -2.0795 -1.8362  2.8355
13076TIP3   OH260642   6.610   3.095   1.121 -0.6498  0.3609  0.2746
13076TIP3    H160643   6.657   3.047   1.189  0.7556 -0.0972 -0.9778
13076TIP3    H260644   6.638   3.186   1.132 -2.2475  0.7307  1.7609
13077TIP3   OH260645   5.912   3.410  15.760  0.1661 -0.2045  0.1815
13077TIP3    H160646   5.958   3.376  15.683 -0.0149  0.5937 -0.2971
13077TIP3    H260647   5.953   3.366  15.834  1.6242  0.3730 -0.2364
13078TIP3   OH260648   5.994   3.365   2.333 -0.3623 -0.0184  0.1293
13078TIP3    H160649   5.953   3.421   2.267  1.9446 -0.3467 -1.7242
13078TIP3    H260650   5.966   3.402   2.417 -0.0642  3.0916 -1.0015
13079TIP3   OH260651   4.606   1.181  14.557 -0.1413  0.8840 -0.4306
13079TIP3    H160652   4.637   1.218  14.474 -1.1797  0.5258 -0.9928
13079TIP3    H260653   4.551   1.107  14.531  2.9194 -2.0455  0.6601
13080TIP3   OH260654   1.766   6.625   0.075 -0.0091 -0.5954  0.4900
13080TIP3    H160655   1.699   6.672   0.124 -0.3369 -0.7973  0.2382
13080TIP3    H260656   1.849   6.654   0.114 -0.0217  1.9813 -1.1570
13081TIP3   OH260657   4.565   5.584  12.139 -0.3648 -0.2837 -0.0391
13081TIP3    H160658   4.540   5.504  12.187 -0.1347 -0.1931  0.2315
13081TIP3    H260659   4.655   5.568  12.111 -0.5277 -0.3696 -0.5155
13082TIP3   OH260660   1.382   4.408  12.416 -0.6374  0.4139 -0.1952
13082TIP3    H160661   1.358   4.468  12.346 -1.3731  0.4801  0.1120
13082TIP3    H260662   1.449   4.352  12.378  0.3230  1.6481 -0.3854
13083TIP3   OH260663   4.956   1.373   3.169  0.6790  0.5931  0.2896
13083TIP3    H160664   4.955   1.278   3.157  0.2116  0.7485 -1.0086
13083TIP3    H260665   5.037   1.390   3.218  1.6165 -0.3139 -0.8895
13084TIP3   OH260666   6.014   5.238   4.914 -0.0118 -0.2287  0.0416
13084TIP3    H160667   5.966   5.287   4.847 -1.8233  0.5716  1.8432
13084TIP3    H260668   5.965   5.156   4.924  0.2589 -0.3498  0.3802
13085TIP3   OH260669   0.913   5.933   4.241  0.1996  0.2723  0.3501
13085TIP3    H160670   0.824   5.917   4.272  0.5227  0.0596  1.1704
13085TIP3    H260671   0.904   5.938   4.146 -0.7053  0.3571  0.4303
13086TIP3   OH260672   4.000   1.803  12.439 -0.1454  0.0352 -0.2718
13086TIP3    H160673   3.915   1.762  12.459 -1.0400  1.9440  0.0634
13086TIP3    H260674   3.991   1.893  12.471  2.8144 -0.2861  1.9125
13087TIP3   OH260675   2.203   2.763   4.875 -0.3952 -0.5322  0.5670
13087TIP3    H160676   2.265   2.691   4.871  1.1775  0.8294 -1.1787
13087TIP3    H260677   2.219   2.814   4.796 -1.7861  1.4670  1.4621
13088TIP3   OH260678   2.314   0.170   6.693 -0.4974 -0.4788 -0.0591
13088TIP3    H160679   2.401   0.192   6.659 -0.1313 -2.7746 -0.7856
13088TIP3    H260680   2.278   0.253   6.723  2.4092  0.3845  1.4029
13089TIP3   OH260681   2.093   2.687  12.676 -0.4657  0.9013 -0.1318
13089TIP3    H160682   2.161   2.621  12.679 -1.4371 -0.1235  0.3875
13089TIP3    H260683   2.124   2.752  12.613  0.8426  0.3295 -0.1066
13090TIP3   OH260684   0.981   5.835  12.921  0.2583 -0.7293 -0.7903
13090TIP3    H160685   1.068   5.859  12.889  0.1342  0.1714 -0.4780
13090TIP3    H260686   0.996   5.764  12.983  0.8654  0.0201 -0.0630
13091TIP3   OH260687   0.558   3.795  10.998 -0.2300  0.0754  0.0309
13091TIP3    H160688   0.534   3.763  11.085 -1.1786 -0.2790 -0.3463
13091TIP3    H260689   0.498   3.751  10.939 -0.7949  1.6727 -0.6369
13092TIP3   OH260690   5.654   1.035   1.269 -0.2975  0.2982 -0.1849
13092TIP3    H160691   5.667   1.053   1.362  0.5492 -2.8646  0.4622
13092TIP3    H260692   5.561   1.051   1.254 -0.7407 -0.3855  1.5834
13093TIP3   OH260693   6.468   1.084  16.974 -0.0740  0.3687 -0.0181
13093TIP3    H160694   6.561   1.071  16.953 -0.3149  0.4301 -1.2460
13093TIP3    H260695   6.441   1.155  16.916 -1.0813 -0.1962 -0.2630
13094TIP3   OH260696   1.885   1.123  14.616 -0.4154  0.5269  0.3584
13094TIP3    H160697   1.972   1.113  14.655 -0.3195 -1.7795 -0.2880
13094TIP3    H260698   1.901   1.125  14.521 -1.0676 -0.6252  0.1965
13095TIP3   OH260699   1.927   5.214   4.959  0.9871  0.4604  0.7364
13095TIP3    H160700   2.013   5.187   4.993  2.0494  0.0161 -2.0470
13095TIP3    H260701   1.937   5.308   4.943  1.0016  0.3950  0.3472
13096TIP3   OH260702   5.599   4.434  16.460  0.3329  0.2682  0.0084
13096TIP3    H160703   5.692   4.414  16.462  0.4469  0.7524 -0.2078
13096TIP3    H260704   5.578   4.457  16.551  0.6870  1.2695 -0.1471
13097TIP3   OH260705   4.477   1.922  12.761  0.4067  0.4049  0.7293
13097TIP3    H160706   4.519   1.957  12.682  0.9459 -2.2679 -0.2745
13097TIP3    H260707   4.549   1.905  12.821  0.4024 -0.7243  0.4423
13098TIP3   OH260708   1.199   5.118   0.874 -0.3025 -0.4544 -0.3132
13098TIP3    H160709   1.131   5.050   0.875 -1.2844  0.4363 -1.9112
13098TIP3    H260710   1.157   5.195   0.912  0.8071 -0.6810  1.4937
13099TIP3   OH260711   0.873   0.830  13.139 -0.3030  0.0312 -0.1250
13099TIP3    H160712   0.863   0.861  13.049  0.9297  1.3375  0.1388
13099TIP3    H260713   0.935   0.757  13.132 -2.0274 -1.4466 -0.5747
13100TIP3   OH260714   1.916   0.024   2.257  0.0764  0.3845  0.1421
13100TIP3    H160715   1.992  -0.031   2.273 -0.4928 -0.4015  0.1857
13100TIP3    H260716   1.861   0.012   2.334 -1.8233 -1.9901 -1.4192
13101TIP3   OH260717   0.637   4.825  12.691 -0.0557  0.7909  0.1984
13101TIP3    H160718   0.625   4.736  12.657  2.2142 -0.0414  1.3655
13101TIP3    H260719   0.597   4.823  12.778 -4.2598  2.4075 -1.4343
13102TIP3   OH260720   3.138   0.266  15.617  0.5937  0.0800 -0.4420
13102TIP3    H160721   3.189   0.188  15.639 -2.1105 -2.0615 -1.1974
13102TIP3    H260722   3.049   0.234  15.608 -0.8969  3.5738  0.5501
13103TIP3   OH260723   3.406   4.465  13.565  0.0966  0.1522  0.3005
13103TIP3    H160724   3.462   4.458  13.643  0.1981  0.5931  0.2672
13103TIP3    H260725   3.430   4.389  13.512  0.7751  0.4195  0.2131
13104TIP3   OH260726   4.873   6.450   5.218  0.2072  0.7260 -0.1466
13104TIP3    H160727   4.912   6.421   5.135  1.5340 -0.8545  0.9602
13104TIP3    H260728   4.820   6.376   5.246 -0.0760  1.1737  0.5145
13105TIP3   OH260729   5.953   4.868  13.478  0.0020  0.5239 -0.8415
13105TIP3    H160730   5.905   4.815  13.414  0.2526 -0.7902  0.0359
13105TIP3    H260731   5.886   4.924  13.517 -0.4866  0.0333 -0.9652
13106TIP3   OH260732   5.423   1.800  13.244 -0.1375 -0.3817 -0.6993
13106TIP3    H160733   5.379   1.880  13.214  0.5342 -0.2134 -1.2581
13106TIP3    H260734   5.497   1.831  13.297  0.1252 -0.6317 -0.9159
13107TIP3   OH260735   1.792   4.440  11.638 -0.0756  0.2996  0.1998
13107TIP3    H160736   1.853   4.510  11.663  0.7783 -0.4971  0.4110
13107TIP3    H260737   1.843   4.359  11.648 -1.4456 -0.4678  1.2394
13108TIP3   OH260738   1.739   3.729   6.334 -0.2250  0.2411  0.1449
13108TIP3    H160739   1.756   3.663   6.401 -1.2144 -1.5930 -1.3093
13108TIP3    H260740   1.675   3.788   6.375  0.1324 -0.0885  1.2261
13109TIP3   OH260741   2.350   1.242  12.862 -0.9030  0.1889 -0.2207
13109TIP3    H160742   2.317   1.164  12.817 -1.9241  1.0549 -1.0278
13109TIP3    H260743   2.443   1.226  12.874 -0.5198  0.0304 -2.9434
13110TIP3   OH260744   2.297   6.462  16.147  0.2914  0.8227  1.0367
13110TIP3    H160745   2.255   6.535  16.101 -0.1976 -0.9285 -1.5112
13110TIP3    H260746   2.230   6.394  16.148  1.8381 -0.7980  0.1104
13111TIP3   OH260747   1.074   4.907   1.365  0.2398  0.3817  0.0116
13111TIP3    H160748   1.046   4.838   1.426  0.4278  0.6058  0.3532
13111TIP3    H260749   1.066   4.867   1.279 -0.4745  0.2161  0.1491
13112TIP3   OH260750   2.342   3.460   0.286 -0.0798  0.2905  0.2261
13112TIP3    H160751   2.427   3.434   0.323 -0.3954  0.0715  0.8070
13112TIP3    H260752   2.361   3.480   0.195  0.7118  0.8056  0.4951
13113TIP3   OH260753   3.515   0.161  12.045  0.3859  0.8684  0.6208
13113TIP3    H160754   3.469   0.077  12.043  0.9926  0.5345  0.1014
13113TIP3    H260755   3.481   0.205  12.123 -2.0528  1.3859 -0.6439
13114TIP3   OH260756   2.337   2.472  10.525 -0.3385 -0.0383  0.2310
13114TIP3    H160757   2.398   2.541  10.549 -1.5559  1.1555  0.0239
13114TIP3    H260758   2.262   2.483  10.584 -0.5451 -1.2199  0.2297
13115TIP3   OH260759   4.336   5.325   0.716 -0.0154  0.0800  0.1098
13115TIP3    H160760   4.255   5.326   0.767 -0.7375 -0.1262 -0.9847
13115TIP3    H260761   4.366   5.416   0.717 -0.0464  0.0896  0.8341
13116TIP3   OH260762   4.048   5.688  12.782  0.0597  0.5138 -0.4824
13116TIP3    H160763   3.997   5.650  12.853 -1.0232 -0.3766 -1.6787
13116TIP3    H260764   4.101   5.616  12.748  0.2519  0.8153 -0.8423
13117TIP3   OH260765   4.303   5.256   5.388  0.7174  0.0669 -0.3926
13117TIP3    H160766   4.392   5.285   5.404  1.3133 -1.6514 -0.4534
13117TIP3    H260767   4.253   5.291   5.462  1.7420 -0.3102  0.5019
13118TIP3   OH260768   3.493   5.291   5.961 -0.7602 -0.0982  0.7356
13118TIP3    H160769   3.475   5.199   5.980 -0.3067  0.1459  2.6040
13118TIP3    H260770   3.408   5.334   5.972 -0.9350 -0.2488  0.0396
13119TIP3   OH260771   2.825   5.814   6.071 -0.0501 -0.3467  0.3710
13119TIP3    H160772   2.739   5.857   6.076  0.4102  0.6281  0.2120
13119TIP3    H260773   2.827   5.755   6.146 -0.1826  0.9155  1.3962
13120TIP3   OH260774   0.353   6.591   0.226  0.0243 -0.5691  0.0456
13120TIP3    H160775   0.404   6.524   0.271 -0.7811 -1.2961 -0.0910
13120TIP3    H260776   0.298   6.629   0.295 -0.8650 -1.3523 -0.2169
13121TIP3   OH260777   6.429   6.353   6.568 -0.0369  0.5709 -0.1637
13121TIP3    H160778   6.393   6.332   6.654 -0.5370  2.9395  0.2653
13121TIP3    H260779   6.519   6.382   6.586  0.3416 -0.2487 -0.6396
13122TIP3   OH260780   4.025   6.663   0.230 -0.0431  0.2273 -0.2918
13122TIP3    H160781   4.105   6.711   0.252  1.2200 -1.9689  0.2760
13122TIP3    H260782   3.968   6.728   0.190  1.6629  2.0910  0.1249
13123TIP3   OH260783   0.367   0.110   3.741 -0.1616 -0.1071  0.3608
13123TIP3    H160784   0.343   0.114   3.649 -1.5059 -1.3928  0.6242
13123TIP3    H260785   0.309   0.173   3.785  0.0734  0.0744  0.4160
13124TIP3   OH260786   5.753   0.163  16.163 -0.5243  0.0098 -0.0627
13124TIP3    H160787   5.659   0.179  16.166 -0.1866  3.0341 -1.9337
13124TIP3    H260788   5.768   0.120  16.078 -0.2165 -0.8589  0.4129
13125TIP3   OH260789   5.563   1.692   3.798  0.2502  0.2549 -0.3246
13125TIP3    H160790   5.584   1.609   3.839  1.0066  0.3558 -0.5047
13125TIP3    H260791   5.470   1.705   3.818 -0.1615 -1.1350 -1.1922
13126TIP3   OH260792   0.001   3.882   6.406  0.2024  0.3336  0.2590
13126TIP3    H160793   0.080   3.908   6.358  1.1385 -0.7009  1.1664
13126TIP3    H260794   0.018   3.910   6.496  0.6152 -1.9930  0.9675
13127TIP3   OH260795   4.521   3.797   5.413  0.0936  0.1157  0.1636
13127TIP3    H160796   4.534   3.891   5.424 -0.0099  0.3229 -1.3558
13127TIP3    H260797   4.440   3.779   5.460  0.2148  0.7309  0.6335
13128TIP3   OH260798   6.231   5.537  14.624  0.1714  0.5557  0.1718
13128TIP3    H160799   6.188   5.547  14.709  1.7716 -0.6247  1.1960
13128TIP3    H260800   6.161   5.512  14.564 -0.7433 -0.3175  1.5400
13129TIP3   OH260801   5.702   2.953   1.718  0.1743  0.1533  0.0271
13129TIP3    H160802   5.661   3.039   1.731 -1.2014 -0.3645 -0.6941
13129TIP3    H260803   5.665   2.921   1.636 -0.5003 -1.7670  1.0203
13130TIP3   OH260804   4.058   5.094  13.706 -0.3926  0.0578  0.3592
13130TIP3    H160805   4.049   5.077  13.612  0.3930  0.0173  0.2808
13130TIP3    H260806   3.977   5.138  13.730 -2.0357 -2.7320  0.3268
13131TIP3   OH260807   2.314   3.995   3.781  0.1906 -0.7214  0.0984
13131TIP3    H160808   2.314   4.060   3.851 -0.0128 -1.4048  0.7387
13131TIP3    H260809   2.262   4.035   3.712 -1.1914 -0.7843  1.0629
13132TIP3   OH260810   2.229   4.435   1.861 -0.4626  0.0930  0.1997
13132TIP3    H160811   2.272   4.453   1.944 -0.5910 -3.9926  1.3577
13132TIP3    H260812   2.135   4.442   1.880 -0.4935 -0.8978  0.4422
13133TIP3   OH260813   4.966   5.719   1.633 -0.0522  0.0691  0.3440
13133TIP3    H160814   5.028   5.649   1.613  0.8447  0.8702  0.2288
13133TIP3    H260815   4.936   5.749   1.547 -0.8490 -0.5107  0.4051
13134TIP3   OH260816   6.293   1.566  16.049  0.2962  0.1861 -0.3780
13134TIP3    H160817   6.356   1.634  16.027 -0.2871  0.9573  0.2939
13134TIP3    H260818   6.208   1.610  16.048 -0.2347 -0.7824 -1.0621
13135TIP3   OH260819   5.500   2.546  13.846  0.2041 -0.0624 -0.2241
13135TIP3    H160820   5.469   2.486  13.779  0.4437 -0.5402  0.0925
13135TIP3    H260821   5.446   2.624  13.835  1.5317  0.6520 -2.2654
13136TIP3   OH260822   3.217   4.059   5.378 -0.3005 -0.1706  0.2630
13136TIP3    H160823   3.304   4.028   5.402 -1.1173 -1.9140  1.1464
13136TIP3    H260824   3.213   4.050   5.283  0.1951 -0.8972  0.3088
13137TIP3   OH260825   0.930   0.863  13.937  0.0767  0.0901 -0.3531
13137TIP3    H160826   0.962   0.885  13.850 -0.1898  1.0376 -0.2189
13137TIP3    H260827   0.849   0.914  13.947 -0.9191 -1.4449 -0.2786
13138TIP3   OH260828   5.792   5.701  13.162  0.3339 -0.2208 -0.1998
13138TIP3    H160829   5.762   5.775  13.214  2.0853  0.2678  0.1749
13138TIP3    H260830   5.848   5.739  13.095  2.4598 -1.2636  0.8787
13139TIP3   OH260831   4.952   4.166  13.830 -0.2340  0.1329  0.3302
13139TIP3    H160832   4.900   4.244  13.811 -0.6249 -0.5732 -1.8077
13139TIP3    H260833   4.889   4.104  13.866 -0.6187 -0.2382 -0.9313
13140TIP3   OH260834   1.069   2.792   0.958  0.9212 -0.0665  0.3557
13140TIP3    H160835   1.043   2.700   0.969 -0.9132  0.5194  1.4714
13140TIP3    H260836   0.990   2.835   0.926  1.7288  1.1514 -0.0395
13141TIP3   OH260837   0.756   6.628   4.434  0.3666 -0.1737 -0.7593
13141TIP3    H160838   0.708   6.678   4.500  0.2152 -1.7689  0.4243
13141TIP3    H260839   0.725   6.662   4.350 -0.6399  0.8432 -0.0093
13142TIP3   OH260840   1.425   1.362   1.111 -0.1326  0.0401 -0.3727
13142TIP3    H160841   1.481   1.286   1.093 -1.6771 -0.9430 -1.2245
13142TIP3    H260842   1.370   1.371   1.033 -1.0519  1.0753  0.3594
13143TIP3   OH260843   5.117   3.364   5.410 -0.0565  0.5424 -0.6211
13143TIP3    H160844   5.162   3.296   5.460 -1.8232 -0.5727 -0.4587
13143TIP3    H260845   5.093   3.430   5.474 -1.5040 -0.4496 -0.0755
13144TIP3   OH260846   5.520   1.031  13.645  0.6229  0.3057  0.0139
13144TIP3    H160847   5.428   1.010  13.636  0.5617  0.1835  0.8296
13144TIP3    H260848   5.535   1.103  13.584  0.0893  0.0527 -0.4185
13145TIP3   OH260849   4.291   1.108  12.647  0.0194 -0.1322 -0.8044
13145TIP3    H160850   4.252   1.047  12.585  0.1054 -1.3911  0.3308
13145TIP3    H260851   4.217   1.142  12.697 -0.2385  2.1040 -2.5737
13146TIP3   OH260852   6.664   2.540  16.238 -1.0023 -0.0625 -0.2964
13146TIP3    H160853   6.583   2.515  16.194  0.2188  0.3180 -2.8930
13146TIP3    H260854   6.723   2.466  16.224  0.3433  1.2412 -1.9121
13147TIP3   OH260855   0.943   1.888  17.306  0.0756 -0.4028 -0.5671
13147TIP3    H160856   0.977   1.963  17.355 -0.2346 -1.2244  0.9551
13147TIP3    H260857   0.929   1.922  17.217 -0.0460  1.3237  0.0760
13148TIP3   OH260858   3.656   6.360   4.490 -0.8502 -0.5601 -0.1424
13148TIP3    H160859   3.663   6.383   4.397 -0.6600 -1.0842 -0.2640
13148TIP3    H260860   3.659   6.444   4.536  1.2446 -0.4015 -0.4897
13149TIP3   OH260861   1.330   6.771   0.939 -0.2208 -0.1144 -0.0946
13149TIP3    H160862   1.367   6.756   1.026 -0.8382 -0.3514  0.1269
13149TIP3    H260863   1.365   6.857   0.913  1.2010 -0.7139 -0.2639
13150TIP3   OH260864   5.007   3.109  11.324  0.0757  0.1826  0.3697
13150TIP3    H160865   4.977   3.138  11.410 -1.8648 -0.6491  0.0176
13150TIP3    H260866   4.990   3.184  11.267  0.2062  0.2905  0.4706
13151TIP3   OH260867   6.269   1.903  17.088  0.1290 -0.1810 -0.8425
13151TIP3    H160868   6.265   1.937  17.177  1.0000 -0.5885 -0.6289
13151TIP3    H260869   6.243   1.976  17.033 -0.6373  0.0104 -0.2473
13152TIP3   OH260870   6.711   5.908   0.857  0.0361  0.0860  0.4699
13152TIP3    H160871   6.767   5.978   0.825  1.6692 -1.0078  0.8473
13152TIP3    H260872   6.646   5.896   0.788 -0.2416  1.8917  0.3671
13153TIP3   OH260873   3.202   0.764   0.849  0.0495 -0.4833 -0.7325
13153TIP3    H160874   3.146   0.724   0.782  1.2268 -0.0978 -2.0202
13153TIP3    H260875   3.168   0.733   0.932 -1.2386 -1.2994 -1.5393
13154TIP3   OH260876   2.561   3.113  15.218  0.1762 -0.1859  0.4723
13154TIP3    H160877   2.535   3.119  15.126  2.0290  0.0572 -0.0828
13154TIP3    H260878   2.606   3.196  15.236 -0.6618  0.0073  1.7798
13155TIP3   OH260879   3.575   1.759  16.584  0.2262  0.2640 -0.1429
13155TIP3    H160880   3.530   1.742  16.666  0.2801 -0.3005 -0.2256
13155TIP3    H260881   3.511   1.807  16.531  0.0221  0.2064  0.0524
13156TIP3   OH260882   4.165   1.389  15.290  0.4151 -0.3236  0.3423
13156TIP3    H160883   4.158   1.410  15.384  0.4441 -1.3872  0.5910
13156TIP3    H260884   4.155   1.294  15.286 -0.3021 -0.2064 -0.8163
13157TIP3   OH260885   6.494   1.515  15.706  0.3700  0.1567  0.1023
13157TIP3    H160886   6.496   1.428  15.747 -0.6089  0.9764  1.9892
13157TIP3    H260887   6.529   1.574  15.772 -0.5053  1.4359 -0.5366
13158TIP3   OH260888   6.221   3.286   0.786 -0.2860 -0.0875 -0.2492
13158TIP3    H160889   6.143   3.232   0.798 -0.8908  0.2810 -2.2031
13158TIP3    H260890   6.202   3.367   0.834 -0.2533 -0.7582  0.9288
13159TIP3   OH260891   4.136   1.107   6.624 -0.1509  0.3176  0.3541
13159TIP3    H160892   4.138   1.011   6.620  0.3589  0.3644 -1.8831
13159TIP3    H260893   4.071   1.133   6.558 -0.8197  1.5147  1.4393
13160TIP3   OH260894   3.383   0.321  12.270 -0.1985  0.0900 -0.3870
13160TIP3    H160895   3.311   0.259  12.259  0.0983 -0.7515  1.7733
13160TIP3    H260896   3.364   0.392  12.209  0.1660 -2.6515 -3.9710
13161TIP3   OH260897   0.187   2.160   4.545  0.8291 -0.2040 -0.2441
13161TIP3    H160898   0.136   2.171   4.625  0.2082  0.3768 -0.7003
13161TIP3    H260899   0.267   2.115   4.572  0.3947 -0.4794  0.6095
13162TIP3   OH260900   1.049   5.189   4.326  0.2341 -0.2852  0.3732
13162TIP3    H160901   1.097   5.106   4.325  0.3081 -0.2351 -0.7064
13162TIP3    H260902   1.117   5.256   4.334  0.2353 -0.2886  0.3905
13163TIP3   OH260903   1.936   3.430   0.612  0.3836 -0.0970 -0.5454
13163TIP3    H160904   1.912   3.485   0.687 -0.1917 -0.4583 -0.4573
13163TIP3    H260905   2.008   3.477   0.570  0.6362  0.1655  0.1639
13164TIP3   OH260906   4.140   4.932  15.428  0.1435 -0.7823  0.1223
13164TIP3    H160907   4.139   4.842  15.463  0.2202 -0.6883  0.3719
13164TIP3    H260908   4.129   4.987  15.506 -0.0175 -0.5792 -0.0454
13165TIP3   OH260909   3.472   3.850   5.500  0.5776 -0.2014 -0.4696
13165TIP3    H160910   3.479   3.820   5.591 -2.2311  1.3144  0.3458
13165TIP3    H260911   3.458   3.770   5.450 -2.9439 -0.7918  1.1604
13166TIP3   OH260912   3.498   4.031  16.213 -0.1277  0.7588 -0.4950
13166TIP3    H160913   3.558   4.073  16.274  0.6398  1.2984 -1.5939
13166TIP3    H260914   3.538   3.946  16.195  0.7991  1.4440 -1.8713
13167TIP3   OH260915   4.004   4.073   1.535  0.1315  0.4851 -0.0597
13167TIP3    H160916   4.054   3.998   1.568 -1.4044  0.1850  1.7627
13167TIP3    H260917   4.071   4.138   1.511  1.4767 -1.2838 -1.3353
13168TIP3   OH260918   5.686   0.392   1.175  0.2590  0.0185 -0.8550
13168TIP3    H160919   5.643   0.472   1.204  0.5085  0.0117 -0.4660
13168TIP3    H260920   5.622   0.323   1.192  0.7527 -0.1093  0.5465
13169TIP3   OH260921   2.590   3.259  13.152  0.2550  0.9401  0.4620
13169TIP3    H160922   2.637   3.224  13.076 -1.5095 -0.3190 -0.1142
13169TIP3    H260923   2.646   3.329  13.185  2.1675 -0.0143 -0.5971
13170TIP3   OH260924   5.050   2.730  17.104  0.3255 -0.0279  0.3958
13170TIP3    H160925   4.979   2.793  17.103 -0.1947 -0.5953  1.0264
13170TIP3    H260926   5.128   2.781  17.081  0.3161  1.3224  3.0069
13171TIP3   OH260927   2.195   5.948   5.116 -0.7663 -0.4488  0.1715
13171TIP3    H160928   2.160   6.005   5.047 -1.5439  0.1878  1.0493
13171TIP3    H260929   2.281   5.922   5.085  0.1939  2.2702  0.2627
13172TIP3   OH260930   4.163   4.823  16.210 -0.8853  0.9538  0.1514
13172TIP3    H160931   4.184   4.759  16.141 -3.8450 -0.4457  0.4059
13172TIP3    H260932   4.209   4.790  16.287 -3.1292 -1.6131  0.5385
13173TIP3   OH260933   1.105   4.503   6.328  0.6036  0.2879  0.2041
13173TIP3    H160934   1.085   4.554   6.407 -2.1533 -0.8421  0.3352
13173TIP3    H260935   1.083   4.413   6.351  0.9060 -0.2550 -1.4851
13174TIP3   OH260936   1.074   6.730  16.459  0.1951  0.1581  0.3376
13174TIP3    H160937   1.100   6.822  16.456  0.0391  0.1710 -2.0911
13174TIP3    H260938   1.156   6.682  16.472  0.6122  0.5221 -0.8905
13175TIP3   OH260939   4.504   0.148   6.492 -0.1661 -0.5467 -0.1027
13175TIP3    H160940   4.577   0.113   6.440 -1.5528 -2.1663 -1.0420
13175TIP3    H260941   4.443   0.076   6.499 -1.1392  0.3937  1.7633
13176TIP3   OH260942   0.392   4.273  11.550  0.0824  0.6098  0.4055
13176TIP3    H160943   0.357   4.345  11.497 -1.7986  0.4184  1.3276
13176TIP3    H260944   0.396   4.308  11.639 -0.6249 -0.3252  0.8225
13177TIP3   OH260945   0.076   2.769  15.830  0.2283 -0.5795 -0.1758
13177TIP3    H160946  -0.019   2.763  15.839  0.3097  0.1611  1.4585
13177TIP3    H260947   0.110   2.757  15.919  1.6721 -0.8191 -0.7255
13178TIP3   OH260948   6.281   0.811  13.459  0.0485  0.0423  0.0854
13178TIP3    H160949   6.291   0.808  13.363 -2.7572 -0.4778 -0.2738
13178TIP3    H260950   6.286   0.720  13.486  1.8037  0.2662  0.6050
13179TIP3   OH260951   4.232   6.336  12.055 -0.2738 -0.6996 -0.4113
13179TIP3    H160952   4.281   6.281  11.994 -1.3147 -2.5934  0.3885
13179TIP3    H260953   4.141   6.330  12.025 -0.6619 -0.8957  0.7508
13180TIP3   OH260954   0.970   6.360  11.359 -0.1491 -0.2460 -0.2417
13180TIP3    H160955   0.993   6.379  11.450 -0.4668 -0.9173 -0.0206
13180TIP3    H260956   1.038   6.300  11.329 -0.7283 -1.0114 -0.0569
13181TIP3   OH260957   2.148   0.212  13.899 -0.2114  0.2605 -0.2119
13181TIP3    H160958   2.164   0.224  13.993  0.0465 -2.2405  0.1524
13181TIP3    H260959   2.231   0.236  13.857 -0.1036  0.7371  0.2717
13182TIP3   OH260960   4.613   0.157   1.110 -0.7055  0.4281 -0.1077
13182TIP3    H160961   4.585   0.208   1.033 -2.9728 -2.4055 -1.3623
13182TIP3    H260962   4.535   0.153   1.166 -0.3474 -0.9064  0.3297
13183TIP3   OH260963   0.421   1.739  11.525 -0.0205 -0.4211 -0.7288
13183TIP3    H160964   0.446   1.706  11.611  0.7731 -1.1300 -1.2207
13183TIP3    H260965   0.490   1.801  11.502 -0.4253  0.0490 -0.7065
13184TIP3   OH260966   0.770   2.317  13.006  0.1671 -0.2896 -0.1042
13184TIP3    H160967   0.735   2.406  13.006 -0.0726 -0.3717 -1.3108
13184TIP3    H260968   0.854   2.324  12.960  0.2535 -0.6498 -0.0026
13185TIP3   OH260969   0.564   5.921   1.178 -0.1495 -0.0974 -0.0507
13185TIP3    H160970   0.497   5.864   1.215  1.0983 -0.8262  1.1881
13185TIP3    H260971   0.524   6.008   1.176 -1.6189 -0.7626 -0.7246
13186TIP3   OH260972   3.302   2.990   0.131 -0.2240 -0.3209 -0.1635
13186TIP3    H160973   3.373   3.051   0.113 -1.6474  1.6962  0.7157
13186TIP3    H260974   3.341   2.924   0.188  1.1229  0.3125 -0.3256
13187TIP3   OH260975   2.268   2.042  13.920  0.2110 -0.4877 -0.3933
13187TIP3    H160976   2.276   2.053  14.015 -1.9124  0.3894 -0.2608
13187TIP3    H260977   2.358   2.034  13.889  1.0365  0.7232  1.5267
13188TIP3   OH260978   2.971   0.998   4.641 -0.1383 -0.0736 -0.1877
13188TIP3    H160979   3.034   1.004   4.569  0.3905 -1.0780  0.1643
13188TIP3    H260980   2.972   0.905   4.666 -0.6571  0.1740  0.8060
13189TIP3   OH260981   5.903   2.032  13.446  0.4539 -0.2128  0.2868
13189TIP3    H160982   5.919   1.962  13.382  2.3448  0.8872 -0.5361
13189TIP3    H260983   5.946   2.109  13.408 -0.9525  1.2244  1.5116
13190TIP3   OH260984   0.695   4.432  17.125  0.0355 -0.3626  0.4991
13190TIP3    H160985   0.706   4.476  17.041 -1.7674 -0.9700 -0.0981
13190TIP3    H260986   0.650   4.350  17.105  0.3850 -0.9602  1.9631
13191TIP3   OH260987   5.360   3.680  12.880 -0.3754 -0.1603  0.0227
13191TIP3    H160988   5.381   3.600  12.833  0.0438 -0.4018  0.6082
13191TIP3    H260989   5.271   3.702  12.851  0.4345  0.5976 -2.0997
13192TIP3   OH260990   3.504   5.188   1.392 -0.7980 -0.0530 -0.9267
13192TIP3    H160991   3.534   5.254   1.330  1.6975 -0.5141 -0.3326
13192TIP3    H260992   3.562   5.113   1.378 -1.9819 -1.2166  0.0756
13193TIP3   OH260993   6.283   3.045   3.569 -0.0934  0.6906  0.3829
13193TIP3    H160994   6.266   3.028   3.476 -1.2915  0.6981  0.5877
13193TIP3    H260995   6.278   3.140   3.578 -1.6464  0.5977  0.7410
13194TIP3   OH260996   0.829   5.420  14.138 -0.5848 -0.1602 -0.2302
13194TIP3    H160997   0.848   5.440  14.046 -0.0685 -1.0625 -0.3273
13194TIP3    H260998   0.741   5.454  14.152 -0.1411  1.2557 -0.6638
13195TIP3   OH260999   2.100   5.685   2.083  0.2945  0.0658 -0.5899
13195TIP3    H161000   2.093   5.664   1.990 -1.0282 -1.8828 -0.0978
13195TIP3    H261001   2.039   5.758   2.096 -0.9066 -0.8410 -0.9513
13196TIP3   OH261002   4.087   4.956  12.395  0.3238  0.0327  0.5626
13196TIP3    H161003   4.149   4.986  12.461  0.1666 -0.2572  0.8452
13196TIP3    H261004   4.009   4.930  12.445  1.1447 -2.7314  0.5659
13197TIP3   OH261005   5.309   2.316   5.104  0.2139  0.5106 -0.5486
13197TIP3    H161006   5.356   2.311   5.020 -0.2073 -1.5986 -0.7067
13197TIP3    H261007   5.259   2.235   5.108 -0.7004  1.1245  1.2260
13198TIP3   OH261008   4.918   0.910  17.310  0.1338 -0.4781 -0.3260
13198TIP3    H161009   4.959   0.932  17.393 -0.1156  0.5600 -0.4663
13198TIP3    H261010   4.838   0.863  17.334 -0.0252 -0.0331  0.0338
13199TIP3   OH261011   0.284   1.741  13.322  0.4795 -0.5545  0.0519
13199TIP3    H161012   0.359   1.710  13.372  0.2312 -1.5634 -0.1758
13199TIP3    H261013   0.208   1.701  13.365  0.2018 -0.7667 -0.6109
13200TIP3   OH261014   0.521   0.871  11.291  0.5269  0.5440 -0.2337
13200TIP3    H161015   0.551   0.813  11.220  0.7136  0.7422 -0.3189
13200TIP3    H261016   0.563   0.837  11.369  1.9329  1.4995 -0.5213
13201TIP3   OH261017   5.096   4.506  17.058 -0.3733  0.8376  0.1792
13201TIP3    H161018   5.161   4.457  17.007 -1.9333  0.6100 -1.6909
13201TIP3    H261019   5.086   4.455  17.139 -1.7396 -1.9166 -1.5648
13202TIP3   OH261020   3.335   1.871  11.646  0.4644 -0.4522 -0.3475
13202TIP3    H161021   3.384   1.907  11.572 -0.7661  1.3819 -0.3291
13202TIP3    H261022   3.394   1.880  11.721  0.2338  1.5187 -0.3678
13203TIP3   OH261023   3.202   4.021   5.120 -0.4730 -0.0740 -0.5369
13203TIP3    H161024   3.178   4.113   5.109 -0.7060 -0.1500 -0.6760
13203TIP3    H261025   3.191   3.984   5.032  0.9112  0.0607 -0.7868
13204TIP3   OH261026   5.423   4.906  15.392  0.1842  0.0290  0.4094
13204TIP3    H161027   5.414   4.860  15.308 -3.3929  1.2963 -0.1059
13204TIP3    H261028   5.478   4.982  15.373  1.1587 -0.8052 -0.2043
13205TIP3   OH261029   5.724   3.824   1.763 -0.3782 -0.0272  0.1048
13205TIP3    H161030   5.634   3.836   1.732 -0.9464 -0.6404  1.4490
13205TIP3    H261031   5.736   3.729   1.765  0.8082  0.0531 -1.4058
13206TIP3   OH261032   4.978   5.048   3.088  0.4656 -0.2291 -0.1946
13206TIP3    H161033   5.029   4.986   3.140 -1.0332  0.3118  2.0360
13206TIP3    H261034   4.891   5.047   3.127 -0.4474  1.0380 -2.0428
13207TIP3   OH261035   2.382   0.738   3.319 -0.3952 -0.1794 -0.0286
13207TIP3    H161036   2.297   0.781   3.304 -0.4117 -0.4315 -0.6729
13207TIP3    H261037   2.372   0.695   3.404 -1.9931 -2.7198 -1.3797
13208TIP3   OH261038   5.849   0.877  12.162  0.0154 -0.0166 -0.3871
13208TIP3    H161039   5.910   0.910  12.096  1.1630  0.2304  0.7403
13208TIP3    H261040   5.819   0.956  12.208 -0.3661 -0.2228 -0.2789
13209TIP3   OH261041   1.029   1.194  13.040 -0.1300 -0.2745 -0.4591
13209TIP3    H161042   1.017   1.116  12.986 -1.4589  0.2486 -0.9544
13209TIP3    H261043   1.022   1.267  12.978  1.6734  0.2561 -0.1066
13210TIP3   OH261044   1.300   4.630   4.254 -0.1266 -0.3072 -0.6300
13210TIP3    H161045   1.236   4.608   4.187 -1.5839 -0.7719  0.8446
13210TIP3    H261046   1.355   4.552   4.263 -1.4210 -1.1431  0.3184
13211TIP3   OH261047   4.659   3.081   3.353  0.6411  0.7296 -0.2731
13211TIP3    H161048   4.686   3.109   3.266 -0.1459  2.4468 -0.0033
13211TIP3    H261049   4.713   3.132   3.413  0.1086  0.6962  0.2467
13212TIP3   OH261050   3.917   3.583   1.575  0.5790  0.0850 -0.3513
13212TIP3    H161051   3.846   3.604   1.514  0.5422 -0.0915 -0.3683
13212TIP3    H261052   3.994   3.625   1.537  0.4825  0.2833 -0.3295
13213TIP3   OH261053   3.899   2.080   5.794 -0.0375  0.1022  0.1245
13213TIP3    H161054   3.954   2.061   5.870  0.7520  1.6651 -0.0243
13213TIP3    H261055   3.922   2.169   5.769 -1.2244  0.0798 -1.1693
13214TIP3   OH261056   0.463   2.374  15.012 -0.2557  0.0130  0.0835
13214TIP3    H161057   0.412   2.297  14.987  2.0000 -1.4428 -0.4385
13214TIP3    H261058   0.503   2.350  15.096  0.4661  0.6075 -0.0814
13215TIP3   OH261059   1.211   6.390  16.985  0.6194 -0.3977  0.4558
13215TIP3    H161060   1.190   6.306  17.027 -0.4191  0.0831  0.9535
13215TIP3    H261061   1.172   6.455  17.043 -0.6583  0.3103 -1.1218
13216TIP3   OH261062   0.516   1.867  14.726 -0.0792  0.1433  0.0125
13216TIP3    H161063   0.536   1.810  14.800 -0.7568 -0.6257 -0.3788
13216TIP3    H261064   0.430   1.838  14.695  0.6032 -0.2228 -1.6750
13217TIP3   OH261065   3.989   2.146  11.074  0.5881  0.4924 -0.9671
13217TIP3    H161066   3.987   2.218  11.011  2.5925 -0.0056 -1.6627
13217TIP3    H261067   4.043   2.079  11.033 -0.3475 -0.9903  0.1332
13218TIP3   OH261068   5.794   0.140  13.364 -0.5460 -0.5470 -0.3106
13218TIP3    H161069   5.730   0.155  13.294 -1.7597 -0.8544  0.6811
13218TIP3    H261070   5.825   0.051  13.348  1.1624  0.2780 -1.9382
13219TIP3   OH261071   6.646   0.266  13.429  0.5468 -0.1817 -0.1514
13219TIP3    H161072   6.619   0.228  13.346 -0.6823 -0.7751  0.4952
13219TIP3    H261073   6.587   0.340  13.442  1.2191  0.3641 -0.1479
13220TIP3   OH261074   4.719   3.335  11.414  0.0075 -0.0015  0.1567
13220TIP3    H161075   4.706   3.241  11.409 -1.4584  0.0116  2.2199
13220TIP3    H261076   4.638   3.368  11.454  1.6795  1.7242  2.3432
13221TIP3   OH261077   0.431   4.258  16.397  0.4242  0.8110 -0.7778
13221TIP3    H161078   0.421   4.352  16.414 -0.6796  0.8532 -1.5499
13221TIP3    H261079   0.525   4.243  16.403  0.5332  1.7861  0.2704
13222TIP3   OH261080   2.618   5.901  13.056 -0.2937 -0.2009  0.7459
13222TIP3    H161081   2.550   5.902  13.123 -1.1988  0.9553 -0.1307
13222TIP3    H261082   2.650   5.992  13.053 -0.7482 -0.0679 -0.8298
13223TIP3   OH261083   3.254   6.052   0.975  0.0702  0.5830  0.0485
13223TIP3    H161084   3.317   6.013   0.915  0.0377  1.9723 -0.9337
13223TIP3    H261085   3.262   6.147   0.961 -1.8226  0.8301  0.3146
13224TIP3   OH261086   4.758   2.860  12.988  0.4847  0.0514  0.0086
13224TIP3    H161087   4.761   2.955  13.000  0.5531  0.0915 -0.3182
13224TIP3    H261088   4.738   2.826  13.075 -0.6528  0.4310 -0.0955
13225TIP3   OH261089   2.429   2.598   3.966  0.4119  0.5933  0.0658
13225TIP3    H161090   2.501   2.657   3.984  1.8122 -0.3334 -2.0246
13225TIP3    H261091   2.360   2.654   3.931  0.4983  1.3554  1.0866
13226TIP3   OH261092   1.067   4.301   1.712 -0.0609 -0.0061 -0.3350
13226TIP3    H161093   1.099   4.388   1.686 -1.4504  0.6859  0.1638
13226TIP3    H261094   1.063   4.305   1.807  0.1656 -0.7500 -0.2899
13227TIP3   OH261095   6.773   2.508  14.846 -0.0023  0.4825  0.0191
13227TIP3    H161096   6.755   2.466  14.930 -0.2311  0.4177 -0.0617
13227TIP3    H261097   6.757   2.601  14.862 -2.7358  0.2064 -0.6466
13228TIP3   OH261098   4.810   2.394  11.375 -0.0376  0.0891 -0.3585
13228TIP3    H161099   4.747   2.364  11.310 -1.0212 -0.5466  0.8519
13228TIP3    H261100   4.766   2.465  11.420  1.0981  1.3522 -1.1328
13229TIP3   OH261101   5.467   1.645  12.927 -0.1462  0.4625 -0.4538
13229TIP3    H161102   5.444   1.664  13.018 -0.5790 -1.4116 -0.1260
13229TIP3    H261103   5.559   1.618  12.931  0.1374  1.3460 -0.7458
13230TIP3   OH261104   6.512   5.190   0.932  0.3769 -0.5525 -0.5099
13230TIP3    H161105   6.573   5.227   0.995  0.1670 -2.2162  0.7354
13230TIP3    H261106   6.448   5.142   0.985 -2.1720  1.2278 -1.7357
13231TIP3   OH261107   1.668   5.716  13.361  0.5118 -0.3560  0.2812
13231TIP3    H161108   1.762   5.697  13.364  0.2853 -1.4426  1.3770
13231TIP3    H261109   1.656   5.761  13.278  2.0863  0.2928  0.3529
13232TIP3   OH261110   5.083   4.140  11.356  0.1142 -0.1715  0.3081
13232TIP3    H161111   5.144   4.178  11.419  2.2789  2.5518 -3.0355
13232TIP3    H261112   5.100   4.046  11.359  0.9797 -0.0015  2.8279
13233TIP3   OH261113   4.138   2.693  13.823  0.2789 -0.1136  0.0492
13233TIP3    H161114   4.193   2.649  13.758 -0.2822  0.3078 -0.7285
13233TIP3    H261115   4.115   2.777  13.782 -1.2410 -0.4317  0.1967
13234TIP3   OH261116   3.483   3.463   3.919  0.1794 -0.2506 -0.4469
13234TIP3    H161117   3.522   3.546   3.895  1.1232 -1.1349 -2.0956
13234TIP3    H261118   3.471   3.416   3.837  1.8281 -2.6666  0.5461
13235TIP3   OH261119   0.481   6.579  11.318 -0.2073  0.2604  0.8016
13235TIP3    H161120   0.391   6.605  11.300 -0.7609 -0.5969  2.1838
13235TIP3    H261121   0.499   6.508  11.256  0.0633  1.4377 -0.5046
13236TIP3   OH261122   4.756   0.327  14.087 -0.2072  0.2233 -0.2933
13236TIP3    H161123   4.851   0.326  14.094 -0.0993 -0.3425 -1.6155
13236TIP3    H261124   4.726   0.335  14.178  1.0888  0.2942  0.1532
13237TIP3   OH261125   2.748   2.387  14.184  0.2817  0.3822 -0.3161
13237TIP3    H161126   2.816   2.406  14.248  0.9037  0.9960 -1.1402
13237TIP3    H261127   2.723   2.473  14.150  0.1214  0.0463 -1.0652
13238TIP3   OH261128   0.399   5.077  12.256  0.3040 -0.2267 -0.1024
13238TIP3    H161129   0.415   5.036  12.341  0.0922 -0.7887 -0.3276
13238TIP3    H261130   0.339   5.149  12.275  0.6314 -0.0568  0.2901
13239TIP3   OH261131   3.028   5.491  12.284 -0.3167 -0.6517  0.3830
13239TIP3    H161132   2.941   5.504  12.321 -0.3466  1.0889 -0.2011
13239TIP3    H261133   3.082   5.558  12.326  0.0485  0.2064 -1.3551
13240TIP3   OH261134   6.530   5.296  12.205  0.0302  0.4862  0.1908
13240TIP3    H161135   6.508   5.368  12.145  0.3640  0.9988  0.6853
13240TIP3    H261136   6.563   5.227  12.147 -2.1118 -0.0473 -0.5225
13241TIP3   OH261137   0.669   5.256   1.030  0.0796 -0.1438 -0.0082
13241TIP3    H161138   0.675   5.205   1.110 -1.9650 -0.3618  0.0490
13241TIP3    H261139   0.760   5.263   1.000  0.7041 -1.5223  1.3887
13242TIP3   OH261140   1.591   2.682  14.580 -0.2188  0.3772  0.1382
13242TIP3    H161141   1.682   2.712  14.584  0.5760 -1.9281  1.2341
13242TIP3    H261142   1.591   2.614  14.513 -0.4475 -1.5270  1.9526
13243TIP3   OH261143   1.229   4.749   4.950  0.0204  0.5621  0.2097
13243TIP3    H161144   1.312   4.718   4.915 -1.8777 -2.0705 -2.4291
13243TIP3    H261145   1.208   4.826   4.897  0.3063  0.6404  0.2111
13244TIP3   OH261146   2.411   5.167   5.019  0.1296  0.4815  0.2064
13244TIP3    H161147   2.448   5.088   5.059 -0.7916  0.2980  0.7355
13244TIP3    H261148   2.322   5.172   5.054  0.5384  2.4148  1.1482
13245TIP3   OH261149   1.314   1.088   0.920  0.6611  0.1402  0.2017
13245TIP3    H161150   1.260   1.020   0.961  0.3258  0.2969  0.0240
13245TIP3    H261151   1.394   1.042   0.895  0.7448 -0.0233  0.7539
13246TIP3   OH261152   0.614   0.458  13.097 -0.3499 -0.2852 -0.0853
13246TIP3    H161153   0.665   0.533  13.127  1.9432 -1.7503 -0.0688
13246TIP3    H261154   0.541   0.497  13.049  0.7616  1.9638 -0.1102
13247TIP3   OH261155   4.759   6.630  15.396 -0.4707 -0.4695 -0.1620
13247TIP3    H161156   4.700   6.560  15.368 -1.7610  0.2914  0.6087
13247TIP3    H261157   4.829   6.629  15.330 -1.9685 -0.5814 -1.8322
13248TIP3   OH261158   5.100   2.838   2.018 -0.3880 -0.8132  0.2591
13248TIP3    H161159   5.068   2.915   2.065  0.6405  1.0870 -1.9400
13248TIP3    H261160   5.030   2.774   2.025 -1.7884  0.7512  1.1984
13249TIP3   OH261161   4.566   2.466   3.844  0.0428  0.4886  0.5489
13249TIP3    H161162   4.647   2.516   3.853 -0.8945  1.9404  1.3256
13249TIP3    H261163   4.512   2.494   3.918 -1.5376  0.2679 -0.4763
13250TIP3   OH261164   3.915   1.679  14.407  0.0712  0.3043 -0.0042
13250TIP3    H161165   3.944   1.612  14.469 -0.5865 -0.2713 -0.3071
13250TIP3    H261166   3.845   1.725  14.453  1.0224  1.2993  0.4960
13251TIP3   OH261167   6.333   3.105   1.126  0.0709 -0.0440 -0.0445
13251TIP3    H161168   6.317   3.170   1.195 -0.1477 -1.4452  1.2936
13251TIP3    H261169   6.428   3.092   1.128  0.2731  1.0584 -1.1429
13252TIP3   OH261170   1.239   4.935  16.217 -0.3755  0.0290  0.2183
13252TIP3    H161171   1.252   4.957  16.125 -1.1761  0.2178  0.1440
13252TIP3    H261172   1.151   4.965  16.237  0.0725  0.7245  1.2727
13253TIP3   OH261173   5.515   6.598   0.176  0.1990  0.1735 -0.1240
13253TIP3    H161174   5.506   6.612   0.270 -2.3582 -0.9746 -0.0977
13253TIP3    H261175   5.599   6.554   0.166  0.2384 -0.2396  1.7155
13254TIP3   OH261176   1.494   5.017   4.023 -0.1033 -0.1683  0.1015
13254TIP3    H161177   1.503   4.984   4.112 -0.1110  1.5786  0.7854
13254TIP3    H261178   1.514   4.941   3.967  2.6072 -0.6274  1.5379
13255TIP3   OH261179   0.075   0.949   1.663 -0.3010  0.1806 -0.0188
13255TIP3    H161180   0.100   0.993   1.582 -2.0708 -0.0576 -0.7497
13255TIP3    H261181   0.155   0.946   1.715  0.5452  1.5802 -1.1765
13256TIP3   OH261182   5.988   2.563  16.409  0.4034  1.3791 -0.3873
13256TIP3    H161183   5.994   2.471  16.436  1.9623  1.5106 -0.1658
13256TIP3    H261184   6.079   2.594  16.411 -0.1624  3.1131  0.1888
13257TIP3   OH261185   3.584   0.403  13.759 -0.0780 -0.3877 -0.0330
13257TIP3    H161186   3.553   0.424  13.847 -0.4155  0.0936 -0.2612
13257TIP3    H261187   3.677   0.423  13.760  0.2179 -1.6717  0.6079
13258TIP3   OH261188   1.584   4.868  13.599  0.6761 -0.0598  0.1369
13258TIP3    H161189   1.677   4.888  13.613  0.9564 -1.3809  0.2925
13258TIP3    H261190   1.546   4.869  13.687  0.2817  1.5377 -0.0123
13259TIP3   OH261191   1.119   6.212  13.862 -0.5194 -0.0534 -0.1311
13259TIP3    H161192   1.036   6.258  13.861  1.1679  3.4874  1.9079
13259TIP3    H261193   1.137   6.195  13.955  1.5626  0.5567 -0.3525
13260TIP3   OH261194   5.077   4.214   2.037 -0.1794  0.1592  0.1571
13260TIP3    H161195   5.150   4.263   2.074 -0.2624 -0.6053  1.4082
13260TIP3    H261196   5.009   4.217   2.105  0.0974 -2.2690  0.6490
13261TIP3   OH261197   3.205   4.578  17.186 -0.1775  0.1297 -0.4751
13261TIP3    H161198   3.200   4.669  17.213  0.0438  0.1631 -0.5465
13261TIP3    H261199   3.178   4.528  17.263  1.8554  0.1586  0.2996
13262TIP3   OH261200   4.181   2.362  16.459  0.1574  0.3992 -0.3323
13262TIP3    H161201   4.251   2.377  16.523 -0.9693  1.0838  0.7863
13262TIP3    H261202   4.225   2.364  16.375  1.7164 -0.6150  0.4061
13263TIP3   OH261203   4.029   2.175   1.245  0.5334  0.3439 -0.1902
13263TIP3    H161204   4.011   2.266   1.268 -0.4376  0.1437 -0.1165
13263TIP3    H261205   3.994   2.124   1.318  0.7293 -0.1151 -0.4113
13264TIP3   OH261206   6.603   2.680   0.218  0.4175 -0.0356 -0.2677
13264TIP3    H161207   6.611   2.770   0.185 -0.0826 -0.1910 -0.8299
13264TIP3    H261208   6.525   2.682   0.273  2.4833  0.8072  2.9505
13265TIP3   OH261209   1.034   6.720  10.888 -0.2696  0.3966  0.6258
13265TIP3    H161210   0.997   6.665  10.957  0.7220 -1.3747 -0.1817
13265TIP3    H261211   0.968   6.787  10.872 -2.0916 -1.2779  0.8336
13266TIP3   OH261212   3.814   0.077  14.046 -0.6106 -0.5371 -0.1473
13266TIP3    H161213   3.724   0.055  14.021 -0.5647  0.0937 -0.9059
13266TIP3    H261214   3.828   0.164  14.011  0.0183 -0.2706  0.7255
13267TIP3   OH261215   4.244   5.151  12.246 -0.2370  0.0874 -0.6153
13267TIP3    H161216   4.180   5.087  12.278 -0.3209  0.3520 -0.2426
13267TIP3    H261217   4.206   5.236  12.271  0.5219  0.2256  0.0854
13268TIP3   OH261218   4.915   1.645   1.317 -0.0316 -0.0600 -0.2173
13268TIP3    H161219   4.898   1.558   1.280 -0.4497  0.6581 -1.7694
13268TIP3    H261220   4.829   1.687   1.319  0.0074  0.0166  1.4193
13269TIP3   OH261221   3.381   0.902   5.310  0.1386 -0.0327 -0.1808
13269TIP3    H161222   3.429   0.820   5.325 -1.7991 -1.2471 -0.3719
13269TIP3    H261223   3.446   0.970   5.327  1.2178 -1.5243  2.3246
13270TIP3   OH261224   4.932   2.063   2.148  0.4716 -0.0481  0.3004
13270TIP3    H161225   4.923   1.972   2.177  0.4207 -0.7226 -1.6476
13270TIP3    H261226   4.977   2.056   2.063 -1.4468  1.5247 -0.9372
13271TIP3   OH261227   1.845   0.136  14.190  0.2723  0.2124  0.0829
13271TIP3    H161228   1.898   0.214  14.170 -0.5649  0.7858  0.0746
13271TIP3    H261229   1.761   0.171  14.219 -0.2141 -0.7003 -0.1989
13272TIP3   OH261230   5.729   1.449   1.370  0.4867 -0.0016  0.3301
13272TIP3    H161231   5.668   1.445   1.444 -0.0536 -2.5296 -0.1525
13272TIP3    H261232   5.689   1.510   1.308 -1.9979 -2.0673 -0.2519
13273TIP3   OH261233   2.290   0.369   3.633  0.7103 -0.4708 -0.5292
13273TIP3    H161234   2.248   0.366   3.547 -0.2827 -0.4414 -0.0579
13273TIP3    H261235   2.263   0.288   3.676  1.6019 -0.7157 -0.4177
13274TIP3   OH261236   6.405   2.585  17.116  0.0697  0.2422  0.1205
13274TIP3    H161237   6.467   2.615  17.182 -0.6934 -0.8753  1.3805
13274TIP3    H261238   6.320   2.617  17.147 -0.3771 -0.8012  0.0103
13275TIP3   OH261239   1.382   1.497  15.617  0.0963  0.4548  0.1059
13275TIP3    H161240   1.452   1.472  15.556 -0.5314 -1.5435  0.1423
13275TIP3    H261241   1.301   1.484  15.568 -0.3433  0.8845  0.6954
13276TIP3   OH261242   1.143   3.622  14.859  0.2564 -0.0597 -0.3759
13276TIP3    H161243   1.139   3.534  14.898  0.8165  1.1382  2.6745
13276TIP3    H261244   1.066   3.667  14.894  0.7548  1.0982 -0.7400
13277TIP3   OH261245   2.154   5.899  13.063 -0.1497 -0.0969 -0.1077
13277TIP3    H161246   2.063   5.921  13.081 -0.0443 -0.7891  1.3701
13277TIP3    H261247   2.187   5.862  13.144  1.7076  0.9018 -0.3461
13278TIP3   OH261248   2.802   4.858  11.757 -0.2251 -0.4912 -0.1510
13278TIP3    H161249   2.837   4.853  11.667  0.2325  2.0321 -0.1894
13278TIP3    H261250   2.709   4.873  11.745  0.1710  2.2013 -0.3353
13279TIP3   OH261251   3.386   1.204  13.572 -0.0699 -0.7538  0.2107
13279TIP3    H161252   3.311   1.147  13.592 -0.3203 -0.5875 -0.2171
13279TIP3    H261253   3.448   1.147  13.528  0.2842 -1.0126  1.0341
13280TIP3   OH261254   6.099   3.439   5.960 -0.0549 -0.1908 -0.2986
13280TIP3    H161255   6.029   3.487   5.916 -0.5912  0.4605  1.1924
13280TIP3    H261256   6.110   3.483   6.044  0.8863 -1.4109  0.2636
13281TIP3   OH261257   5.109   5.398  11.344 -0.3381 -0.4839  0.1382
13281TIP3    H161258   5.093   5.395  11.439 -0.8880 -1.3694  0.0268
13281TIP3    H261259   5.204   5.401  11.336 -0.2890 -0.3490  0.7213
13282TIP3   OH261260   3.208   5.032   3.175  0.3830  0.3914 -0.2983
13282TIP3    H161261   3.188   5.065   3.087 -1.0236  2.2556  0.6454
13282TIP3    H261262   3.122   5.019   3.215  0.9907 -1.3021  0.5270
13283TIP3   OH261263   1.056   5.950   2.207 -1.2102 -0.0630  0.0272
13283TIP3    H161264   1.011   5.942   2.291  1.5343  0.4763  1.6678
13283TIP3    H261265   1.104   5.867   2.197 -1.2924 -0.0135 -0.8999
13284TIP3   OH261266   1.495   2.223  16.991 -0.1297 -0.6241 -0.4819
13284TIP3    H161267   1.533   2.307  16.965  0.0612 -0.5130  0.1279
13284TIP3    H261268   1.545   2.198  17.069 -1.7758 -0.1203  0.7988
13285TIP3   OH261269   2.653   1.742   5.834  0.2892  0.9051  0.3765
13285TIP3    H161270   2.737   1.754   5.878 -0.6381 -0.4307  2.6387
13285TIP3    H261271   2.587   1.757   5.902 -1.2593  0.0074 -0.8627
13286TIP3   OH261272   1.620   5.599   5.022  0.3101 -0.2300 -0.4914
13286TIP3    H161273   1.713   5.580   5.010  0.2179 -0.7161 -0.4671
13286TIP3    H261274   1.579   5.513   5.030  0.0359  0.0090  0.9133
13287TIP3   OH261275   1.957   3.663   5.347 -0.5444  0.0533  0.1213
13287TIP3    H161276   1.969   3.753   5.316  0.2138 -0.4898 -1.2392
13287TIP3    H261277   1.959   3.609   5.268 -2.1491 -1.0821  0.7940
13288TIP3   OH261278   1.757   4.425  17.199 -0.4372  0.8731  0.4483
13288TIP3    H161279   1.750   4.409  17.105  1.0520  0.2351  0.4179
13288TIP3    H261280   1.725   4.345  17.240 -1.1303  1.1691  0.4916
13289TIP3   OH261281   0.980   5.193  13.359  0.0605  0.4639  0.0354
13289TIP3    H161282   0.950   5.105  13.340  0.1493  0.7379 -1.5316
13289TIP3    H261283   1.043   5.182  13.430  0.0895 -0.7347 -0.1583
13290TIP3   OH261284   3.502   0.394  15.693 -0.1311  0.4314 -0.0734
13290TIP3    H161285   3.475   0.317  15.744  1.9596 -0.6752 -0.5266
13290TIP3    H261286   3.473   0.469  15.746 -2.0065 -0.6345  0.5009
13291TIP3   OH261287   3.466   2.262   4.122  0.0613 -0.5320  0.8806
13291TIP3    H161288   3.530   2.199   4.154  1.7980  1.8739  2.5278
13291TIP3    H261289   3.381   2.226   4.149  1.0542 -1.6403  2.7048
13292TIP3   OH261290   5.562   6.641   6.673 -0.2573  0.1142 -0.1131
13292TIP3    H161291   5.546   6.720   6.725 -0.4493 -1.3247  2.1483
13292TIP3    H261292   5.478   6.595   6.672  0.1430 -0.6225 -0.3841
13293TIP3   OH261293   5.679   3.472   4.434  0.1262 -0.0851  0.6175
13293TIP3    H161294   5.721   3.387   4.422  1.2508  0.5066  0.1762
13293TIP3    H261295   5.748   3.529   4.468 -0.4752  0.7769  0.4402
13294TIP3   OH261296   3.639   2.424   2.147  0.4301 -0.2553  0.5071
13294TIP3    H161297   3.733   2.434   2.166  0.6007  2.9870 -1.2767
13294TIP3    H261298   3.634   2.427   2.051 -1.4922 -0.6349  0.5734
13295TIP3   OH261299   0.337   4.745  15.984  0.2710  0.7106 -0.5092
13295TIP3    H161300   0.352   4.696  15.904 -0.0901 -0.2897  0.0298
13295TIP3    H261301   0.362   4.685  16.055  0.7650  1.6402  0.1314
13296TIP3   OH261302   3.847   4.547  14.620 -0.3756 -0.1018  0.3808
13296TIP3    H161303   3.919   4.564  14.681  0.4944 -1.1276 -0.3229
13296TIP3    H261304   3.785   4.495  14.670  1.1048 -2.3884 -0.0210
13297TIP3   OH261305   6.588   3.074   4.650  0.2823 -0.3805 -0.0397
13297TIP3    H161306   6.514   3.120   4.689  0.7292 -0.0240  0.3957
13297TIP3    H261307   6.655   3.073   4.718  0.1218 -2.0997  0.1392
13298TIP3   OH261308   6.443   3.243  16.969 -0.3942  0.5829 -1.0403
13298TIP3    H161309   6.432   3.212  16.880  0.2863 -0.0437 -0.9168
13298TIP3    H261310   6.361   3.218  17.014 -0.5463  0.4945 -1.3668
13299TIP3   OH261311   3.141   3.975  16.267 -0.0701  0.2972 -0.2561
13299TIP3    H161312   3.210   3.920  16.305  1.4245  3.7784  2.5767
13299TIP3    H261313   3.188   4.043  16.218 -1.8403 -0.4615 -3.2925
13300TIP3   OH261314   6.690   1.523   5.637 -0.0355  0.0314  0.0808
13300TIP3    H161315   6.744   1.472   5.698  0.2033 -0.9403 -0.9272
13300TIP3    H261316   6.707   1.614   5.662 -0.0682 -0.3380  1.5653
13301TIP3   OH261317   6.260   4.782  13.303  0.0167 -0.3639  0.3969
13301TIP3    H161318   6.200   4.855  13.286  0.2819  0.0848  1.3224
13301TIP3    H261319   6.315   4.779  13.224 -0.4549 -0.0283  0.0420
13302TIP3   OH261320   4.508   3.975   1.255 -0.3979  0.2168 -0.6917
13302TIP3    H161321   4.492   3.881   1.250 -0.1242  0.0028  1.5130
13302TIP3    H261322   4.424   4.015   1.233 -0.6921 -0.5511 -1.0160
13303TIP3   OH261323   1.904   2.977  12.643 -0.0073  0.5092  0.6808
13303TIP3    H161324   1.847   3.048  12.670  1.3645  1.2380  1.7967
13303TIP3    H261325   1.850   2.898  12.650 -2.0464  1.5011 -2.0945
13304TIP3   OH261326   2.830   6.333   2.015 -0.5738  0.2055 -0.3984
13304TIP3    H161327   2.777   6.268   1.970  0.1139  0.1615 -1.1739
13304TIP3    H261328   2.849   6.399   1.948 -1.4265  1.3347  0.4146
13305TIP3   OH261329   3.823   0.620   0.002  0.5566  0.7664 -0.0081
13305TIP3    H161330   3.882   0.670  -0.055  0.1560  0.8239 -0.3859
13305TIP3    H261331   3.878   0.592   0.075  0.9515  1.1692 -0.1426
13306TIP3   OH261332   0.183   5.799  10.830 -0.1518 -0.5108  0.1835
13306TIP3    H161333   0.185   5.705  10.849  1.0029 -0.4512  0.4568
13306TIP3    H261334   0.215   5.806  10.740  2.7288 -0.2079  1.1369
13307TIP3   OH261335   0.845   2.579   5.431  0.0750 -0.3677  0.9215
13307TIP3    H161336   0.934   2.571   5.464  0.4784  1.1723  0.2951
13307TIP3    H261337   0.794   2.608   5.507  0.2708 -0.4640  1.0897
13308TIP3   OH261338   0.996   3.748  15.070  0.4681 -0.5660 -0.5166
13308TIP3    H161339   1.039   3.832  15.091  0.3112 -0.5726 -0.1653
13308TIP3    H261340   0.932   3.736  15.140 -1.6225  0.4828 -2.1116
13309TIP3   OH261341   6.138   5.109  13.051  0.2425 -0.6363  0.5748
13309TIP3    H161342   6.089   5.089  13.131  0.3432 -0.9911  0.5461
13309TIP3    H261343   6.092   5.185  13.014 -0.1995 -0.8769  0.6209
13310TIP3   OH261344   6.277   1.424   4.448 -0.1495 -0.2956 -0.7851
13310TIP3    H161345   6.242   1.464   4.527  1.9769 -2.7704  1.6489
13310TIP3    H261346   6.356   1.475   4.428  1.2029 -1.6181  0.8519
13311TIP3   OH261347   0.017   6.100   0.626  0.2193 -0.0497  0.1528
13311TIP3    H161348   0.096   6.114   0.678  0.6815  0.3821 -0.6493
13311TIP3    H261349   0.048   6.097   0.535 -0.5698 -0.8131 -0.1057
13312TIP3   OH261350   6.086   1.016   1.732  0.4647  0.3509 -0.0425
13312TIP3    H161351   6.129   0.933   1.750  0.6019  0.0168 -1.6991
13312TIP3    H261352   6.038   1.037   1.812 -0.9688 -2.1760 -0.1195
13313TIP3   OH261353   1.718   2.483  12.933 -0.1096  0.8709  0.1592
13313TIP3    H161354   1.701   2.414  12.998 -0.1658  1.9989  1.3737
13313TIP3    H261355   1.783   2.539  12.974  3.1319 -0.6436 -2.4547
13314TIP3   OH261356   5.607   3.785   4.423  0.3120 -0.1195  0.1585
13314TIP3    H161357   5.621   3.703   4.470 -2.5302 -0.9875 -0.3197
13314TIP3    H261358   5.648   3.772   4.338 -0.7942 -1.4086 -0.2122
13315TIP3   OH261359   3.471   0.801   1.146  0.6195  0.1620 -0.0658
13315TIP3    H161360   3.456   0.816   1.053  0.4090 -1.1056 -0.2562
13315TIP3    H261361   3.441   0.711   1.162  0.8809  0.2640  1.1708
13316TIP3   OH261362   2.598   1.888   3.678  0.2401  0.1110 -0.7103
13316TIP3    H161363   2.514   1.917   3.644 -0.2626  0.9193  1.0800
13316TIP3    H261364   2.661   1.952   3.646 -0.2165  0.8491 -0.1697
13317TIP3   OH261365   5.920   5.443   0.669 -0.1809 -0.3172 -0.8032
13317TIP3    H161366   5.864   5.521   0.669 -0.9492 -0.8237  0.6934
13317TIP3    H261367   6.008   5.477   0.681 -0.3542  0.3924 -1.4613
13318TIP3   OH261368   2.610   0.552   3.230 -0.0622 -1.0862  0.1993
13318TIP3    H161369   2.658   0.478   3.269 -0.0601 -0.6304  1.0985
13318TIP3    H261370   2.595   0.611   3.304  1.2239  0.5161 -0.7602
13319TIP3   OH261371   0.931   1.205  16.063 -0.3112  0.0063 -0.3148
13319TIP3    H161372   0.893   1.292  16.077 -0.2612  0.0114 -0.2073
13319TIP3    H261373   1.000   1.219  15.998 -0.4329  0.0133 -0.4416
13320TIP3   OH261374   1.881   3.953  12.958 -0.6482  0.9129  0.6061
13320TIP3    H161375   1.885   3.953  12.862  0.9767 -1.2733  0.6055
13320TIP3    H261376   1.904   4.043  12.983 -0.3382  1.3293 -1.0266
13321TIP3   OH261377   2.766   3.986   1.972  0.5443 -0.1287 -0.0604
13321TIP3    H161378   2.770   3.977   1.876  1.6180  0.7669 -0.1184
13321TIP3    H261379   2.690   3.933   1.997  0.1847 -0.3144 -1.4139
13322TIP3   OH261380   4.514   4.053  16.564 -0.6623 -0.7957 -0.0982
13322TIP3    H161381   4.600   4.036  16.524 -1.3721 -0.3298 -1.9184
13322TIP3    H261382   4.531   4.122  16.628 -0.1258  1.7279 -2.7233
13323TIP3   OH261383   6.128   3.356   4.016  0.2813  0.1061  0.0065
13323TIP3    H161384   6.054   3.390   4.068  0.6323  0.0713  0.5390
13323TIP3    H261385   6.086   3.303   3.947 -0.1711 -1.1919  1.2095
13324TIP3   OH261386   4.764   4.619   1.043  0.1523 -0.4045 -0.4527
13324TIP3    H161387   4.781   4.698   0.991  0.5083  0.8239  1.4234
13324TIP3    H261388   4.669   4.619   1.054  0.1506 -0.2486 -0.4583
13325TIP3   OH261389   2.929   5.406  14.889  0.3464  0.0643 -0.3980
13325TIP3    H161390   3.023   5.421  14.880  0.3637  1.0253  1.0217
13325TIP3    H261391   2.895   5.405  14.800  1.6810 -0.1467 -0.9103
13326TIP3   OH261392   6.350   1.196  11.491 -0.2765 -0.5050 -0.3948
13326TIP3    H161393   6.266   1.186  11.445 -0.4470  2.4449 -0.9323
13326TIP3    H261394   6.416   1.176  11.424 -0.5530  0.5775 -1.0071
13327TIP3   OH261395   5.135   5.982  17.323  0.1233  0.3245 -0.3253
13327TIP3    H161396   5.163   6.046  17.389 -0.7400 -0.7572  1.1519
13327TIP3    H261397   5.056   5.942  17.360  0.2677 -1.1482 -1.4991
13328TIP3   OH261398   4.639   4.370  13.340 -0.0418  0.0867 -0.2785
13328TIP3    H161399   4.727   4.351  13.309  0.1758  1.9779 -1.0039
13328TIP3    H261400   4.652   4.416  13.423 -0.4371 -0.9786  0.3940
13329TIP3   OH261401   4.658   0.255  12.814 -0.4618  0.5200  0.3526
13329TIP3    H161402   4.683   0.168  12.844  0.9551  1.0518  0.8168
13329TIP3    H261403   4.647   0.305  12.895  2.2304  1.6665  0.1117
13330TIP3   OH261404   6.703   3.811  12.621  0.0000  0.5525  1.0349
13330TIP3    H161405   6.712   3.886  12.562 -0.0284 -0.2483 -0.0207
13330TIP3    H261406   6.791   3.774  12.627  0.2708  1.3754  2.5485
13331TIP3   OH261407   1.705   2.847   5.677 -0.0828 -0.6679 -0.5234
13331TIP3    H161408   1.616   2.862   5.706  0.2325  0.3284 -0.0289
13331TIP3    H261409   1.697   2.830   5.583 -0.7348  0.0095 -0.5990
13332TIP3   OH261410   3.670   4.028  17.015 -0.2042 -0.0971  0.4325
13332TIP3    H161411   3.636   4.116  17.033 -1.1628 -0.3851  0.0878
13332TIP3    H261412   3.608   3.991  16.951 -1.0222 -1.8046  2.1301
13333TIP3   OH261413   3.891   3.090   2.599  0.3541 -0.0321 -0.4108
13333TIP3    H161414   3.948   3.166   2.611  1.7173 -0.8243 -1.5240
13333TIP3    H261415   3.895   3.072   2.505 -2.6585  0.5313 -0.7226
13334TIP3   OH261416   3.450   0.972  11.690  0.0071 -0.5704  0.0778
13334TIP3    H161417   3.474   0.892  11.644  2.5004  0.7455 -1.1479
13334TIP3    H261418   3.513   0.979  11.761  0.1345  0.5210 -0.1203
13335TIP3   OH261419   5.630   1.847   4.764  0.6923 -0.5608 -0.3499
13335TIP3    H161420   5.588   1.779   4.710  1.3142 -0.3873 -1.0560
13335TIP3    H261421   5.669   1.907   4.701  1.3943 -0.3332  0.2949
13336TIP3   OH261422   6.536   6.089   5.335 -0.5406  0.6067 -0.1898
13336TIP3    H161423   6.444   6.066   5.326 -0.5471  0.5524  0.0072
13336TIP3    H261424   6.577   6.010   5.371 -0.6387  1.0415  0.9188
13337TIP3   OH261425   0.796   4.892   3.757  0.2333  0.1397 -0.4724
13337TIP3    H161426   0.834   4.957   3.698 -1.6529  0.3826 -1.4729
13337TIP3    H261427   0.838   4.909   3.842  0.0691  2.4189 -0.7937
13338TIP3   OH261428   5.578   0.178  17.298  0.0411 -0.2536  0.2549
13338TIP3    H161429   5.585   0.211  17.208  0.8751  0.0503  0.4244
13338TIP3    H261430   5.498   0.218  17.332  0.9237  1.4786  0.3996
13339TIP3   OH261431   4.058   6.015  11.912  0.0576  0.1470  0.1058
13339TIP3    H161432   4.124   5.947  11.899 -0.5589 -0.4353  0.0229
13339TIP3    H261433   4.109   6.096  11.918  0.8383 -0.3855  0.8478
13340TIP3   OH261434   1.872   2.673   4.036  0.5552  0.6064 -0.1437
13340TIP3    H161435   1.959   2.714   4.028 -0.1516  1.9900 -1.0398
13340TIP3    H261436   1.891   2.581   4.057  2.2232  1.0287  0.3680
13341TIP3   OH261437   0.210   0.105   0.085  0.2132  0.0662  0.2350
13341TIP3    H161438   0.200   0.010   0.088 -1.9225  0.2243 -0.1844
13341TIP3    H261439   0.156   0.138   0.157 -0.2121  1.0012 -0.4822
13342TIP3   OH261440   1.847   5.279  13.727  0.1200 -0.6246  0.8425
13342TIP3    H161441   1.892   5.259  13.809 -0.5047 -1.0496  1.0885
13342TIP3    H261442   1.761   5.311  13.754  0.4883  0.8659  0.4036
13343TIP3   OH261443   2.428   1.684   1.739  0.3132  0.3356  0.2666
13343TIP3    H161444   2.392   1.614   1.793  2.1350 -0.0917  1.0097
13343TIP3    H261445   2.467   1.637   1.664 -1.4815  0.8583 -1.0547
13344TIP3   OH261446   4.037   5.949  14.152  0.6128  0.0120  0.4604
13344TIP3    H161447   3.963   5.896  14.181  0.1551  0.0713 -0.5570
13344TIP3    H261448   4.021   6.035  14.191 -0.2759  0.2398 -0.3653
13345TIP3   OH261449   5.675   2.976  17.118 -0.0451  0.2053 -0.2265
13345TIP3    H161450   5.736   3.045  17.143  0.5073 -0.6995  1.0072
13345TIP3    H261451   5.590   3.006  17.150  0.2031  0.2940  0.3621
13346TIP3   OH261452   1.177   4.688   5.738 -0.0106  0.0535 -0.4196
13346TIP3    H161453   1.154   4.757   5.675 -0.5482  0.6106  0.3495
13346TIP3    H261454   1.230   4.626   5.689  0.7404  1.1720 -1.0736
13347TIP3   OH261455   4.484   5.520   0.484 -0.3774 -0.5855  0.5041
13347TIP3    H161456   4.558   5.551   0.537  0.2404 -0.6797 -0.2906
13347TIP3    H261457   4.502   5.427   0.470  0.0818 -0.3262 -0.8214
13348TIP3   OH261458   6.187   4.636   4.655 -0.2716  0.3662  0.0699
13348TIP3    H161459   6.238   4.705   4.614 -0.8052  0.8276  0.1630
13348TIP3    H261460   6.111   4.624   4.597  1.2228 -2.1941 -1.5235
13349TIP3   OH261461   5.125   4.373   4.793 -0.2262 -0.2938  0.1014
13349TIP3    H161462   5.183   4.343   4.863 -1.9814 -1.3140  1.2343
13349TIP3    H261463   5.147   4.465   4.780  0.7234 -0.3017  1.4252
13350TIP3   OH261464   3.455   5.536   5.728 -0.0980  0.7016 -0.3216
13350TIP3    H161465   3.483   5.619   5.691 -1.2507  1.4633  0.4474
13350TIP3    H261466   3.433   5.557   5.819 -0.6197 -0.3935 -0.1799
13351TIP3   OH261467   6.599   4.177  11.589  0.1126  0.2516 -0.2209
13351TIP3    H161468   6.569   4.105  11.644 -0.8214  2.0142  1.7070
13351TIP3    H261469   6.526   4.195  11.530 -0.0620  0.2821  0.0050
13352TIP3   OH261470   0.750   3.487  10.445  0.4148 -0.1907  0.2442
13352TIP3    H161471   0.768   3.572  10.406 -0.3959 -0.3262 -0.4576
13352TIP3    H261472   0.837   3.449  10.461  0.7707  0.4821 -0.0712
13353TIP3   OH261473   3.054   6.292  12.689  0.3388  0.0538 -0.6508
13353TIP3    H161474   3.080   6.257  12.775  1.4778 -1.3785 -1.5416
13353TIP3    H261475   3.087   6.382  12.689 -0.4237  0.3623  0.7208
13354TIP3   OH261476   0.429   6.419   1.003 -0.4016  0.3665  0.3556
13354TIP3    H161477   0.398   6.501   0.966  0.3850  0.5414  0.0730
13354TIP3    H261478   0.462   6.369   0.929  0.2060  0.2816  0.6788
13355TIP3   OH261479   2.986   2.400  15.959  0.5597  0.4811  0.7361
13355TIP3    H161480   2.971   2.388  16.053  0.6032 -0.5120  0.6278
13355TIP3    H261481   2.915   2.352  15.917 -0.5497  2.4388  0.2459
13356TIP3   OH261482   4.902   1.981  12.411  0.3540  0.0408 -0.3330
13356TIP3    H161483   4.975   1.922  12.427  0.5856  0.5254  0.4295
13356TIP3    H261484   4.921   2.058  12.465 -0.9198  0.0085  0.1845
13357TIP3   OH261485   0.193   5.593  14.253 -0.4976  0.3282 -0.8229
13357TIP3    H161486   0.238   5.666  14.294  0.8450 -0.4936 -0.7639
13357TIP3    H261487   0.197   5.611  14.160 -0.0553  0.2810 -0.8155
13358TIP3   OH261488   2.448   3.118  14.090  0.3912 -0.4628 -0.6084
13358TIP3    H161489   2.525   3.075  14.127  0.8979  0.1354 -0.9522
13358TIP3    H261490   2.413   3.170  14.162  0.6187 -0.3165 -0.6046
13359TIP3   OH261491   4.235   0.656   1.893 -0.0295  0.0412 -0.0039
13359TIP3    H161492   4.326   0.684   1.894 -0.5380  1.7832 -0.0353
13359TIP3    H261493   4.225   0.609   1.810  1.5054 -2.6793  1.2325
13360TIP3   OH261494   3.832   4.474  12.568  0.4467 -0.2109  0.0590
13360TIP3    H161495   3.840   4.489  12.662  2.0198 -0.1461 -0.0630
13360TIP3    H261496   3.851   4.559  12.529  0.0401 -0.2990 -0.3369
13361TIP3   OH261497   4.035   4.892   1.609  0.1075 -0.0914  0.4278
13361TIP3    H161498   4.038   4.830   1.682  0.1187 -0.3084  0.2452
13361TIP3    H261499   3.977   4.851   1.545 -0.3336  0.3477  0.5388
13362TIP3   OH261500   5.610   3.212  15.985  0.0368 -0.3483  0.0043
13362TIP3    H161501   5.610   3.142  15.920 -1.1876 -0.6871  0.3329
13362TIP3    H261502   5.674   3.184  16.050 -1.8897 -2.3009  1.2305
13363TIP3   OH261503   3.479   5.238  11.360  0.3122  0.5863  0.1808
13363TIP3    H161504   3.472   5.227  11.455 -1.5549 -1.0232 -0.0887
13363TIP3    H261505   3.438   5.161  11.323 -0.0434  1.7194 -1.9677
13364TIP3   OH261506   5.211   0.819  11.691 -0.5961  0.4301 -0.3737
13364TIP3    H161507   5.242   0.729  11.683 -1.2381  0.2853 -1.3474
13364TIP3    H261508   5.278   0.871  11.647  0.0965  0.5168  0.7340
13365TIP3   OH261509   4.606   4.885  14.803 -0.5632 -0.4225  0.0296
13365TIP3    H161510   4.605   4.897  14.897 -1.5220 -1.0970  0.1243
13365TIP3    H261511   4.650   4.802  14.789 -0.2827 -0.2492 -0.1331
13366TIP3   OH261512   6.536   3.967  11.735 -0.5283 -0.3565  0.6726
13366TIP3    H161513   6.474   3.894  11.739 -0.4193 -0.5123 -0.3566
13366TIP3    H261514   6.497   4.033  11.792 -0.3421 -1.4131  2.1011
13367TIP3   OH261515   6.279   3.299   5.628 -0.1001  0.4270  0.2698
13367TIP3    H161516   6.306   3.361   5.560  0.0766 -0.0264 -0.0786
13367TIP3    H261517   6.316   3.215   5.600 -1.8125 -0.2058 -0.1816
13368TIP3   OH261518   4.160   1.541   3.157  0.2162  0.1804  0.1233
13368TIP3    H161519   4.254   1.533   3.174  0.8881 -0.1776 -2.9952
13368TIP3    H261520   4.129   1.450   3.151  0.1290  0.2580 -0.7695
13369TIP3   OH261521   5.441   0.404  16.733  0.1844 -0.3335  0.4361
13369TIP3    H161522   5.473   0.457  16.806 -1.3695 -0.0226  0.9240
13369TIP3    H261523   5.349   0.390  16.752 -0.4451  0.3176 -1.8025
13370TIP3   OH261524   2.730   1.103   5.098  0.3206  0.0757  0.3015
13370TIP3    H161525   2.667   1.176   5.095  1.8671  1.6025  2.4044
13370TIP3    H261526   2.782   1.114   5.018 -0.0933  0.6751  0.1023
13371TIP3   OH261527   1.909   1.144  12.836 -0.3523  0.1936  0.0850
13371TIP3    H161528   1.857   1.182  12.765 -0.1451 -1.0117 -0.7453
13371TIP3    H261529   1.844   1.111  12.898 -0.5648 -0.1507 -0.3156
13372TIP3   OH261530   6.310   0.724   4.219 -0.0837 -0.0653  0.1112
13372TIP3    H161531   6.349   0.693   4.301 -1.3296  0.2055  0.8300
13372TIP3    H261532   6.240   0.661   4.200 -0.5868  0.5456 -0.0948
13373TIP3   OH261533   2.961   0.257  16.872 -0.3711 -0.1691  0.1601
13373TIP3    H161534   3.004   0.296  16.948 -2.0614  0.3276  0.8902
13373TIP3    H261535   2.964   0.326  16.805  1.8391 -0.8831 -0.5654
13374TIP3   OH261536   2.784   1.435  13.912  0.3250  0.4836 -0.1240
13374TIP3    H161537   2.866   1.470  13.875  2.2947 -3.2877  0.2061
13374TIP3    H261538   2.757   1.368  13.850 -2.3930  1.3267  0.0304
13375TIP3   OH261539   1.529   3.236  13.858  0.3912  0.2279  0.1611
13375TIP3    H161540   1.497   3.326  13.858  1.1242  0.4969  0.3819
13375TIP3    H261541   1.482   3.194  13.930  0.3533  0.5498  0.3264
13376TIP3   OH261542   0.221   2.002   3.663 -0.2507 -0.6475 -0.0324
13376TIP3    H161543   0.269   1.922   3.642  1.6749  0.1025  1.2619
13376TIP3    H261544   0.175   1.981   3.744 -0.3580 -0.6869 -0.1037
13377TIP3   OH261545   3.374   2.165   5.843 -0.4066 -0.3811  0.0955
13377TIP3    H161546   3.295   2.115   5.821  0.0474 -0.5865 -1.1547
13377TIP3    H261547   3.416   2.182   5.759 -0.6224  2.2934  0.4497
13378TIP3   OH261548   5.635   2.074   2.226 -0.1772 -0.3832 -0.0165
13378TIP3    H161549   5.660   2.004   2.166 -1.5971 -1.0624  0.1230
13378TIP3    H261550   5.681   2.152   2.195  1.3600 -1.3555 -0.2315
13379TIP3   OH261551   0.285   3.669   0.946  0.5175  0.4351 -0.2599
13379TIP3    H161552   0.239   3.604   1.000  0.6655  1.2685  0.9166
13379TIP3    H261553   0.226   3.685   0.872 -0.8899  1.0977  0.9454
13380TIP3   OH261554   4.785   4.688  14.746  0.6135 -0.6923  0.7399
13380TIP3    H161555   4.810   4.722  14.832  0.1277 -0.9970  1.0128
13380TIP3    H261556   4.846   4.616  14.730  1.8618  0.4799  0.0066
13381TIP3   OH261557   6.520   6.758  13.326 -0.3855 -0.1774 -0.2693
13381TIP3    H161558   6.473   6.675  13.327 -0.3949 -0.1721  0.6297
13381TIP3    H261559   6.498   6.799  13.410 -1.5036  1.3827 -1.2639
13382TIP3   OH261560   1.838   2.807  14.569  0.4456  0.0665  0.4146
13382TIP3    H161561   1.794   2.886  14.598 -0.5895 -0.7879  1.2463
13382TIP3    H261562   1.862   2.825  14.478  0.0353  1.2429  0.5218
13383TIP3   OH261563   5.392   2.747   6.063  0.1574 -0.2301 -0.3831
13383TIP3    H161564   5.322   2.801   6.099  1.1841  0.5641  0.4725
13383TIP3    H261565   5.348   2.689   6.000 -1.0189  1.4180 -1.1461
13384TIP3   OH261566   5.051   5.749   5.240  0.2260 -0.3349  0.3101
13384TIP3    H161567   5.018   5.661   5.222  1.0291 -0.9305  1.6021
13384TIP3    H261568   5.046   5.758   5.335  1.0657  0.6404  0.2825
13385TIP3   OH261569   0.917   2.140  16.789  0.0870  0.4204  0.5503
13385TIP3    H161570   1.004   2.102  16.776 -0.0854  0.5642 -1.1894
13385TIP3    H261571   0.934   2.233  16.804  0.2231  0.5018 -0.0923
13386TIP3   OH261572   0.580   4.568   3.834  0.2102 -0.4264 -0.6022
13386TIP3    H161573   0.626   4.550   3.752  1.2975 -1.6173  0.2278
13386TIP3    H261574   0.645   4.611   3.889 -0.7641  1.1676 -0.6172
13387TIP3   OH261575   0.975   2.293   4.245 -0.3284 -0.1823  0.0215
13387TIP3    H161576   0.898   2.237   4.254  0.7516 -1.6859  0.2481
13387TIP3    H261577   1.015   2.267   4.162  0.2482  0.1629  0.1801
13388TIP3   OH261578   5.197   4.588   4.348 -0.2176  0.1646 -0.1399
13388TIP3    H161579   5.153   4.566   4.266 -2.4345  0.7767  0.8264
13388TIP3    H261580   5.139   4.554   4.416  2.4406 -1.9808  1.2590
13389TIP3   OH261581   5.273   1.245  13.845 -0.5743 -0.5675 -0.0987
13389TIP3    H161582   5.205   1.301  13.881 -0.1082 -0.3983  0.5187
13389TIP3    H261583   5.354   1.275  13.886  0.1344  0.2870 -2.0060
13390TIP3   OH261584   0.799   6.137   0.159 -0.4829 -0.1774 -0.0681
13390TIP3    H161585   0.707   6.154   0.136 -1.2102 -3.2366  0.1209
13390TIP3    H261586   0.801   6.142   0.255  0.3916  3.1209 -0.1481
13391TIP3   OH261587   2.107   4.551  12.299 -0.3746  0.2804 -0.2553
13391TIP3    H161588   2.096   4.503  12.381 -1.1758  0.0747 -0.4716
13391TIP3    H261589   2.019   4.557  12.262 -0.3242  2.0376 -0.1817
13392TIP3   OH261590   1.181   1.831   2.667 -0.7789  0.6025  0.3463
13392TIP3    H161591   1.174   1.736   2.664 -0.5683  0.6081 -0.7823
13392TIP3    H261592   1.183   1.852   2.760  0.4686 -0.6058  0.6315
13393TIP3   OH261593   6.135   4.833   2.332 -0.0427 -0.0170 -0.2765
13393TIP3    H161594   6.167   4.886   2.405  0.0197  1.5670 -1.4110
13393TIP3    H261595   6.208   4.776   2.310 -0.6390 -1.7968  1.9837
13394TIP3   OH261596   2.054   6.317  16.403  0.2968  0.2998 -0.5244
13394TIP3    H161597   2.035   6.308  16.309 -0.2515  0.6073 -0.4433
13394TIP3    H261598   2.025   6.405  16.425 -1.6325 -0.5231  0.4229
13395TIP3   OH261599   6.415   3.968   5.795 -0.0097  0.3553  0.3393
13395TIP3    H161600   6.433   3.972   5.701 -1.3769 -0.0313  0.0309
13395TIP3    H261601   6.448   4.051   5.830 -0.3214  0.9150 -0.6581
13396TIP3   OH261602   0.034   5.898  14.334 -0.1102  0.1311  0.3603
13396TIP3    H161603   0.006   5.989  14.339 -0.9155 -0.1785  3.2681
13396TIP3    H261604   0.128   5.903  14.314 -0.1467  1.5877  0.4705
13397TIP3   OH261605   2.511   0.714  14.997 -0.2934 -0.0205 -0.1908
13397TIP3    H161606   2.575   0.698  15.067 -2.1508  0.1923  1.6349
13397TIP3    H261607   2.470   0.797  15.021 -1.3852 -0.2478 -1.2026
13398TIP3   OH261608   0.449   1.910  12.905 -0.8291 -0.0931  0.3000
13398TIP3    H161609   0.502   1.984  12.937 -1.0194 -0.0360  0.4850
13398TIP3    H261610   0.407   1.944  12.826  1.3072 -0.9008 -1.2639
13399TIP3   OH261611   4.759   1.804   5.061  0.0743 -0.1188  0.2805
13399TIP3    H161612   4.798   1.748   5.128 -2.3032 -1.2848  0.8038
13399TIP3    H261613   4.670   1.822   5.093 -0.3482  1.2061 -1.4715
13400TIP3   OH261614   6.567   4.006  13.677 -0.7195  0.0514  0.2609
13400TIP3    H161615   6.497   3.952  13.714 -1.1570  0.3497 -0.1056
13400TIP3    H261616   6.535   4.096  13.688 -0.5773  0.1704 -0.2766
13401TIP3   OH261617   4.859   4.030  11.688  0.7437 -0.4039 -0.3223
13401TIP3    H161618   4.800   4.064  11.621  0.1484 -0.7919  0.0051
13401TIP3    H261619   4.807   4.027  11.768  0.8217 -1.9434 -0.3002
13402TIP3   OH261620   6.666   5.589   1.901  0.0163  0.0853  0.1207
13402TIP3    H161621   6.712   5.665   1.938 -0.2615  1.1519 -1.6169
13402TIP3    H261622   6.606   5.561   1.970  0.3004  1.2930  0.8873
13403TIP3   OH261623   2.624   0.330   0.622 -0.1362 -0.2365  0.4391
13403TIP3    H161624   2.624   0.411   0.672  2.2320  0.3571 -0.4100
13403TIP3    H261625   2.549   0.339   0.562 -0.5919  0.7875  1.1324
13404TIP3   OH261626   5.699   1.685   3.529 -0.5246 -0.3104  0.1391
13404TIP3    H161627   5.750   1.610   3.560 -0.6575 -0.9435 -1.1060
13404TIP3    H261628   5.620   1.684   3.583  0.0408 -0.3007  0.9826
13405TIP3   OH261629   6.257   6.476   2.486  0.1458 -0.3140 -0.6897
13405TIP3    H161630   6.164   6.464   2.466 -0.2889 -0.2317  1.1395
13405TIP3    H261631   6.265   6.567   2.514  0.4667 -0.7162  0.6182
13406TIP3   OH261632   5.588   1.276  14.903 -0.3435 -0.0659  0.0997
13406TIP3    H161633   5.640   1.333  14.960  0.0054 -0.9878  0.7168
13406TIP3    H261634   5.559   1.205  14.960  1.7334 -2.1481 -1.2322
13407TIP3   OH261635   2.371   6.223  15.888  0.2006  0.9239 -0.2110
13407TIP3    H161636   2.442   6.165  15.859 -1.3228 -0.6487 -0.9330
13407TIP3    H261637   2.338   6.183  15.968 -2.5798 -0.8339 -2.0661
13408TIP3   OH261638   0.503   4.204   4.134  0.4578 -0.0987  0.2037
13408TIP3    H161639   0.552   4.197   4.052  0.6918 -0.9548  0.4128
13408TIP3    H261640   0.558   4.160   4.199 -1.2643 -2.5577  0.1434
13409TIP3   OH261641   1.607   0.351  17.217 -0.1171 -0.5752  0.2424
13409TIP3    H161642   1.679   0.405  17.250  0.0528 -1.0054  0.5919
13409TIP3    H261643   1.548   0.412  17.173  0.4669 -0.2195 -0.0507
13410TIP3   OH261644   0.228   4.525   1.058  0.9522 -0.1164  0.4388
13410TIP3    H161645   0.261   4.488   0.977  0.9670 -1.4630  1.0276
13410TIP3    H261646   0.166   4.460   1.091  1.3080  0.1630  1.7461
13411TIP3   OH261647   2.792   1.339  12.646 -0.5087  0.1484 -0.3474
13411TIP3    H161648   2.887   1.326  12.654 -0.5914  0.2553  0.9984
13411TIP3    H261649   2.770   1.301  12.561  0.7659  0.2831 -0.7605
13412TIP3   OH261650   1.575   6.298  14.468  0.2244 -0.1314 -0.5377
13412TIP3    H161651   1.555   6.323  14.377 -0.7028  0.4329 -0.1896
13412TIP3    H261652   1.659   6.340  14.486  0.1648  0.1785 -0.9689
13413TIP3   OH261653   1.347   3.433  13.873  0.1199 -0.3178 -0.3107
13413TIP3    H161654   1.363   3.527  13.862 -0.3469 -0.2990 -0.8497
13413TIP3    H261655   1.316   3.403  13.788 -1.1110 -0.6751  0.2357
13414TIP3   OH261656   3.457   3.434  15.228  0.6464  0.2732  0.6172
13414TIP3    H161657   3.375   3.387  15.237  0.1459  1.1479  0.7007
13414TIP3    H261658   3.489   3.443  15.318  0.1857  1.0551  0.7090
13415TIP3   OH261659   0.651   6.680   0.861  0.3731  0.3396  0.0260
13415TIP3    H161660   0.732   6.629   0.856  1.3427  1.8411 -0.1708
13415TIP3    H261661   0.678   6.767   0.891 -0.9236  1.3674 -1.5738
13416TIP3   OH261662   0.143   0.706   2.016 -0.3769 -0.8586  0.2086
13416TIP3    H161663   0.065   0.721   2.070  0.6374  0.4691  1.3548
13416TIP3    H261664   0.164   0.792   1.981  0.1053 -1.3695 -0.7754
13417TIP3   OH261665   5.624   5.095  13.479 -0.3733  0.0444 -0.3605
13417TIP3    H161666   5.697   5.120  13.423 -0.1177 -1.3403 -0.6891
13417TIP3    H261667   5.568   5.041  13.423 -0.9177 -0.0837  0.2866
13418TIP3   OH261668   2.570   4.011  16.715  0.0449 -0.0347  0.5593
13418TIP3    H161669   2.538   4.036  16.628  0.4756 -0.9394  0.1226
13418TIP3    H261670   2.491   3.991  16.765 -0.2326  1.0213  0.5537
13419TIP3   OH261671   3.787   1.951  16.087  0.4688  0.2191 -0.1938
13419TIP3    H161672   3.742   1.944  16.003 -0.7859  0.1956  0.4681
13419TIP3    H261673   3.778   2.043  16.112 -0.2544 -0.0216  0.4882
13420TIP3   OH261674   5.220   2.859   2.385  0.5152 -0.3191  0.0237
13420TIP3    H161675   5.134   2.889   2.415  0.2796  0.2305 -1.1412
13420TIP3    H261676   5.219   2.764   2.399 -1.7137 -0.9548 -3.1813
13421TIP3   OH261677   5.229   3.050  16.278 -0.4569  0.4042  0.0153
13421TIP3    H161678   5.227   3.072  16.185  1.5263  0.9081  0.0544
13421TIP3    H261679   5.315   3.009  16.291 -0.8952 -0.0998  1.5408
13422TIP3   OH261680   5.182   1.034  12.467  0.1265  0.6214  0.3724
13422TIP3    H161681   5.158   0.976  12.395  1.1712  1.5553 -0.7790
13422TIP3    H261682   5.254   1.087  12.432  2.1135 -0.3029  2.7870
13423TIP3   OH261683   4.129   2.251  14.490 -0.0982 -0.0943 -0.5761
13423TIP3    H161684   4.130   2.167  14.536 -0.2115  0.1495 -0.1291
13423TIP3    H261685   4.166   2.313  14.552  0.1825  0.1532 -0.9819
13424TIP3   OH261686   2.271   1.370   5.645 -0.1124 -0.6512 -0.1790
13424TIP3    H161687   2.218   1.331   5.575  0.1490 -0.0585 -0.7169
13424TIP3    H261688   2.230   1.340   5.726 -0.4065 -1.3655 -0.5894
13425TIP3   OH261689   4.386   6.655   0.865  0.3872  0.1246  0.5829
13425TIP3    H161690   4.475   6.621   0.876 -0.0313 -1.3039 -0.2223
13425TIP3    H261691   4.350   6.606   0.791 -0.0904  2.7397 -1.0642
13426TIP3   OH261692   2.285   6.615  16.895 -0.5480  0.1317  0.3402
13426TIP3    H161693   2.227   6.686  16.867 -2.6716 -1.2052  1.1345
13426TIP3    H261694   2.267   6.544  16.834 -2.2891 -1.4248  2.4935
13427TIP3   OH261695   2.504   0.305   1.726  0.0241 -0.3553  0.3626
13427TIP3    H161696   2.442   0.378   1.725 -1.9555 -1.9641 -0.7105
13427TIP3    H261697   2.561   0.324   1.800  0.1337  2.6875 -0.3548
13428TIP3   OH261698   1.693   2.551   5.679 -0.1541 -0.3858  0.4332
13428TIP3    H161699   1.758   2.572   5.745 -1.5404  0.2529  1.6503
13428TIP3    H261700   1.648   2.634   5.661  0.8152 -0.3095 -2.0765
13429TIP3   OH261701   2.610   4.257   4.042 -0.2418  0.6951 -0.6697
13429TIP3    H161702   2.678   4.259   4.109 -1.0537 -0.8675  0.2615
13429TIP3    H261703   2.544   4.197   4.077 -1.2639  0.7907 -2.3435
13430TIP3   OH261704   6.194   4.060  11.668  0.6447  0.2468 -0.0892
13430TIP3    H161705   6.275   4.071  11.620 -0.4624  2.0064 -1.7051
13430TIP3    H261706   6.132   4.025  11.604  0.4787 -2.7778  1.5475
13431TIP3   OH261707   3.829   3.523   2.352 -0.1793  0.4244 -0.1911
13431TIP3    H161708   3.776   3.463   2.301  1.1846 -0.8106 -0.2131
13431TIP3    H261709   3.878   3.573   2.286  0.3950 -0.0584 -0.1370
13432TIP3   OH261710   6.698   4.641   5.821  0.4117 -0.2411  0.3875
13432TIP3    H161711   6.764   4.582   5.859  0.4248 -0.7122 -0.3545
13432TIP3    H261712   6.696   4.619   5.728  1.9455  2.3808 -0.3629
13433TIP3   OH261713   5.956   0.840  14.148 -0.5464  0.4590  0.0122
13433TIP3    H161714   5.866   0.834  14.180 -0.2440 -0.0691  0.7937
13433TIP3    H261715   6.007   0.868  14.224  0.1540 -0.6147 -0.0431
13434TIP3   OH261716   4.570   0.269   4.213 -0.3784 -0.6696  0.3471
13434TIP3    H161717   4.570   0.269   4.309  0.0646 -0.8826  0.3508
13434TIP3    H261718   4.480   0.291   4.189 -1.0684 -2.7814  0.8127
13435TIP3   OH261719   4.010   2.009   6.385 -0.1705 -0.3493 -0.2162
13435TIP3    H161720   3.958   2.075   6.340  0.0980  0.4918  0.6670
13435TIP3    H261721   3.950   1.936   6.398 -0.3975 -0.4002 -1.4365
13436TIP3   OH261722   1.348   2.746  12.518  0.0412  0.4732  0.3345
13436TIP3    H161723   1.340   2.773  12.609  1.1084 -0.5350  0.7542
13436TIP3    H261724   1.377   2.825  12.472 -1.5537  1.2685  0.6553
13437TIP3   OH261725   3.549   5.803  12.819  0.0730 -0.5789  0.6290
13437TIP3    H161726   3.565   5.803  12.725  0.0166 -0.0019  0.6123
13437TIP3    H261727   3.481   5.737  12.832 -1.7942  1.0939 -0.0867
13438TIP3   OH261728   3.263   4.610   0.278 -0.3038 -0.0864 -0.7042
13438TIP3    H161729   3.308   4.656   0.350 -1.2596  0.3997 -0.4078
13438TIP3    H261730   3.328   4.608   0.208  1.2496 -1.9760  0.6687
13439TIP3   OH261731   1.333   4.400  14.472  0.1734 -0.0525  0.1942
13439TIP3    H161732   1.260   4.407  14.410 -0.2924 -1.4734  0.5566
13439TIP3    H261733   1.411   4.396  14.416 -0.0667  0.6924 -0.2158
13440TIP3   OH261734   6.629   4.764  12.354 -0.1765  0.0796  0.0346
13440TIP3    H161735   6.669   4.677  12.354  0.4338  0.3504 -1.0480
13440TIP3    H261736   6.703   4.824  12.354 -0.5313  0.5879 -2.0463
13441TIP3   OH261737   5.567   2.317   3.075 -0.1253  0.7655 -0.6847
13441TIP3    H161738   5.485   2.343   3.034 -0.1034  1.3348 -0.3880
13441TIP3    H261739   5.565   2.222   3.075 -0.8295  0.7747 -0.5954
13442TIP3   OH261740   4.123   2.837  12.489  0.1093 -0.1998  0.5211
13442TIP3    H161741   4.093   2.750  12.463  1.1746 -0.0254 -1.5572
13442TIP3    H261742   4.044   2.882  12.519 -0.9171 -1.0912 -0.7373
13443TIP3   OH261743   0.808   0.392  12.926 -0.4309 -0.2672  0.0529
13443TIP3    H161744   0.873   0.461  12.935  0.4554 -1.1461  0.5840
13443TIP3    H261745   0.736   0.419  12.982  0.2652 -0.1670  0.9290
13444TIP3   OH261746   1.640   5.427  14.460 -0.4639 -0.1884 -0.0299
13444TIP3    H161747   1.564   5.454  14.511  0.1317 -0.4437  1.0168
13444TIP3    H261748   1.675   5.509  14.423 -0.3465  0.1165  0.7536
13445TIP3   OH261749   1.464   2.220   1.826 -0.7040 -0.5951  0.2924
13445TIP3    H161750   1.377   2.201   1.792  0.7165 -2.1115 -2.8779
13445TIP3    H261751   1.512   2.138   1.817  1.5062  0.5935  0.4638
13446TIP3   OH261752   1.403   1.748   3.755  0.8145  0.3756 -0.4134
13446TIP3    H161753   1.417   1.820   3.817  0.1753 -0.9359  1.3401
13446TIP3    H261754   1.310   1.727   3.763  1.6694 -3.4139  2.4558
13447TIP3   OH261755   5.129   2.576  13.384 -0.1411  0.2992  0.0168
13447TIP3    H161756   5.072   2.499  13.393 -0.3222  0.2772 -1.1508
13447TIP3    H261757   5.074   2.641  13.341  0.1035  0.9949  0.7355
13448TIP3   OH261758   1.429   0.214  14.752  0.6247  0.0949  0.2353
13448TIP3    H161759   1.520   0.227  14.779  0.1878 -1.2863  2.6823
13448TIP3    H261760   1.392   0.159  14.821 -1.5345 -1.0878 -1.7481
13449TIP3   OH261761   0.443   5.950   3.750  0.3026  0.7971  0.2449
13449TIP3    H161762   0.349   5.970   3.755  0.4195  1.4451  0.0638
13449TIP3    H261763   0.470   5.935   3.840 -0.4348 -1.7374  0.1136
13450TIP3   OH261764   2.205   5.054  17.110  0.4944  0.3603 -0.3316
13450TIP3    H161765   2.131   5.000  17.083 -1.1732  0.9932  2.5505
13450TIP3    H261766   2.171   5.144  17.106 -0.1236  0.5288  3.7693
13451TIP3   OH261767   6.648   4.430  12.328 -0.3495  0.7105 -0.6431
13451TIP3    H161768   6.562   4.392  12.310 -0.6504  1.7687 -1.5930
13451TIP3    H261769   6.682   4.380  12.403 -1.5752 -0.0320 -0.5576
13452TIP3   OH261770   5.329   1.278   5.833 -0.6582 -0.1475  0.0787
13452TIP3    H161771   5.379   1.324   5.765 -0.6005 -0.4312 -0.0695
13452TIP3    H261772   5.369   1.307   5.915 -1.2038  0.7828  0.0398
13453TIP3   OH261773   2.324   0.469   5.715  0.0260 -0.6008 -0.2405
13453TIP3    H161774   2.400   0.447   5.769  1.0387 -1.7843 -2.0697
13453TIP3    H261775   2.307   0.390   5.664 -1.5853  0.1106 -0.8809
13454TIP3   OH261776   2.027   6.270  15.795 -0.1357  0.3082  0.4500
13454TIP3    H161777   2.097   6.333  15.808  0.3532 -0.2851  0.6986
13454TIP3    H261778   2.056   6.191  15.839 -2.0151  0.7667  2.7470
13455TIP3   OH261779   5.210   3.360  13.786  0.2156  0.2372 -0.3853
13455TIP3    H161780   5.145   3.315  13.841  0.6705 -1.4543 -1.1519
13455TIP3    H261781   5.288   3.365  13.841 -0.3942  1.9069  0.3922
13456TIP3   OH261782   2.128   0.779   1.027 -0.1812 -0.3202  0.6394
13456TIP3    H161783   2.182   0.858   1.021 -2.9714  1.6776  0.4647
13456TIP3    H261784   2.119   0.749   0.936 -0.2018 -0.0953  0.5677
13457TIP3   OH261785   0.003   6.149  16.010  0.0022 -0.0771 -0.1753
13457TIP3    H161786  -0.072   6.097  15.984 -1.2665  0.9512  1.2593
13457TIP3    H261787  -0.035   6.230  16.045  1.7449  0.2327  1.1103
13458TIP3   OH261788   4.799   0.530  13.851  0.1459 -0.1565  0.0750
13458TIP3    H161789   4.732   0.473  13.888  1.3956 -1.6587  0.1206
13458TIP3    H261790   4.882   0.490  13.876  1.0614  0.3736 -1.8719
13459TIP3   OH261791   1.499   2.843   4.935  0.3487  0.3858 -0.8322
13459TIP3    H161792   1.537   2.901   5.001 -0.6283  2.9398 -2.3778
13459TIP3    H261793   1.416   2.884   4.912 -0.9187 -2.2462 -1.3057
13460TIP3   OH261794   1.209   1.640   5.750 -0.2963 -0.4087 -0.2404
13460TIP3    H161795   1.284   1.692   5.778  0.2375 -0.4168 -1.5683
13460TIP3    H261796   1.181   1.593   5.828  1.3285 -0.6858  0.2033
13461TIP3   OH261797   4.229   0.344   5.683  0.1538 -0.4237 -0.1435
13461TIP3    H161798   4.157   0.400   5.712 -0.0361 -0.3334 -0.7639
13461TIP3    H261799   4.308   0.388   5.714 -0.0819 -1.0560  1.4437
13462TIP3   OH261800   2.882   6.441  13.328  0.5027 -0.2237 -0.2167
13462TIP3    H161801   2.932   6.379  13.275  0.3136 -2.2809  1.8465
13462TIP3    H261802   2.791   6.429  13.300  0.4589 -0.9497  0.2264
13463TIP3   OH261803   4.187   6.107   4.831 -0.1797  0.2460  0.0582
13463TIP3    H161804   4.247   6.163   4.880  2.4127 -2.8668  0.8663
13463TIP3    H261805   4.217   6.113   4.740  1.5765 -1.3411  0.4671
13464TIP3   OH261806   0.311   6.375   6.139  0.0594 -0.2859  0.4151
13464TIP3    H161807   0.237   6.314   6.149 -0.3980  0.3361  0.8831
13464TIP3    H261808   0.375   6.325   6.089  0.0334 -1.4644  1.4836
13465TIP3   OH261809   5.077   1.970  10.760 -0.3503  0.1612 -0.4743
13465TIP3    H161810   5.163   1.982  10.721  0.0080  2.2302  0.7495
13465TIP3    H261811   5.017   1.964  10.686  0.5159  1.9393 -1.3803
13466TIP3   OH261812   0.680   5.127  13.114  0.1652 -0.1707  0.4634
13466TIP3    H161813   0.671   5.087  13.200  1.6710 -1.3516  0.1362
13466TIP3    H261814   0.592   5.156  13.091 -0.6678 -1.7286  1.5022
13467TIP3   OH261815   6.535   3.068   3.255 -0.1269 -0.1689 -0.4481
13467TIP3    H161816   6.501   3.117   3.180 -0.6443  0.9069  0.4418
13467TIP3    H261817   6.461   3.015   3.284 -0.4849  0.7081  0.3100
13468TIP3   OH261818   6.654   0.607   6.268 -0.5926  0.2714 -0.4487
13468TIP3    H161819   6.641   0.682   6.326 -1.8212 -1.1034  1.1729
13468TIP3    H261820   6.578   0.610   6.209 -0.9787 -0.0177  0.0220
13469TIP3   OH261821   5.836   0.632  12.026  0.1054  0.1846  0.3104
13469TIP3    H161822   5.818   0.558  12.084 -0.1090  0.3651  0.4729
13469TIP3    H261823   5.835   0.709  12.083  2.0926  0.1481  0.4689
13470TIP3   OH261824   6.704   0.772   0.751 -0.2076  0.7517  0.1407
13470TIP3    H161825   6.757   0.826   0.810  0.5493 -0.1547  0.3070
13470TIP3    H261826   6.766   0.744   0.683 -0.2974 -0.8739  0.7034
13471TIP3   OH261827   3.796   2.348  14.547  0.0957 -0.1306  0.5848
13471TIP3    H161828   3.847   2.308  14.617  0.7765 -1.5741 -0.6921
13471TIP3    H261829   3.851   2.420  14.515  1.3307 -1.5378 -0.6368
13472TIP3   OH261830   5.181   5.700   3.010 -0.1707 -0.0707 -0.5183
13472TIP3    H161831   5.194   5.795   3.004 -0.0288 -0.1665 -2.3968
13472TIP3    H261832   5.246   5.671   3.074 -1.1557  1.2406  1.1458
13473TIP3   OH261833   0.123   0.645  12.853  0.5838  0.0421 -0.1796
13473TIP3    H161834   0.199   0.645  12.796 -0.0960 -0.5327 -1.1139
13473TIP3    H261835   0.099   0.553  12.863 -0.2522  0.2335 -0.2855
13474TIP3   OH261836   1.220   5.544  10.678 -0.0855 -0.4039 -0.0063
13474TIP3    H161837   1.164   5.619  10.697 -0.4197 -0.4399 -0.8248
13474TIP3    H261838   1.233   5.547  10.583 -1.6907 -2.4858 -0.3544
13475TIP3   OH261839   6.310   6.416   1.145 -0.1194 -0.0743  0.0185
13475TIP3    H161840   6.217   6.432   1.127 -0.3842 -1.0323  0.5054
13475TIP3    H261841   6.311   6.368   1.227  0.7062 -1.4294 -0.7424
13476TIP3   OH261842   5.369   2.594   2.592 -0.1425  0.0440  0.4253
13476TIP3    H161843   5.446   2.571   2.540 -0.1971  1.1064 -0.1418
13476TIP3    H261844   5.396   2.670   2.644 -1.5905  2.2654 -1.8658
13477TIP3   OH261845   2.905   1.829   5.103  0.2532 -0.3848 -0.0319
13477TIP3    H161846   2.906   1.915   5.061  1.8755 -0.3922 -0.0896
13477TIP3    H261847   2.851   1.840   5.181  0.6003  0.7417  0.0614
13478TIP3   OH261848   2.261   1.618   3.763 -0.4030  0.1862  0.0870
13478TIP3    H161849   2.201   1.693   3.753  0.2377  0.5779 -1.0648
13478TIP3    H261850   2.321   1.645   3.832  2.1862  2.4764 -2.7595
13479TIP3   OH261851   5.528   3.951   1.566 -0.3383  0.4425 -0.0539
13479TIP3    H161852   5.454   3.990   1.518 -0.5879  2.1967  1.6459
13479TIP3    H261853   5.519   3.985   1.655  1.8894 -0.2046  0.4646
13480TIP3   OH261854   6.759   4.979  11.363  0.4380 -0.0264 -0.2113
13480TIP3    H161855   6.816   4.995  11.438 -2.9696  0.9454  2.4123
13480TIP3    H261856   6.744   5.066  11.326 -0.5606 -0.0315  0.1512
13481TIP3   OH261857   4.192   5.047  12.617  0.0620 -0.1589  0.0436
13481TIP3    H161858   4.285   5.024  12.618 -0.0601 -0.6674  0.4898
13481TIP3    H261859   4.191   5.140  12.595  0.7316  0.0755  0.8947
13482TIP3   OH261860   0.330   6.226   5.747  0.1538  0.2390  0.0377
13482TIP3    H161861   0.360   6.173   5.821 -0.2345 -0.2541 -0.1522
13482TIP3    H261862   0.336   6.316   5.778  1.2239  0.1171  0.2183
13483TIP3   OH261863   1.819   2.098   1.409 -0.7780 -0.5985  0.5840
13483TIP3    H161864   1.799   2.116   1.317 -1.0620  0.9985  0.9238
13483TIP3    H261865   1.779   2.170   1.456  1.1143 -0.2716  1.7848
13484TIP3   OH261866   1.117   5.586   1.909  0.1405 -0.1275 -0.3126
13484TIP3    H161867   1.191   5.550   1.860 -0.0925 -1.0738  0.0102
13484TIP3    H261868   1.157   5.630   1.984  0.5944  2.3737 -1.8809
13485TIP3   OH261869   4.718   1.354  12.709  0.2840  0.2905  0.5285
13485TIP3    H161870   4.654   1.332  12.641 -0.2563  2.3346  0.3310
13485TIP3    H261871   4.666   1.367  12.788  0.6698  0.1161  0.8173
13486TIP3   OH261872   5.586   4.057  14.823 -0.2136 -0.2933  0.2607
13486TIP3    H161873   5.620   4.050  14.912  0.2810  1.1344  0.2058
13486TIP3    H261874   5.527   4.133  14.825 -1.3935 -1.1527 -0.2823
13487TIP3   OH261875   0.022   0.076  15.116 -0.3032  0.6300  0.4343
13487TIP3    H161876  -0.026   0.028  15.183 -0.0056  2.3034  1.9482
13487TIP3    H261877   0.099   0.109  15.162  1.7905 -1.0372 -1.6311
13488TIP3   OH261878   2.134   3.007  13.672  0.5545  0.2410 -0.0561
13488TIP3    H161879   2.207   3.032  13.729  1.1333 -0.0919 -0.6377
13488TIP3    H261880   2.159   2.921  13.638 -0.4273 -0.1853  0.2602
13489TIP3   OH261881   4.545   4.691  16.033  0.0699 -0.4806  0.2909
13489TIP3    H161882   4.515   4.606  16.066  0.7578 -0.2857  1.4688
13489TIP3    H261883   4.529   4.752  16.106  4.0124 -0.4970  1.3891
13490TIP3   OH261884   1.414   6.261   4.920 -0.5566  0.3611  0.3641
13490TIP3    H161885   1.490   6.286   4.868 -1.0109 -0.4764 -0.7335
13490TIP3    H261886   1.374   6.344   4.945  0.6131  0.8120  0.8201
13491TIP3   OH261887   4.831   2.997   5.367 -0.4507  0.0304  0.3878
13491TIP3    H161888   4.792   2.925   5.317  0.2514 -0.0808 -0.0080
13491TIP3    H261889   4.909   3.022   5.318 -0.3354  0.6418  0.8615
13492TIP3   OH261890   5.825   5.928  16.816  0.6668  0.3722  0.6044
13492TIP3    H161891   5.773   5.995  16.771  0.6670 -0.2365 -0.3437
13492TIP3    H261892   5.765   5.889  16.879  0.7067  1.3483  1.2616
13493TIP3   OH261893   1.404   4.205   5.147 -0.3785 -0.6230  0.6156
13493TIP3    H161894   1.346   4.181   5.075  0.3739 -1.5283  0.2966
13493TIP3    H261895   1.402   4.300   5.149  0.6738 -0.4989 -1.5196
13494TIP3   OH261896   0.953   0.295  15.170  0.0845 -0.5873  0.4528
13494TIP3    H161897   0.890   0.367  15.177 -0.7799 -1.4205  1.6647
13494TIP3    H261898   0.904   0.225  15.128 -0.2037 -1.6209  2.4020
13495TIP3   OH261899   0.332   2.578  14.268  0.6478 -0.6218  0.5789
13495TIP3    H161900   0.299   2.554  14.181 -0.7210  1.1724  0.5355
13495TIP3    H261901   0.424   2.600  14.254  1.0673 -2.5203  0.0478
13496TIP3   OH261902   3.712   4.958  16.306  0.4502  0.3294 -0.0770
13496TIP3    H161903   3.802   4.978  16.280 -0.2466  3.4582 -0.5281
13496TIP3    H261904   3.714   4.963  16.402  0.6926  0.7787 -0.1012
13497TIP3   OH261905   0.298   1.966   3.324 -0.0421 -0.3251  0.5224
13497TIP3    H161906   0.390   1.984   3.302  0.3374  1.1441  3.0144
13497TIP3    H261907   0.269   2.044   3.371 -3.1250 -0.0468 -1.5915
13498TIP3   OH261908   4.549   6.413   3.229  0.5946 -0.6745  0.2787
13498TIP3    H161909   4.598   6.471   3.170  0.7056 -0.2555  0.7791
13498TIP3    H261910   4.461   6.451   3.232  0.5396 -0.7981  0.2427
13499TIP3   OH261911   2.708   2.246  12.793  0.7377  0.0842  0.1898
13499TIP3    H161912   2.759   2.244  12.874 -1.1569  1.3146  1.4987
13499TIP3    H261913   2.733   2.328  12.752  0.6627  0.1384  0.2512
13500TIP3   OH261914   0.759   3.073   3.941  0.2330 -0.7315 -0.1320
13500TIP3    H161915   0.682   3.109   3.897  1.3097 -0.7003 -2.0828
13500TIP3    H261916   0.785   2.998   3.887  2.3077  0.0241 -0.2746
13501TIP3   OH261917   2.077   3.271  16.352  0.7702 -0.0872 -0.3019
13501TIP3    H161918   2.158   3.310  16.318  0.5291 -0.0641 -0.8612
13501TIP3    H261919   2.013   3.284  16.282 -0.3617  1.9454  1.0008
13502TIP3   OH261920   6.715   6.713  12.829  0.2432  0.4485 -0.1854
13502TIP3    H161921   6.796   6.676  12.865  0.2072  1.4033  0.9546
13502TIP3    H261922   6.686   6.776  12.896 -1.5286  0.0137 -0.5008
13503TIP3   OH261923   3.255   1.934  12.732 -0.0729 -0.9765  0.0862
13503TIP3    H161924   3.286   1.896  12.814 -1.1299  0.1024  1.0327
13503TIP3    H261925   3.334   1.949  12.681  0.6479 -1.3206  1.0770
13504TIP3   OH261926   1.647   5.472   2.450 -0.1225  0.7678  0.3879
13504TIP3    H161927   1.693   5.424   2.381 -0.4470  2.4276 -1.0563
13504TIP3    H261928   1.705   5.544   2.472 -0.2790  0.5810  1.4916
13505TIP3   OH261929   0.994   4.029  15.619 -0.0267 -0.3052 -0.6139
13505TIP3    H161930   0.978   4.055  15.710 -0.2951  2.2132 -1.3052
13505TIP3    H261931   1.073   3.975  15.623 -0.7573 -1.3316  1.2264
13506TIP3   OH261932   2.042   2.017   1.549 -0.2641 -0.0269  0.1761
13506TIP3    H161933   1.987   2.002   1.472  0.3861 -0.1322 -0.2783
13506TIP3    H261934   1.980   2.025   1.622 -0.9603  1.1150 -0.5044
13507TIP3   OH261935   1.001   6.043  14.725 -0.0800 -0.1528 -0.8682
13507TIP3    H161936   1.072   6.054  14.663  1.2425 -0.7947  0.4761
13507TIP3    H261937   0.928   6.010  14.672  1.7106 -3.0518 -1.7935
13508TIP3   OH261938   1.489   2.710  11.923 -0.1840  0.2392 -0.2111
13508TIP3    H161939   1.575   2.717  11.964  0.4860 -0.3134 -1.4508
13508TIP3    H261940   1.440   2.650  11.980  0.8239 -0.7675 -0.3568
13509TIP3   OH261941   5.267   0.390   2.491 -0.1793  0.0408  0.3311
13509TIP3    H161942   5.247   0.300   2.467  0.4102 -0.2941  1.0608
13509TIP3    H261943   5.340   0.383   2.552 -1.2609  0.8862  1.8008
13510TIP3   OH261944   2.728   1.058  15.800  0.3403 -0.1294  0.0215
13510TIP3    H161945   2.666   0.993  15.768 -0.3862  0.4052  0.3080
13510TIP3    H261946   2.751   1.028  15.888  0.2196 -0.1517  0.0461
13511TIP3   OH261947   6.003   0.748  17.203 -0.1844  0.2931 -0.3375
13511TIP3    H161948   6.082   0.759  17.150  0.3484 -1.1181  0.1314
13511TIP3    H261949   6.015   0.809  17.276 -1.2828  2.8452 -2.1525
13512TIP3   OH261950   3.339   3.744   2.264 -0.2919 -0.0526  0.3318
13512TIP3    H161951   3.324   3.738   2.170 -0.0627 -0.1873  0.3017
13512TIP3    H261952   3.430   3.775   2.272  0.1798 -1.3954  0.5003
13513TIP3   OH261953   1.600   3.948   0.136  0.0659 -0.5297  0.0121
13513TIP3    H161954   1.663   3.881   0.108  1.6874  1.6507 -1.9426
13513TIP3    H261955   1.631   3.975   0.222  1.4439  0.0127 -0.6191
13514TIP3   OH261956   2.618   0.581  13.799 -0.1029  0.1913  0.1524
13514TIP3    H161957   2.633   0.531  13.719 -0.9828  0.1587 -0.0023
13514TIP3    H261958   2.545   0.639  13.778 -0.1966  0.3437  0.8604
13515TIP3   OH261959   4.463   2.646  16.652 -0.0464 -0.7892  0.1665
13515TIP3    H161960   4.505   2.657  16.566  0.3522  0.1500  0.4740
13515TIP3    H261961   4.534   2.658  16.715 -0.3863 -1.2302  0.6433
13516TIP3   OH261962   5.281   3.134   5.520  0.4413  0.1022  0.3339
13516TIP3    H161963   5.318   3.130   5.431  2.2387  2.9153  0.8357
13516TIP3    H261964   5.281   3.043   5.549  3.1466 -0.5730 -1.3183
13517TIP3   OH261965   6.669   2.342   4.945  0.1079  0.5996  0.5846
13517TIP3    H161966   6.670   2.434   4.969 -0.9063  0.2415  2.1569
13517TIP3    H261967   6.629   2.298   5.020  1.3839 -1.2339  0.2667
13518TIP3   OH261968   2.139   4.958  11.506  0.0744 -0.5660 -0.4762
13518TIP3    H161969   2.103   4.953  11.594  0.3152 -0.9361 -0.3940
13518TIP3    H261970   2.147   5.052  11.488  1.8122 -0.4462  0.6425
13519TIP3   OH261971   3.510   4.514   2.811 -0.3266  0.0904 -0.2459
13519TIP3    H161972   3.427   4.469   2.795 -1.5338  0.1790  4.1969
13519TIP3    H261973   3.493   4.604   2.784 -1.4799 -0.0484 -0.0744
13520TIP3   OH261974   2.850   3.359   5.449  0.3186 -0.1409  0.9360
13520TIP3    H161975   2.860   3.337   5.541  0.0328 -0.1686  0.9622
13520TIP3    H261976   2.876   3.450   5.443  1.2987 -0.4186  0.8659
13521TIP3   OH261977   1.801   6.203   1.381 -0.2476  0.1758  0.1389
13521TIP3    H161978   1.735   6.247   1.327  0.8086  1.0879 -0.4828
13521TIP3    H261979   1.789   6.240   1.468  0.3874  1.4944 -0.2966
13522TIP3   OH261980   6.392   1.849  14.934  0.2161  0.0916 -0.3015
13522TIP3    H161981   6.481   1.825  14.958 -0.2487 -0.9263  0.4819
13522TIP3    H261982   6.376   1.803  14.851  0.8410  1.3338 -1.1577
13523TIP3   OH261983   5.037   3.081   2.188  0.0621 -0.1145 -0.3535
13523TIP3    H161984   5.000   3.169   2.188 -0.1408 -0.1903  0.6181
13523TIP3    H261985   5.016   3.046   2.274 -2.0942 -2.0697 -1.5675
13524TIP3   OH261986   2.337   6.406  13.196  0.1857 -0.1285  0.3397
13524TIP3    H161987   2.305   6.316  13.195 -1.0403  0.2190 -2.7633
13524TIP3    H261988   2.262   6.458  13.167  1.8641  1.4249 -1.5139
13525TIP3   OH261989   6.404   0.369  15.630 -0.1473 -0.4513  0.4279
13525TIP3    H161990   6.491   0.405  15.645  0.1857 -1.0624  0.0099
13525TIP3    H261991   6.345   0.444  15.635  0.5889  0.2657 -1.0160
13526TIP3   OH261992   4.275   5.643   5.318  0.2314 -0.3150 -0.4409
13526TIP3    H161993   4.245   5.682   5.400 -1.5064 -1.6741 -0.3545
13526TIP3    H261994   4.302   5.555   5.342  0.2436 -0.5350 -1.2288
13527TIP3   OH261995   5.752   0.807  14.340 -0.1101  0.1387  0.2896
13527TIP3    H161996   5.683   0.873  14.329  0.0396  0.1303 -0.8474
13527TIP3    H261997   5.733   0.742  14.272 -0.3507 -1.0915  1.4808
13528TIP3   OH261998   6.485   5.512   0.742 -0.0331  0.4992  0.0223
13528TIP3    H161999   6.445   5.489   0.826 -0.4673 -0.4483 -0.4381
13528TIP3    H262000   6.560   5.454   0.734 -1.8736 -1.8286 -1.7419
13529TIP3   OH262001   6.311   2.455   5.794  0.3194  0.3836 -0.0028
13529TIP3    H162002   6.307   2.369   5.752  0.5202  0.6515 -0.5872
13529TIP3    H262003   6.297   2.517   5.722 -1.1265  0.8143  0.6072
13530TIP3   OH262004   2.010   6.182  14.606  0.2194  0.3781 -0.2668
13530TIP3    H162005   2.005   6.120  14.534  0.6597  0.3684 -0.2916
13530TIP3    H262006   1.973   6.135  14.681 -2.2551  1.1247 -0.9546
13531TIP3   OH262007   2.182   6.449   0.367 -0.8170 -0.0982 -0.1003
13531TIP3    H162008   2.090   6.471   0.383 -1.3646  0.1882 -3.0966
13531TIP3    H262009   2.224   6.532   0.347 -0.0449 -0.3330  0.4794
13532TIP3   OH262010   0.237   5.494   2.767 -0.2387  0.0878 -0.1769
13532TIP3    H162011   0.311   5.437   2.745 -2.2406 -2.3177 -1.1716
13532TIP3    H262012   0.187   5.444   2.832 -0.8397  1.8230  0.7656
13533TIP3   OH262013   2.224   6.712   4.531  0.4048  0.1967 -0.4259
13533TIP3    H162014   2.312   6.706   4.494  0.3895 -1.2693 -0.2836
13533TIP3    H262015   2.200   6.804   4.521  2.5050  0.9593  0.8378
13534TIP3   OH262016   1.937   1.617   3.942  0.0636  0.3529  0.4004
13534TIP3    H162017   1.889   1.680   3.889 -0.2635  1.0681  1.5040
13534TIP3    H262018   1.953   1.543   3.884  1.4390  1.8877 -1.2729
13535TIP3   OH262019   2.053   6.499  14.356  0.0187  0.1061 -0.8196
13535TIP3    H162020   1.983   6.469  14.298 -1.0292  0.0305  0.4328
13535TIP3    H262021   2.047   6.594  14.354 -0.4527  0.0939 -0.3548
13536TIP3   OH262022   5.685   2.631   5.873 -0.1978 -0.3505  0.3508
13536TIP3    H162023   5.722   2.628   5.961 -1.8972  0.0878  1.1240
13536TIP3    H262024   5.612   2.569   5.876 -1.2591  0.8348 -0.2455
13537TIP3   OH262025   5.595   6.518  13.839  0.2280  0.4372  0.0131
13537TIP3    H162026   5.581   6.434  13.794 -0.0012  0.8702 -0.7337
13537TIP3    H262027   5.522   6.525  13.900 -0.5328  0.7365 -0.9136
13538TIP3   OH262028   2.856   3.428  13.493 -0.0160 -0.1882  0.1773
13538TIP3    H162029   2.872   3.522  13.507  3.0091 -0.6867  0.6860
13538TIP3    H262030   2.851   3.392  13.581  0.1723 -0.6814 -0.0139
13539TIP3   OH262031   0.174   0.602   1.479 -0.0025  0.4113  0.0167
13539TIP3    H162032   0.210   0.652   1.552  2.6331 -0.0944 -0.8142
13539TIP3    H262033   0.148   0.669   1.415 -0.9222  0.8113  0.7972
13540TIP3   OH262034   3.837   4.529  16.967 -0.1575 -0.1339  0.7228
13540TIP3    H162035   3.831   4.512  17.061 -0.8805 -1.0265  0.5252
13540TIP3    H262036   3.786   4.460  16.927 -1.0358  1.0555 -0.2712
13541TIP3   OH262037   2.415   6.277  15.369 -0.3343  0.0433 -0.2238
13541TIP3    H162038   2.332   6.268  15.322  0.1370 -0.0878 -1.0580
13541TIP3    H262039   2.396   6.338  15.440 -1.0713  0.2458 -0.5839
13542TIP3   OH262040   4.049   3.256  12.661 -0.0719 -0.0008  0.0686
13542TIP3    H162041   3.983   3.325  12.657 -0.6200 -0.5555 -0.9583
13542TIP3    H262042   3.999   3.175  12.667  0.5596 -0.3314  1.1487
13543TIP3   OH262043   5.582   1.261  13.507 -0.6419  0.3421 -0.2201
13543TIP3    H162044   5.537   1.317  13.444 -1.2208  0.5871  0.3928
13543TIP3    H262045   5.573   1.307  13.590  0.9301  0.4859 -0.1027
13544TIP3   OH262046   2.473   3.855  13.451  0.2094  0.3607 -0.0425
13544TIP3    H162047   2.390   3.897  13.426 -0.2747 -0.1671  0.6383
13544TIP3    H262048   2.504   3.907  13.525 -0.0869 -0.1214  0.4202
13545TIP3   OH262049   2.597   2.158   6.304  0.0104 -0.4318  0.3373
13545TIP3    H162050   2.510   2.197   6.307  0.2622  0.2189 -0.3990
13545TIP3    H262051   2.587   2.080   6.249 -0.2833 -0.8566  0.9807
13546TIP3   OH262052   4.142   4.394   6.854 -0.2281  0.0383 -0.1623
13546TIP3    H162053   4.074   4.331   6.877  0.4857 -0.4388  0.6621
13546TIP3    H262054   4.098   4.454   6.792 -1.6056  0.1600  0.8688
13547TIP3   OH262055   0.628   1.045  12.055  0.2344 -0.1612  0.7431
13547TIP3    H162056   0.647   0.985  11.983  1.2884  0.1899  0.7141
13547TIP3    H262057   0.714   1.065  12.092 -0.0807  1.4688  0.6489
13548TIP3   OH262058   5.777   3.048   5.676 -0.9376 -0.1812  0.1767
13548TIP3    H162059   5.872   3.064   5.671 -0.6652 -1.1113  1.5886
13548TIP3    H262060   5.759   2.988   5.604 -0.7470  1.0762 -0.9737
13549TIP3   OH262061   3.698   2.259   3.444 -0.0822 -0.4097  0.5826
13549TIP3    H162062   3.643   2.183   3.461  0.5163 -1.4223 -1.6266
13549TIP3    H262063   3.636   2.331   3.430 -0.6708 -0.6011  2.0076
13550TIP3   OH262064   2.769   3.440  10.996 -0.2223 -0.2371  0.1759
13550TIP3    H162065   2.751   3.516  11.050 -0.0555 -0.5038  0.6112
13550TIP3    H262066   2.690   3.427  10.944 -1.6126 -1.7774  2.5042
13551TIP3   OH262067   0.053   0.171  11.983  0.0780  0.3350 -0.1758
13551TIP3    H162068   0.127   0.145  11.928  0.6204 -1.9045  1.4528
13551TIP3    H262069   0.085   0.247  12.031  0.4734  0.7782 -1.1046
13552TIP3   OH262070   3.408   3.334   3.689 -0.3215  0.3601 -0.3689
13552TIP3    H162071   3.421   3.251   3.735  1.9358  0.8156 -0.0786
13552TIP3    H262072   3.319   3.328   3.655 -0.3060 -2.0961 -0.1860
13553TIP3   OH262073   3.596   5.766  12.133  0.3381  0.0356 -0.0925
13553TIP3    H162074   3.521   5.740  12.187  0.9103 -0.1806  0.6287
13553TIP3    H262075   3.612   5.690  12.076  1.9487 -1.2822  1.9485
13554TIP3   OH262076   4.286   2.564  16.963 -0.4147  0.4580  0.0412
13554TIP3    H162077   4.275   2.488  17.020 -1.0228  0.9737  0.6215
13554TIP3    H262078   4.205   2.569  16.913  0.5740 -0.6922 -1.7600
13555TIP3   OH262079   1.239   1.140  16.509  0.2905  0.1368 -0.2336
13555TIP3    H162080   1.226   1.233  16.493  0.4575  0.0991 -0.6030
13555TIP3    H262081   1.215   1.127  16.601  0.2693  0.5416 -0.1840
13556TIP3   OH262082   5.827   1.967  10.489  0.4349 -0.0624 -0.4312
13556TIP3    H162083   5.842   1.907  10.417 -0.2951 -0.5400 -0.1908
13556TIP3    H262084   5.735   1.992  10.481  0.2234 -0.4645  0.5839
13557TIP3   OH262085   1.998   4.158  12.344 -0.1967 -0.4782  0.4924
13557TIP3    H162086   2.024   4.180  12.433  0.2361  0.6294  0.0975
13557TIP3    H262087   2.030   4.068  12.331 -0.2749 -0.6496  1.4456
13558TIP3   OH262088   5.958   4.647  12.316  0.2116  0.2850 -0.0311
13558TIP3    H162089   5.878   4.643  12.368  1.2783 -1.3283  1.6385
13558TIP3    H262090   5.961   4.564  12.269  2.2559 -1.1205  2.2789
13559TIP3   OH262091   0.270   1.119  14.472 -0.1968 -0.8239 -0.0528
13559TIP3    H162092   0.280   1.078  14.558 -0.0738 -2.8633 -0.9876
13559TIP3    H262093   0.283   1.213  14.489  0.4876 -1.2339  2.0255
13560TIP3   OH262094   3.260   6.279   1.596 -0.3384 -0.0519  0.1807
13560TIP3    H162095   3.296   6.320   1.517 -1.4998  1.9894  0.6563
13560TIP3    H262096   3.165   6.288   1.586 -0.5166 -0.3605  1.5158
13561TIP3   OH262097   5.665   1.321   0.768 -0.2173  0.4540  0.0469
13561TIP3    H162098   5.729   1.262   0.808 -2.6803 -1.1109  1.9367
13561TIP3    H262099   5.659   1.291   0.677 -0.5536 -1.4897  0.6615
13562TIP3   OH262100   4.582   3.526  10.634  0.1520  0.2824  0.1863
13562TIP3    H162101   4.537   3.601  10.596 -1.1252 -0.0776  0.9040
13562TIP3    H262102   4.646   3.564  10.694 -0.5127  0.8084  0.5758
13563TIP3   OH262103   3.995   3.717   3.162 -0.4720 -0.0924 -0.5096
13563TIP3    H162104   3.926   3.713   3.096  0.5979 -0.8159 -1.6289
13563TIP3    H262105   3.971   3.649   3.226 -2.7521  2.1251  1.2057
13564TIP3   OH262106   6.364   6.310   1.405 -0.2912  0.3982 -0.1218
13564TIP3    H162107   6.414   6.253   1.463 -0.7018 -1.8058 -1.7931
13564TIP3    H262108   6.372   6.397   1.444  0.9988 -0.6479  2.1454
13565TIP3   OH262109   4.517   2.550   1.226  0.0298 -0.3560  0.5073
13565TIP3    H162110   4.531   2.612   1.297  0.2802 -0.0112  0.1581
13565TIP3    H262111   4.474   2.601   1.157  1.2824 -0.2617 -0.2422
13566TIP3   OH262112   4.806   2.176  17.288 -0.3203  0.4163  0.0808
13566TIP3    H162113   4.882   2.118  17.290 -0.3462  0.3803  0.0114
13566TIP3    H262114   4.826   2.239  17.219 -0.7396 -0.1121 -0.5232
13567TIP3   OH262115   6.733   1.526  16.050  0.1283  0.0638 -0.7000
13567TIP3    H162116   6.673   1.526  16.124  0.1986 -2.9306 -0.5228
13567TIP3    H262117   6.688   1.576  15.982 -0.7769  1.2241  0.7066
13568TIP3   OH262118   6.274   4.768  13.607 -0.1899  0.5862 -0.0035
13568TIP3    H162119   6.268   4.787  13.514 -0.7634  0.3415 -0.0219
13568TIP3    H262120   6.183   4.767  13.637  0.0105  1.0583  0.6400
13569TIP3   OH262121   4.177   3.083  14.220 -0.7087  0.7946 -0.0262
13569TIP3    H162122   4.160   3.005  14.168  0.3068  0.8565 -0.4716
13569TIP3    H262123   4.107   3.144  14.196 -0.3968  0.7312 -1.1616
13570TIP3   OH262124   5.550   6.749  16.863 -0.4165  0.2156 -0.0225
13570TIP3    H162125   5.479   6.767  16.925  0.5899  3.4213  0.3764
13570TIP3    H262126   5.602   6.681  16.906 -1.3948  0.2474  1.2763
13571TIP3   OH262127   3.800   2.571   1.645  0.2101 -0.0823  0.2273
13571TIP3    H162128   3.766   2.580   1.556  0.7516  0.0132  0.0228
13571TIP3    H262129   3.769   2.648   1.691  0.4988  0.2171 -0.0744
13572TIP3   OH262130   4.749   4.076   4.384 -0.3992 -0.1585  0.1202
13572TIP3    H162131   4.830   4.057   4.337  1.2463  0.6749  2.4150
13572TIP3    H262132   4.695   3.998   4.373  0.9743 -0.9923 -0.9772
13573TIP3   OH262133   1.775   3.455  16.117 -0.4983 -0.2662 -0.4617
13573TIP3    H162134   1.841   3.511  16.157 -1.2426  0.0778  0.2913
13573TIP3    H262135   1.816   3.368  16.113  0.7224  0.3201 -1.7827
13574TIP3   OH262136   5.810   1.600  11.056 -0.2318 -0.9592 -0.0942
13574TIP3    H162137   5.887   1.646  11.023 -1.5294  1.1915 -0.3141
13574TIP3    H262138   5.822   1.510  11.028  1.9116 -0.5673 -0.6146
13575TIP3   OH262139   2.197   2.484  14.022 -0.3271 -0.1335  0.0035
13575TIP3    H162140   2.218   2.533  13.942 -2.3186 -0.4066 -0.7485
13575TIP3    H262141   2.103   2.493  14.031 -0.1782 -0.2999  2.2467
13576TIP3   OH262142   5.789   2.561   6.969  0.2516 -0.0208 -0.2300
13576TIP3    H162143   5.821   2.603   6.889  2.1880 -2.7364 -0.9907
13576TIP3    H262144   5.857   2.580   7.034  0.7601 -1.2628 -0.3793
13577TIP3   OH262145   2.049   1.208   5.486  0.4393 -0.1638 -0.1998
13577TIP3    H162146   2.022   1.117   5.476  0.4138 -0.1289 -0.4677
13577TIP3    H262147   1.973   1.252   5.522  0.5794 -0.3238  0.2915
13578TIP3   OH262148   5.516   1.609   4.641 -0.5871 -0.3482 -0.1373
13578TIP3    H162149   5.446   1.615   4.576 -0.5425 -1.8203 -0.3618
13578TIP3    H262150   5.561   1.526   4.621  0.6316  0.1074  0.5844
13579TIP3   OH262151   0.680   5.487  15.136  0.2150 -0.0196 -0.0761
13579TIP3    H162152   0.664   5.437  15.217 -0.2872  2.4256  1.4553
13579TIP3    H262153   0.653   5.576  15.158  3.0208  1.4394 -1.9636
13580TIP3   OH262154   6.348   2.807   6.575 -0.4834 -0.1677 -0.7604
13580TIP3    H162155   6.334   2.897   6.544 -0.7029  0.5783  1.3532
13580TIP3    H262156   6.261   2.778   6.603 -0.0093 -0.1206  0.8246
13581TIP3   OH262157   6.684   2.800   4.728 -0.1262  0.2386  0.3104
13581TIP3    H162158   6.604   2.803   4.676 -0.4529  0.0727  0.8014
13581TIP3    H262159   6.698   2.707   4.746  1.2418  0.0678 -1.3981
13582TIP3   OH262160   4.476   3.506   1.055  0.2012  0.0178  0.0970
13582TIP3    H162161   4.445   3.464   0.974 -0.8895  0.2624  0.3711
13582TIP3    H262162   4.448   3.446   1.124 -0.8160  0.8647  0.4457
13583TIP3   OH262163   6.589   2.380   5.756 -0.2744 -0.3583 -0.1914
13583TIP3    H162164   6.538   2.357   5.834 -0.0229 -2.6292 -0.6436
13583TIP3    H262165   6.648   2.449   5.786 -0.5335 -0.8211  1.4821
13584TIP3   OH262166   6.127   6.688  11.370 -0.3513  0.5627 -0.0515
13584TIP3    H162167   6.140   6.714  11.461 -0.6321  0.2035  0.0948
13584TIP3    H262168   6.075   6.759  11.332  0.2121  0.9702 -0.0775
13585TIP3   OH262169   2.022   1.191  11.325  0.0552 -0.1642  0.2141
13585TIP3    H162170   2.082   1.117  11.328  0.0371 -0.1517  1.7676
13585TIP3    H262171   2.057   1.247  11.256 -0.7760 -2.2588 -2.0374
13586TIP3   OH262172   1.693   1.417  11.943 -0.1296  0.0723  0.3992
13586TIP3    H162173   1.690   1.347  12.008 -1.1041 -1.3462 -1.1012
13586TIP3    H262174   1.671   1.496  11.992  0.7638 -0.6905  2.0922
13587TIP3   OH262175   1.626   3.674   5.029  0.5394 -0.4248 -0.0643
13587TIP3    H162176   1.598   3.585   5.053 -0.0250 -0.1579  0.2907
13587TIP3    H262177   1.617   3.677   4.934  1.3999 -1.0254 -0.1714
13588TIP3   OH262178   3.136   4.721   0.702  0.4255  0.0661 -0.1764
13588TIP3    H162179   3.109   4.657   0.637  0.3989  0.1859 -0.2831
13588TIP3    H262180   3.119   4.678   0.786  2.3687 -0.9137 -0.2187
13589TIP3   OH262181   3.922   2.977  12.668 -0.2655 -0.1533  0.0897
13589TIP3    H162182   3.879   2.974  12.754 -0.0103  0.4674  0.2431
13589TIP3    H262183   3.875   2.912  12.615 -1.4345  0.5686  0.2242
13590TIP3   OH262184   5.470   1.117  12.175 -0.1943 -0.3087  0.1729
13590TIP3    H162185   5.480   1.043  12.115  0.2233 -0.0800 -0.0473
13590TIP3    H262186   5.376   1.135  12.175 -0.5175 -1.8483  1.4709
13591TIP3   OH262187   2.022   6.710  14.656  0.5600 -0.7185 -0.1253
13591TIP3    H162188   2.107   6.744  14.686  1.1742 -1.2729 -1.1542
13591TIP3    H262189   2.041   6.620  14.631  0.1989 -0.1941 -2.4841
13592TIP3   OH262190   3.972   0.473   5.506 -0.6562 -0.1318 -0.2512
13592TIP3    H162191   4.064   0.457   5.484 -0.0857  2.4642 -0.0742
13592TIP3    H262192   3.928   0.478   5.421 -0.2815  0.3684 -0.4213
13593TIP3   OH262193   3.449   4.435   5.863  0.3102  0.0253 -0.9037
13593TIP3    H162194   3.471   4.488   5.939  0.2094 -0.8801 -0.2287
13593TIP3    H262195   3.356   4.416   5.873  0.5001 -0.8814 -0.7400
13594TIP3   OH262196   0.192   5.782  13.069  0.6594 -0.2321  0.5291
13594TIP3    H162197   0.205   5.734  13.150 -1.6219 -2.5341 -0.3419
13594TIP3    H262198   0.237   5.730  13.002  0.2491  0.1771 -0.0765
13595TIP3   OH262199   4.643   6.024  17.030  0.5188 -0.6288 -0.2419
13595TIP3    H162200   4.677   6.060  16.948  2.8882 -1.2347  0.3804
13595TIP3    H262201   4.658   5.929  17.022  2.1698 -0.5718  1.3967
13596TIP3   OH262202   6.182   6.361   0.315 -0.4049 -0.6179  0.0967
13596TIP3    H162203   6.197   6.271   0.285 -0.7884 -1.3874  2.0108
13596TIP3    H262204   6.142   6.405   0.241  2.0996 -1.2690 -1.7642
13597TIP3   OH262205   2.964   5.678   1.354  0.0036 -0.5501  0.6173
13597TIP3    H162206   2.963   5.719   1.268 -3.1908  0.0760  0.8455
13597TIP3    H262207   2.933   5.745   1.414  0.8144 -1.4146  2.0752
13598TIP3   OH262208   0.649   5.773   2.785  0.4438  0.1364  0.4487
13598TIP3    H162209   0.644   5.783   2.690 -2.5106  3.6042  0.7637
13598TIP3    H262210   0.742   5.757   2.802  1.1813 -0.0211 -2.9355
13599TIP3   OH262211   5.393   1.846   5.101 -0.0107  0.0404  0.2708
13599TIP3    H162212   5.359   1.935   5.106  0.2431  0.1982 -0.6775
13599TIP3    H262213   5.315   1.791   5.096 -0.1790  0.3688 -1.3618
13600TIP3   OH262214   6.507   1.125  13.634 -0.0061  0.4690 -0.4030
13600TIP3    H162215   6.522   1.039  13.594 -2.1884  0.2830 -0.9200
13600TIP3    H262216   6.479   1.104  13.723 -2.3998  0.4684 -1.0817
13601TIP3   OH262217   3.168   0.885   1.642 -0.4944  0.0044 -0.7086
13601TIP3    H162218   3.158   0.935   1.723  0.0092  0.5760 -0.9986
13601TIP3    H262219   3.088   0.902   1.593 -0.6724 -0.1140 -0.4641
13602TIP3   OH262220   3.352   1.892  13.881  0.2023  0.4794 -0.0616
13602TIP3    H162221   3.379   1.800  13.879  0.6493  0.5939  0.4323
13602TIP3    H262222   3.417   1.937  13.828  0.6190  0.6616  0.5878
13603TIP3   OH262223   0.106   1.477   0.307 -0.5002 -0.1620  0.2017
13603TIP3    H162224   0.086   1.535   0.380 -0.2794 -0.9079  0.8587
13603TIP3    H262225   0.081   1.390   0.337 -0.0442 -0.5318 -0.4641
13604TIP3   OH262226   5.495   0.771   1.479  0.1909 -0.2410  0.7675
13604TIP3    H162227   5.427   0.749   1.415 -0.2861 -1.2831  1.5966
13604TIP3    H262228   5.572   0.791   1.426 -0.7683  1.0681 -0.1906
13605TIP3   OH262229   0.142   4.580   1.820 -0.2695 -0.2126  0.0808
13605TIP3    H162230   0.236   4.560   1.821 -0.1289  0.3096  2.3650
13605TIP3    H262231   0.124   4.607   1.730  1.5861 -1.0629 -0.5974
13606TIP3   OH262232   5.034   0.584   5.500 -0.3749  0.4210  0.1283
13606TIP3    H162233   4.945   0.614   5.486  0.1985  1.0402 -2.8824
13606TIP3    H262234   5.077   0.596   5.416  2.3157 -0.7446  1.2134
13607TIP3   OH262235   2.855   5.485  15.272  0.6595  0.7103  0.2521
13607TIP3    H162236   2.814   5.403  15.301  1.9698  0.0370  0.2971
13607TIP3    H262237   2.823   5.497  15.182 -2.0392  1.8763  1.2714
13608TIP3   OH262238   0.540   1.498  14.305  0.3848 -0.3719  0.5101
13608TIP3    H162239   0.585   1.491  14.221  0.9395 -2.1246  0.9043
13608TIP3    H262240   0.608   1.484  14.370  0.0183  1.2612  1.3053
13609TIP3   OH262241   3.921   0.224  15.752  0.3305 -0.2018 -0.2404
13609TIP3    H162242   3.873   0.282  15.693 -1.8519 -2.0483 -0.4330
13609TIP3    H262243   3.994   0.192  15.701  0.4238  0.8102 -0.7746
13610TIP3   OH262244   4.891   3.700   6.580 -0.4121 -0.4468  0.2346
13610TIP3    H162245   4.866   3.657   6.662 -0.0527 -0.5484  0.2919
13610TIP3    H262246   4.880   3.794   6.598 -1.3069 -0.5108  0.0712
13611TIP3   OH262247   3.293   3.833   6.387 -0.0565  0.1341 -0.0044
13611TIP3    H162248   3.380   3.874   6.396  0.2448  0.3806 -3.0673
13611TIP3    H262249   3.311   3.739   6.383  0.0454  0.1639 -0.2863
13612TIP3   OH262250   5.618   5.413  14.416 -0.1281  0.1604  0.1905
13612TIP3    H162251   5.531   5.374  14.411 -0.5332  0.6314  2.3137
13612TIP3    H262252   5.668   5.354  14.473  0.8912  0.0061 -0.8363
13613TIP3   OH262253   2.949   2.224   2.914  0.3313 -0.0176  0.1189
13613TIP3    H162254   2.948   2.240   2.819  0.2282 -1.0842 -0.0795
13613TIP3    H262255   3.041   2.229   2.938  0.5537 -1.3573 -0.3578
13614TIP3   OH262256   1.081   5.645   4.164  0.2991  0.4995  0.2163
13614TIP3    H162257   1.151   5.580   4.153 -0.7251 -0.7438  0.7494
13614TIP3    H262258   1.111   5.701   4.235  0.6044 -0.2316  0.6769
13615TIP3   OH262259   3.652   4.907  15.625 -0.8496 -0.0618  0.5043
13615TIP3    H162260   3.674   4.858  15.546  0.1801  0.9483  0.1297
13615TIP3    H262261   3.671   4.847  15.697  0.1166 -0.3196  0.0488
13616TIP3   OH262262   2.908   3.006   6.146  0.2029 -0.0030 -0.1615
13616TIP3    H162263   2.923   3.056   6.226 -0.8934 -0.0591  0.0875
13616TIP3    H262264   2.972   2.935   6.150  0.8284  0.5694  0.1654
13617TIP3   OH262265   0.838   3.516   4.580  0.0438  0.2469 -0.3180
13617TIP3    H162266   0.860   3.586   4.519  1.6938 -0.1609 -0.2249
13617TIP3    H262267   0.897   3.528   4.654  0.1500 -1.0458 -0.1559
13618TIP3   OH262268   2.803   0.017  13.858  0.3198 -0.1846  0.3033
13618TIP3    H162269   2.805  -0.073  13.892 -0.7383 -0.5682 -0.5895
13618TIP3    H262270   2.809   0.072  13.936 -1.3358 -1.0402  1.0763
13619TIP3   OH262271   0.442   3.828   2.294  0.1873 -0.7131 -0.0522
13619TIP3    H162272   0.503   3.785   2.354 -0.0366 -1.0195 -0.0372
13619TIP3    H262273   0.494   3.848   2.216  0.6626  0.3565  0.5177
13620TIP3   OH262274   4.410   5.592   1.935 -0.0138  0.4186  0.2594
13620TIP3    H162275   4.358   5.579   1.856  0.0610 -0.2662  0.3175
13620TIP3    H262276   4.495   5.623   1.902  0.2588 -0.5598  0.0158
13621TIP3   OH262277   0.461   4.633  13.168  0.0552 -0.1519 -0.2103
13621TIP3    H162278   0.547   4.660  13.136 -0.7047  1.8169 -0.7540
13621TIP3    H262279   0.418   4.594  13.092 -0.0281  0.1366 -0.3118
13622TIP3   OH262280   0.020   6.390   3.023 -0.4996  0.6185 -0.5616
13622TIP3    H162281   0.044   6.413   2.933 -0.1610  0.1049 -0.6073
13622TIP3    H262282  -0.056   6.333   3.014  0.6711 -0.9933 -0.6454
13623TIP3   OH262283   4.425   0.255   5.476  0.4857  0.2064  0.0315
13623TIP3    H162284   4.344   0.303   5.490 -1.1199 -1.0610 -3.6567
13623TIP3    H262285   4.434   0.200   5.554 -1.5711  1.1318  1.0077
13624TIP3   OH262286   5.339   6.211  15.564 -0.4594  0.0693  0.0486
13624TIP3    H162287   5.254   6.234  15.526 -0.0506  0.1284 -0.8469
13624TIP3    H262288   5.346   6.116  15.553  0.3464  0.2828 -1.5008
13625TIP3   OH262289   5.895   1.164   3.679 -0.3634  0.0154 -0.0579
13625TIP3    H162290   5.874   1.251   3.647  2.6385  0.5661 -0.8749
13625TIP3    H262291   5.916   1.177   3.772 -0.5554  0.0564 -0.0214
13626TIP3   OH262292   5.824   0.299   1.597 -0.4872  0.5250 -0.3252
13626TIP3    H162293   5.766   0.375   1.592  0.7867  1.6470  1.2282
13626TIP3    H262294   5.841   0.288   1.690  1.3416 -0.1159 -0.6909
13627TIP3   OH262295   0.734   2.542   2.483 -0.4313 -0.0421 -0.3275
13627TIP3    H162296   0.701   2.480   2.548 -0.9186 -0.2183 -0.7419
13627TIP3    H262297   0.688   2.520   2.402  0.2758  0.0796 -0.7763
13628TIP3   OH262298   3.451   6.500  15.618 -0.1733  0.0109  0.3143
13628TIP3    H162299   3.442   6.489  15.523 -0.2653 -1.7387  0.4998
13628TIP3    H262300   3.546   6.511  15.631  0.3171 -3.2189  0.2658
13629TIP3   OH262301   2.114   2.458  12.117 -0.2607 -0.0125 -0.4295
13629TIP3    H162302   2.067   2.429  12.039 -0.1612 -2.2927  0.2755
13629TIP3    H262303   2.195   2.407  12.117 -1.8935 -3.1290  3.0282
13630TIP3   OH262304   0.554   5.030  10.922 -0.0420 -0.0650  0.1432
13630TIP3    H162305   0.551   4.934  10.927 -0.3460 -0.2211 -1.8546
13630TIP3    H262306   0.572   5.048  10.829  0.4755  1.8151  0.5727
13631TIP3   OH262307   6.448   4.449   4.379  0.1368  0.2383  0.5117
13631TIP3    H162308   6.501   4.460   4.458  0.2057 -1.2490  0.7037
13631TIP3    H262309   6.373   4.397   4.408 -0.8837  1.3609 -0.0009
13632TIP3   OH262310   4.228   0.558  15.874  0.4968 -0.0299  0.0459
13632TIP3    H162311   4.141   0.524  15.894 -0.3313  0.7952 -1.9185
13632TIP3    H262312   4.270   0.488  15.824  1.1514 -0.5754  1.2982
13633TIP3   OH262313   4.847   4.482  12.480  0.0611  0.1659 -0.3940
13633TIP3    H162314   4.927   4.451  12.522  0.0123 -0.8354 -0.9968
13633TIP3    H262315   4.787   4.407  12.485 -0.4128  0.4945 -1.0219
13634TIP3   OH262316   4.770   4.457  11.391 -0.2873 -0.4178  0.0879
13634TIP3    H162317   4.745   4.465  11.298 -0.0138 -0.7812 -0.0187
13634TIP3    H262318   4.833   4.527  11.405 -0.4059 -0.2984  0.0238
13635TIP3   OH262319   5.850   3.227  12.024 -0.6084 -0.3234  0.1106
13635TIP3    H162320   5.770   3.213  11.973  0.4306  1.1734 -2.0316
13635TIP3    H262321   5.853   3.321  12.039  1.8609 -0.0024 -1.8547
13636TIP3   OH262322   5.452   6.757   2.408  0.3330  0.4298 -0.0661
13636TIP3    H162323   5.436   6.681   2.464  1.6605  0.2662  0.1215
13636TIP3    H262324   5.510   6.813   2.460  1.0272  0.6007 -0.9923
13637TIP3   OH262325   3.641   6.676  17.058  0.2483 -0.5034  0.2540
13637TIP3    H162326   3.627   6.771  17.052 -0.3019 -0.6740 -1.7658
13637TIP3    H262327   3.728   6.667  17.097  0.5730  0.8396 -0.1149
13638TIP3   OH262328   6.401   6.735   4.757  0.2521  0.0233  0.3650
13638TIP3    H162329   6.361   6.659   4.716  0.3613  0.7449 -1.1490
13638TIP3    H262330   6.360   6.740   4.843 -4.5530  1.8596 -1.7135
13639TIP3   OH262331   5.007   2.802   5.211 -0.1967  0.1994  0.1940
13639TIP3    H162332   4.922   2.805   5.167  0.3972 -0.2283 -1.0183
13639TIP3    H262333   5.046   2.888   5.193  0.5327 -0.3973 -1.1287
13640TIP3   OH262334   6.673   6.347   0.655  0.7510 -0.3042 -0.5665
13640TIP3    H162335   6.723   6.389   0.725  1.6709  0.6737 -1.7584
13640TIP3    H262336   6.691   6.254   0.664  0.5075 -0.2307  0.7557
13641TIP3   OH262337   5.705   0.086  13.733 -0.4672  0.1816  0.2788
13641TIP3    H162338   5.698   0.118  13.823  0.2524 -0.7378  0.6745
13641TIP3    H262339   5.797   0.094  13.710 -0.3471 -1.0957  0.2144
13642TIP3   OH262340   6.392   3.759   5.158  0.2125  0.4080  0.2620
13642TIP3    H162341   6.400   3.742   5.251  0.6822  1.5077  0.4422
13642TIP3    H262342   6.400   3.854   5.150  3.5890  0.1641 -1.1843
13643TIP3   OH262343   3.608   6.095  14.374  0.3158 -0.3651 -0.0749
13643TIP3    H162344   3.549   6.121  14.303 -1.0161  0.0108  1.1238
13643TIP3    H262345   3.632   6.177  14.416 -0.0090 -0.6748  0.7336
13644TIP3   OH262346   5.494   5.408  11.645 -0.0445  0.2302 -0.2373
13644TIP3    H162347   5.490   5.503  11.646  0.1729  0.2440 -0.4116
13644TIP3    H262348   5.463   5.384  11.557  1.0190  0.2029 -0.6138
13645TIP3   OH262349   3.093   3.538   5.519  0.2030  0.6516 -0.6254
13645TIP3    H162350   3.050   3.533   5.604 -0.3325  0.9851 -0.8709
13645TIP3    H262351   3.090   3.631   5.496  2.1351  0.8886 -0.1094
13646TIP3   OH262352   4.268   2.823   1.599  0.0030  0.0327  0.9868
13646TIP3    H162353   4.249   2.876   1.676  1.1117 -2.2734  2.9746
13646TIP3    H262354   4.202   2.754   1.599 -0.7209  0.6524 -0.8827
13647TIP3   OH262355   6.198   0.706  16.420  0.2460  0.4193 -0.2267
13647TIP3    H162356   6.163   0.725  16.507  1.2393 -1.5118  0.6500
13647TIP3    H262357   6.157   0.623  16.395  1.3387  0.0283 -0.7891
13648TIP3   OH262358   4.362   6.160  11.842 -0.5698 -0.3300  0.4795
13648TIP3    H162359   4.389   6.150  11.751  0.3012  2.0862  0.4124
13648TIP3    H262360   4.433   6.118  11.892 -0.6547 -0.9619  0.0754
13649TIP3   OH262361   1.515   4.931  15.330 -0.0238 -0.1107 -0.3323
13649TIP3    H162362   1.518   4.942  15.235 -0.6923 -1.1396 -0.4798
13649TIP3    H262363   1.568   5.003  15.364 -1.1207  1.2497 -1.4062
13650TIP3   OH262364   1.396   2.922  15.173 -0.1975  0.5791  0.0021
13650TIP3    H162365   1.355   2.976  15.106  0.2775  2.0031  0.8052
13650TIP3    H262366   1.490   2.928  15.155 -0.0075  1.6345  1.2409
13651TIP3   OH262367   6.019   4.599   1.694  0.0391  0.2699  0.6942
13651TIP3    H162368   5.938   4.645   1.718  0.7029  0.9770  1.6885
13651TIP3    H262369   6.080   4.621   1.764  0.7384 -1.2345  0.5832
13652TIP3   OH262370   2.626   0.722   4.025  0.0094  0.3668  0.5066
13652TIP3    H162371   2.596   0.663   3.956 -0.0647  1.4515 -0.4136
13652TIP3    H262372   2.721   0.729   4.011 -0.4424  3.6725 -2.0857
13653TIP3   OH262373   2.970   0.448   5.242 -0.2744  0.3472 -0.0351
13653TIP3    H162374   3.015   0.381   5.191  1.0061 -0.1518  1.6568
13653TIP3    H262375   2.892   0.405   5.276  0.9246 -0.6090  1.6692
13654TIP3   OH262376   2.436   0.102  15.634 -0.2560  0.1572 -0.0531
13654TIP3    H162377   2.526   0.097  15.667  0.6003  2.6023 -1.7241
13654TIP3    H262378   2.397   0.018  15.658  2.4087 -0.9360  0.8438
13655TIP3   OH262379   0.543   1.590   3.178 -0.1105 -0.1067 -0.7320
13655TIP3    H162380   0.579   1.642   3.106 -0.3441 -1.5162 -1.9176
13655TIP3    H262381   0.510   1.655   3.240 -0.2251  1.1570 -2.0546
13656TIP3   OH262382   5.650   4.810   5.505 -0.3022  0.5548 -0.2209
13656TIP3    H162383   5.563   4.789   5.538 -0.0057 -0.4223 -0.0500
13656TIP3    H262384   5.710   4.762   5.562  0.2194 -1.3168 -2.2303
13657TIP3   OH262385   0.767   3.014  13.875 -0.1000 -0.1902  0.0811
13657TIP3    H162386   0.808   2.938  13.833  0.4085  0.4303 -0.5828
13657TIP3    H262387   0.686   2.980  13.912 -1.7932 -0.3778 -3.4052
13658TIP3   OH262388   2.430   2.236   0.163 -0.1548  0.4082 -0.2441
13658TIP3    H162389   2.436   2.140   0.170  0.5849  0.4317 -0.5302
13658TIP3    H262390   2.357   2.259   0.220  0.5027 -0.2074  0.8929
13659TIP3   OH262391   1.069   0.595  13.222 -0.4293 -0.4486  0.5123
13659TIP3    H162392   1.102   0.559  13.140  0.5539 -0.4265  0.8887
13659TIP3    H262393   0.999   0.535  13.249 -1.1032 -0.1917 -0.5718
13660TIP3   OH262394   5.627   1.947  13.437 -0.0542 -0.8794  1.0184
13660TIP3    H162395   5.627   1.883  13.508 -0.1764 -0.5759  1.2975
13660TIP3    H262396   5.716   1.984  13.438 -0.3006 -0.2787  1.5670
13661TIP3   OH262397   6.016   5.257   5.366  0.4143  0.4882  0.2380
13661TIP3    H162398   6.051   5.294   5.284  1.9714 -0.2920  0.5158
13661TIP3    H262399   5.964   5.182   5.338  0.6225  0.4520 -0.0549
13662TIP3   OH262400   1.288   6.136  13.552 -0.2287  0.2527  0.2774
13662TIP3    H162401   1.354   6.195  13.589  0.5614 -0.4081 -0.0166
13662TIP3    H262402   1.324   6.111  13.467  0.1466 -1.6881  0.9356
13663TIP3   OH262403   3.552   3.534   2.155  0.4944 -0.3367 -0.0068
13663TIP3    H162404   3.599   3.454   2.133 -0.1786 -1.4736  2.3044
13663TIP3    H262405   3.528   3.523   2.247 -0.0062  2.3544  0.2772
13664TIP3   OH262406   4.965   2.010  16.591 -0.0260  0.0215  0.4997
13664TIP3    H162407   4.905   1.944  16.626 -1.4682  1.2941  0.5584
13664TIP3    H262408   4.911   2.060  16.530  0.7386  1.7691  1.2005
13665TIP3   OH262409   6.114   4.834  16.588 -0.2690  0.3612 -0.0374
13665TIP3    H162410   6.087   4.895  16.657  1.0111  0.5638  0.3060
13665TIP3    H262411   6.162   4.888  16.526 -3.0093  0.5745 -2.1494
13666TIP3   OH262412   6.026   5.960  17.109  0.5686 -0.0972 -0.0527
13666TIP3    H162413   6.104   5.999  17.069  0.1783  0.2899 -0.4402
13666TIP3    H262414   6.012   5.879  17.060 -0.3093  0.7131 -1.1706
13667TIP3   OH262415   2.797   0.994   1.733  0.4875 -0.1554  0.2310
13667TIP3    H162416   2.843   0.955   1.659  1.0474 -0.9181  0.9704
13667TIP3    H262417   2.861   1.052   1.774  0.5693 -0.6616  0.8307
13668TIP3   OH262418   0.555   3.403  11.383 -0.3592 -0.8296  0.1924
13668TIP3    H162419   0.477   3.358  11.416 -0.5933 -0.7350 -0.2310
13668TIP3    H262420   0.590   3.448  11.460 -0.2360 -1.5627  0.5810
13669TIP3   OH262421   2.722   3.928   6.706 -0.5639 -0.3024  0.5300
13669TIP3    H162422   2.688   3.947   6.619  0.3108 -0.3424  0.1744
13669TIP3    H262423   2.716   3.833   6.715 -0.8412 -0.2789  0.5941
13670TIP3   OH262424   4.943   3.653   6.327 -1.0312  0.1884  0.0668
13670TIP3    H162425   4.901   3.649   6.413 -0.6605 -0.5209  0.2258
13670TIP3    H262426   5.006   3.725   6.334 -0.5336 -0.2934  0.6123
13671TIP3   OH262427   5.781   1.764   5.642 -0.7853 -0.4415 -0.5826
13671TIP3    H162428   5.833   1.685   5.626  0.1702  0.4172 -1.9929
13671TIP3    H262429   5.837   1.820   5.695 -1.2528 -0.4856 -0.0327
13672TIP3   OH262430   5.017   6.360  13.361 -0.0427  0.4658  0.1991
13672TIP3    H162431   4.974   6.327  13.282  0.5053  1.2647 -0.4557
13672TIP3    H262432   5.051   6.282  13.404  0.7585  0.1040 -1.0300
13673TIP3   OH262433   4.325   5.296   1.524 -0.6859 -0.1430  0.0439
13673TIP3    H162434   4.339   5.354   1.450  0.6545 -0.0369  0.3593
13673TIP3    H262435   4.403   5.240   1.526 -1.2891 -1.0001  0.6104
13674TIP3   OH262436   2.233   1.044   3.418  0.3333 -0.4534 -0.1698
13674TIP3    H162437   2.180   0.968   3.392 -0.9943  0.2957  0.2267
13674TIP3    H262438   2.171   1.100   3.465  1.1656  1.0803 -0.8440
13675TIP3   OH262439   0.555   4.439  14.637  0.2322  0.2176  0.0181
13675TIP3    H162440   0.643   4.475  14.648  1.1256 -1.2701 -1.6049
13675TIP3    H262441   0.563   4.348  14.665 -0.3186 -0.4067 -1.7029
13676TIP3   OH262442   3.193   5.397   5.995 -0.3865 -0.2007 -0.2009
13676TIP3    H162443   3.180   5.319   5.940  0.2820 -0.6064  0.1939
13676TIP3    H262444   3.128   5.389   6.064  1.6981 -2.1528  1.7029
13677TIP3   OH262445   0.598   2.130   6.459  0.5187  0.1417  0.3002
13677TIP3    H162446   0.551   2.152   6.540 -0.6604  2.5272 -0.9226
13677TIP3    H262447   0.673   2.189   6.458 -0.7689  1.8973 -1.3766
13678TIP3   OH262448   5.154   5.429   6.168 -0.3103  0.0044 -0.4735
13678TIP3    H162449   5.112   5.362   6.114  0.3175 -0.6122 -0.2103
13678TIP3    H262450   5.246   5.404   6.170  0.6886  2.7265 -3.1895
13679TIP3   OH262451   0.154   3.073   5.785  0.4229  0.6391 -0.6723
13679TIP3    H162452   0.129   2.987   5.752 -4.1744  1.9494 -1.1917
13679TIP3    H262453   0.170   3.059   5.879  0.5047 -0.8875 -0.8941
13680TIP3   OH262454   5.387   3.118   5.256  0.2313  0.0182  0.1132
13680TIP3    H162455   5.467   3.065   5.262  0.1592 -0.1203 -0.1179
13680TIP3    H262456   5.402   3.176   5.182  0.7757  1.1307  1.0580
13681TIP3   OH262457   4.759   1.367  17.319  0.3447 -0.3972  0.4383
13681TIP3    H162458   4.760   1.272  17.324 -0.5424 -0.4042  0.7479
13681TIP3    H262459   4.851   1.393  17.323  0.6094 -1.2472  0.0949
13682TIP3   OH262460   3.141   6.018  10.624  0.4785 -0.2606  0.1966
13682TIP3    H162461   3.194   6.097  10.626 -0.4517  0.4395 -1.1941
13682TIP3    H262462   3.203   5.947  10.605  1.0374  0.4283 -0.6142
13683TIP3   OH262463   5.367   0.370   0.041  0.0637 -0.0279  0.3643
13683TIP3    H162464   5.393   0.455   0.077 -0.2227  0.4194 -0.4592
13683TIP3    H262465   5.294   0.390  -0.017  0.6286 -0.6948 -0.6103
13684TIP3   OH262466   6.202   5.131   0.418  0.2592 -0.0740 -0.3483
13684TIP3    H162467   6.123   5.181   0.438  0.8230 -0.0739  2.2843
13684TIP3    H262468   6.273   5.195   0.422  0.5804 -0.3674 -1.1177
13685TIP3   OH262469   5.967   3.431  11.693 -0.7005 -0.1770 -0.1768
13685TIP3    H162470   5.996   3.502  11.751 -1.2119 -0.2773  0.2141
13685TIP3    H262471   5.913   3.474  11.628 -0.6098 -0.1428 -0.2301
13686TIP3   OH262472   0.247   0.545  13.545 -0.1853  0.5712 -0.0991
13686TIP3    H162473   0.247   0.606  13.619  0.0834  1.3729 -0.7432
13686TIP3    H262474   0.288   0.594  13.474  0.4152 -0.5208 -0.5181
13687TIP3   OH262475   1.427   1.193   3.358  0.1259  0.8772  0.3886
13687TIP3    H162476   1.517   1.219   3.338 -0.1753  1.6759  0.0445
13687TIP3    H262477   1.383   1.188   3.274 -0.2921  1.0029  0.5961
13688TIP3   OH262478   0.679   5.007   2.082 -0.1399 -0.6188  0.1765
13688TIP3    H162479   0.711   5.077   2.139 -1.5655 -0.4805  0.8506
13688TIP3    H262480   0.676   4.929   2.139  3.2967 -1.8248 -1.0338
13689TIP3   OH262481   4.705   0.539  10.844 -0.5815  0.0462  0.0614
13689TIP3    H162482   4.775   0.540  10.778 -0.8917 -0.6128 -0.2783
13689TIP3    H262483   4.690   0.447  10.862 -1.7805  0.1560 -0.3148
13690TIP3   OH262484   5.248   2.524   4.602 -0.1013  0.1846  0.2880
13690TIP3    H162485   5.193   2.573   4.541 -0.7363 -0.4185  0.3647
13690TIP3    H262486   5.253   2.579   4.680  1.2731  1.2735 -0.5299
13691TIP3   OH262487   0.943   5.799   3.975 -0.4863 -0.3390  0.4810
13691TIP3    H162488   0.976   5.730   4.033  0.2810 -2.2392 -2.0386
13691TIP3    H262489   1.018   5.824   3.921 -1.5579  0.0166 -0.9316
13692TIP3   OH262490   3.381   6.394  17.316 -0.0307  0.6600  0.3965
13692TIP3    H162491   3.405   6.486  17.301  0.7406  0.5971  1.1224
13692TIP3    H262492   3.288   6.390  17.296  0.1621  1.3519 -0.7193
13693TIP3   OH262493   0.348   0.141   5.212 -0.7335  0.0064 -0.5513
13693TIP3    H162494   0.402   0.175   5.283 -0.6505 -0.0869 -0.5681
13693TIP3    H262495   0.365   0.046   5.212  0.5859  0.2042 -1.7584
13694TIP3   OH262496   0.173   4.458   4.562  0.1149 -0.3380 -0.6142
13694TIP3    H162497   0.207   4.399   4.495 -0.1961 -0.4343 -0.6859
13694TIP3    H262498   0.221   4.540   4.547  1.4588 -0.9305  0.2714
13695TIP3   OH262499   0.602   6.393  14.222 -0.0671  0.2024 -0.5655
13695TIP3    H162500   0.588   6.474  14.172 -0.0645  1.8791  2.0061
13695TIP3    H262501   0.651   6.420  14.299 -3.2468 -1.5223  2.2907
13696TIP3   OH262502   6.180   4.131  16.806 -0.3307  0.3271  0.0743
13696TIP3    H162503   6.235   4.053  16.808  1.3478  1.1545 -3.7767
13696TIP3    H262504   6.232   4.195  16.757 -2.2929  3.3718  1.6415
13697TIP3   OH262505   3.831   5.002   3.948 -0.2655 -0.4769 -0.2247
13697TIP3    H162506   3.769   5.015   3.875 -0.3108 -0.3586 -0.1656
13697TIP3    H262507   3.899   4.945   3.912  0.0096  0.0369 -0.5332
13698TIP3   OH262508   2.075   3.217   2.151 -0.3003  0.0220  0.1097
13698TIP3    H162509   2.133   3.177   2.086 -1.6891 -1.3860 -0.3258
13698TIP3    H262510   2.009   3.264   2.099  0.4381  1.6965  0.6007
13699TIP3   OH262511   6.178   4.375   4.111 -1.2661 -0.5117 -0.0284
13699TIP3    H162512   6.118   4.439   4.148  0.0133  1.3982 -1.0797
13699TIP3    H262513   6.265   4.412   4.126 -0.1813 -3.5348  2.1297
13700TIP3   OH262514   3.875   0.762  16.183  0.5123  0.1104 -0.1057
13700TIP3    H162515   3.965   0.750  16.155  0.4420 -0.7626  0.0227
13700TIP3    H262516   3.835   0.815  16.113  0.8595 -0.3620 -0.6678
13701TIP3   OH262517   2.600   5.261  14.620 -0.0106 -0.1047 -0.6882
13701TIP3    H162518   2.631   5.248  14.530 -0.2069  0.0396 -0.7801
13701TIP3    H262519   2.504   5.267  14.611 -0.2493 -2.4392 -0.1944
13702TIP3   OH262520   4.913   1.609  13.333  0.0401 -0.0512 -0.3675
13702TIP3    H162521   4.944   1.538  13.390 -0.1845 -1.6376 -2.1148
13702TIP3    H262522   4.860   1.665  13.390 -0.6666 -1.8975  0.8839
13703TIP3   OH262523   5.116   2.676   3.877  0.0558 -0.3639  0.6093
13703TIP3    H162524   5.148   2.604   3.822  0.5506 -0.6978  1.3133
13703TIP3    H262525   5.174   2.749   3.856 -2.0116  0.6948 -2.0296
13704TIP3   OH262526   1.993   0.032  15.871 -0.8809  1.2603 -0.0680
13704TIP3    H162527   2.063   0.097  15.881 -0.4480  0.9312 -0.8700
13704TIP3    H262528   1.941   0.064  15.798 -0.2129  0.3232 -0.9754
13705TIP3   OH262529   0.341   2.684  16.954  0.6947  0.4551 -0.4307
13705TIP3    H162530   0.252   2.712  16.974  0.3200 -1.1227  0.2503
13705TIP3    H262531   0.396   2.734  17.014  0.3025  1.4893 -0.9032
13706TIP3   OH262532   5.989   2.332   0.863 -0.5037  0.1075  0.3023
13706TIP3    H162533   5.896   2.324   0.881 -0.3072  0.0942  1.3463
13706TIP3    H262534   6.025   2.380   0.937  0.5946 -1.3834  0.8031
13707TIP3   OH262535   0.628   2.303  14.331 -0.2165 -0.0698 -0.4293
13707TIP3    H162536   0.546   2.261  14.355 -1.0487  0.6547 -1.8491
13707TIP3    H262537   0.618   2.324  14.238  0.3899  2.6283  0.0212
13708TIP3   OH262538   1.944   2.097   2.395  0.3330  0.9007  0.1176
13708TIP3    H162539   2.003   2.088   2.470  1.6723  2.4127 -0.6903
13708TIP3    H262540   1.987   2.047   2.325 -0.4161  0.2935  0.0827
13709TIP3   OH262541   5.745   4.171  11.871  0.2375 -0.2277  0.3857
13709TIP3    H162542   5.730   4.115  11.947  1.6958 -0.8155  0.2739
13709TIP3    H262543   5.717   4.120  11.796 -1.8402  0.6044  0.5211
13710TIP3   OH262544   2.631   4.096   1.053 -0.3156  0.6667 -0.1906
13710TIP3    H162545   2.620   4.012   1.010 -1.7316  0.6065  0.2533
13710TIP3    H262546   2.629   4.076   1.146 -0.4496  1.1617 -0.0846
13711TIP3   OH262547   5.628   3.909   5.367  0.4111 -0.2680  0.4601
13711TIP3    H162548   5.716   3.882   5.394  0.6388  0.1368  0.1256
13711TIP3    H262549   5.634   4.003   5.355 -0.0312 -0.2599  0.2810
13712TIP3   OH262550   2.704   0.317   3.352 -0.6393 -0.0423 -0.2347
13712TIP3    H162551   2.799   0.302   3.346 -0.3868  1.5235 -0.7398
13712TIP3    H262552   2.688   0.333   3.444 -1.0041 -3.4897  0.4324
13713TIP3   OH262553   3.508   5.013   0.976  0.0705  0.3578 -0.0838
13713TIP3    H162554   3.479   5.089   0.924  0.7118  0.9190  0.3588
13713TIP3    H262555   3.482   4.937   0.924  1.6619  0.9101 -1.8071
13714TIP3   OH262556   4.850   2.661  12.822  0.3459 -0.4988  0.5611
13714TIP3    H162557   4.803   2.583  12.854 -0.2760 -0.0002  0.8889
13714TIP3    H262558   4.829   2.729  12.886  0.8122 -0.0326  0.2258
13715TIP3   OH262559   1.466   6.546  12.419  0.2815  0.1593 -0.2502
13715TIP3    H162560   1.460   6.558  12.324 -0.2311 -1.7455 -0.4990
13715TIP3    H262561   1.379   6.565  12.451  0.2114 -0.0850 -0.2909
13716TIP3   OH262562   5.631   0.101   2.574 -0.3355 -0.2743 -0.3137
13716TIP3    H162563   5.711   0.068   2.614  0.3912 -0.1389 -1.6085
13716TIP3    H262564   5.660   0.150   2.498 -1.6210  0.2517 -0.4989
13717TIP3   OH262565   6.683   5.077   4.048 -0.4685 -0.4448  0.4757
13717TIP3    H162566   6.640   5.103   3.967  1.2362 -2.1239 -1.0763
13717TIP3    H262567   6.776   5.093   4.032 -0.0738 -0.9533  2.0501
13718TIP3   OH262568   1.509   4.445  16.950  0.6237 -0.1653 -0.0760
13718TIP3    H162569   1.552   4.360  16.938  1.0131  0.0487 -0.1996
13718TIP3    H262570   1.561   4.506  16.899  1.5273  0.5226  1.5894
13719TIP3   OH262571   5.375   5.985   3.431  0.4579 -0.0115 -0.3763
13719TIP3    H162572   5.306   5.946   3.486  0.5887  1.6669  1.0820
13719TIP3    H262573   5.328   6.045   3.373  0.3011 -1.9228 -2.3127
13720TIP3   OH262574   3.552   0.278   4.759  0.0058  0.2319 -0.6318
13720TIP3    H162575   3.567   0.263   4.665 -0.4555  1.0014 -0.8483
13720TIP3    H262576   3.616   0.346   4.782  2.2392 -2.0672  0.3798
13721TIP3   OH262577   2.060   1.028   0.230 -0.3862  0.4989 -0.0118
13721TIP3    H162578   2.088   1.119   0.218  0.0093  0.3074 -0.5901
13721TIP3    H262579   2.094   1.004   0.317 -0.1145  0.7655 -0.0420
13722TIP3   OH262580   2.833   4.273   1.661  0.8088  0.0844  0.1751
13722TIP3    H162581   2.893   4.347   1.645  1.4627 -0.3426  0.5871
13722TIP3    H262582   2.755   4.314   1.698  1.1447  0.5831  0.3538
13723TIP3   OH262583   4.897   0.763  16.225  0.1356 -0.5774  0.1499
13723TIP3    H162584   4.891   0.678  16.183  0.1502 -0.0788 -0.8983
13723TIP3    H262585   4.943   0.818  16.162 -1.7793  0.7730 -0.1576
13724TIP3   OH262586   2.453   5.101  13.801 -0.4105  0.0146  0.4201
13724TIP3    H162587   2.487   5.011  13.798 -0.2565  0.0753  0.3650
13724TIP3    H262588   2.528   5.156  13.781 -0.5196  0.1537  0.3901
13725TIP3   OH262589   3.160   4.386   0.725  0.1395 -0.0382 -0.1179
13725TIP3    H162590   3.085   4.356   0.776  1.2213 -0.6936  1.1692
13725TIP3    H262591   3.209   4.306   0.706  2.0671  0.5966  1.7058
13726TIP3   OH262592   5.826   5.326   3.937 -0.1283 -0.2704 -0.1347
13726TIP3    H162593   5.872   5.410   3.929  0.7133 -0.2467  3.4535
13726TIP3    H262594   5.896   5.261   3.937 -0.3173 -0.5184  1.9108
13727TIP3   OH262595   4.267   1.600   3.983 -0.3999 -0.4239 -0.1489
13727TIP3    H162596   4.261   1.533   3.916 -0.5413  0.7023 -1.2934
13727TIP3    H262597   4.313   1.673   3.941 -0.2824  0.2236  1.0403
13728TIP3   OH262598   6.633   2.800   6.628  0.5207 -0.4730 -0.4353
13728TIP3    H162599   6.674   2.884   6.609  1.4718 -1.2394 -2.0211
13728TIP3    H262600   6.542   2.810   6.599  0.8952 -0.2917 -1.5818
13729TIP3   OH262601   3.070   2.870   1.482 -0.4147 -0.3953  0.1513
13729TIP3    H162602   3.121   2.930   1.536  0.4015 -0.7481 -0.2262
13729TIP3    H262603   2.981   2.908   1.483 -0.0445  0.4992  0.3814
13730TIP3   OH262604   2.441   6.294   5.761 -0.5095 -0.2356  0.3475
13730TIP3    H162605   2.457   6.237   5.837  0.0859  0.3907  0.6995
13730TIP3    H262606   2.493   6.255   5.691 -0.7932 -0.6204  0.3453
13731TIP3   OH262607   4.359   4.399  11.624  0.6085 -0.0302  0.3674
13731TIP3    H162608   4.450   4.413  11.651  0.3767 -1.7700  2.3488
13731TIP3    H262609   4.308   4.458  11.679  0.4488 -0.0834  0.2769
13732TIP3   OH262610   5.623   2.094  16.049 -0.1878  0.2075  0.2985
13732TIP3    H162611   5.662   2.066  16.131 -1.2361 -0.7725  0.4908
13732TIP3    H262612   5.535   2.123  16.073 -0.0682  1.0925 -0.3067
13733TIP3   OH262613   0.582   1.144   2.964 -0.0683  0.2668 -0.6013
13733TIP3    H162614   0.499   1.190   2.950  0.9575  2.2393 -0.4396
13733TIP3    H262615   0.593   1.142   3.059  0.3972  0.6060 -0.6478
13734TIP3   OH262616   3.409   1.904   1.262 -0.2891  0.1628 -0.6182
13734TIP3    H162617   3.371   1.869   1.181  2.3355 -2.6779 -0.7902
13734TIP3    H262618   3.444   1.990   1.237 -1.1937  0.1759 -1.9556
13735TIP3   OH262619   6.370   2.823   2.557  0.3658 -0.6572 -0.7176
13735TIP3    H162620   6.423   2.880   2.501  1.3281 -2.2466 -1.5111
13735TIP3    H262621   6.281   2.833   2.524  0.2785  1.3264  0.0006
13736TIP3   OH262622   1.918   5.628  13.334 -0.6529 -0.3018 -0.1316
13736TIP3    H162623   1.924   5.539  13.368  1.5365 -0.1781 -0.1041
13736TIP3    H262624   1.994   5.673  13.369 -1.1630  1.2971 -0.9875
13737TIP3   OH262625   2.042   6.473  15.251  0.2605  0.3395 -0.3282
13737TIP3    H162626   2.008   6.553  15.290  1.5742  0.4564  0.6447
13737TIP3    H262627   1.972   6.409  15.264 -0.0093  0.8147  0.7280
13738TIP3   OH262628   5.945   0.444   1.236 -0.0507  0.6606 -0.1130
13738TIP3    H162629   5.852   0.423   1.225  0.3658 -1.5034  0.0835
13738TIP3    H262630   5.951   0.537   1.214 -2.4391  1.1621  0.9824
13739TIP3   OH262631   3.965   0.501  15.882 -0.3694 -0.0058  0.7718
13739TIP3    H162632   3.932   0.449  15.808 -0.2338  0.2380  0.5412
13739TIP3    H262633   3.926   0.587  15.869 -0.0475  0.1415  0.7796
13740TIP3   OH262634   2.233   5.352  12.973  0.3998  0.4289 -0.3513
13740TIP3    H162635   2.187   5.273  12.947  1.1512  0.1835 -0.9642
13740TIP3    H262636   2.170   5.423  12.957 -0.4460 -0.0787  0.6588
13741TIP3   OH262637   3.703   1.999  12.023 -0.1267 -0.3101 -0.3228
13741TIP3    H162638   3.672   1.951  11.945 -0.1325 -1.1148  0.1663
13741TIP3    H262639   3.641   2.072  12.032 -1.4404 -1.4501  0.1843
13742TIP3   OH262640   2.387   5.144  13.449 -0.3438 -0.4823  0.0153
13742TIP3    H162641   2.376   5.071  13.511 -1.5070 -0.6054 -0.3105
13742TIP3    H262642   2.411   5.101  13.367 -1.4398 -0.5639 -0.2856
13743TIP3   OH262643   3.814   4.981  13.825 -0.4122 -0.6886  0.3967
13743TIP3    H162644   3.826   5.073  13.803  0.3867 -0.9074 -0.0855
13743TIP3    H262645   3.834   4.976  13.919  1.5911 -0.7218  0.0045
13744TIP3   OH262646   0.178   3.520   2.675  0.0304  0.0702 -0.1520
13744TIP3    H162647   0.162   3.612   2.696 -0.1074  0.2968 -1.2097
13744TIP3    H262648   0.096   3.476   2.700 -0.4221  0.4580 -0.9036
13745TIP3   OH262649   3.712   6.541  15.682  0.1645  0.5700  0.1991
13745TIP3    H162650   3.732   6.599  15.756 -0.2181 -0.4703  1.1508
13745TIP3    H262651   3.797   6.510  15.651  0.3521  1.3840 -0.1158
13746TIP3   OH262652   0.806   3.182   2.180  0.4750 -0.7990 -0.3859
13746TIP3    H162653   0.899   3.163   2.164 -0.1355 -1.2132 -5.1500
13746TIP3    H262654   0.764   3.096   2.176 -0.1434 -0.8751  3.6859
13747TIP3   OH262655   3.282   4.571   4.653 -0.5393  0.4590  0.2791
13747TIP3    H162656   3.292   4.484   4.692  0.6176 -0.0823 -1.1705
13747TIP3    H262657   3.360   4.619   4.682 -0.6278  0.6586  0.1858
13748TIP3   OH262658   0.908   3.755  14.650  0.5536  0.3233 -0.5337
13748TIP3    H162659   0.908   3.801  14.566  0.6189  0.6307 -0.3689
13748TIP3    H262660   0.981   3.694  14.644 -0.3522 -0.7112 -1.2617
13749TIP3   OH262661   1.574   6.086   2.065 -0.7294  0.0267 -0.0316
13749TIP3    H162662   1.665   6.116   2.060 -0.2917 -1.3766 -0.7717
13749TIP3    H262663   1.533   6.147   2.128  1.2463 -0.6654  2.0786
13750TIP3   OH262664   0.340   3.385   5.948  0.1422  0.0320  0.1823
13750TIP3    H162665   0.313   3.306   5.995 -1.3150  0.9917  1.0643
13750TIP3    H262666   0.294   3.380   5.864  0.9048 -0.5581 -0.2103
13751TIP3   OH262667   1.536   4.855   2.990  0.2770 -0.4482 -0.3545
13751TIP3    H162668   1.566   4.908   2.916  1.2630 -0.9773 -0.3515
13751TIP3    H262669   1.458   4.810   2.957  0.3834 -0.2519 -0.8889
13752TIP3   OH262670   3.852   3.888  12.146 -0.5044  0.6585  0.8109
13752TIP3    H162671   3.938   3.922  12.173  0.7376 -0.8094 -1.0469
13752TIP3    H262672   3.797   3.966  12.139  1.5789  2.1081 -1.0306
13753TIP3   OH262673   4.230   4.592   5.792  0.5202  0.4416 -0.0708
13753TIP3    H162674   4.153   4.596   5.848 -0.1198 -2.9302 -0.5179
13753TIP3    H262675   4.241   4.682   5.761 -1.9168  1.4659  1.7092
13754TIP3   OH262676   2.461   4.994   1.772 -0.5775 -0.1177 -0.5552
13754TIP3    H162677   2.432   4.903   1.769 -0.8136 -0.0280 -1.2804
13754TIP3    H262678   2.503   5.003   1.858  0.7378 -1.3027 -1.0231
13755TIP3   OH262679   0.800   3.817  13.208 -0.3539  0.1162 -0.2403
13755TIP3    H162680   0.840   3.894  13.168 -0.3089 -1.2848 -3.1289
13755TIP3    H262681   0.864   3.789  13.274  1.6368  0.1885 -2.0252
13756TIP3   OH262682   1.796   3.528  11.083  0.1765  0.8037  0.4747
13756TIP3    H162683   1.735   3.454  11.080 -0.1963  1.0063  2.1607
13756TIP3    H262684   1.753   3.596  11.032 -1.0018  0.9229  1.5931
13757TIP3   OH262685   4.908   4.677  12.302 -0.9097  0.0211  0.0803
13757TIP3    H162686   4.988   4.626  12.307 -0.1338  1.0253 -1.3566
13757TIP3    H262687   4.854   4.644  12.374  1.8215  1.1059  2.8823
13758TIP3   OH262688   1.580   6.391   1.495  0.0918  0.0895  0.2851
13758TIP3    H162689   1.570   6.336   1.573  0.9478  0.4356  0.6491
13758TIP3    H262690   1.586   6.480   1.529 -0.7169  0.3700 -0.2674
13759TIP3   OH262691   0.120   2.445  16.956  0.3029  0.0548 -0.1574
13759TIP3    H162692   0.189   2.509  16.940  1.1570 -0.6651  0.5735
13759TIP3    H262693   0.093   2.461  17.046  1.2911 -1.3057  0.4108
13760TIP3   OH262694   0.329   2.607  15.019 -0.1714 -0.2091  0.2961
13760TIP3    H162695   0.370   2.520  15.019 -1.1834 -0.7067  0.5572
13760TIP3    H262696   0.290   2.615  14.932  1.1985  0.6307 -0.2634
13761TIP3   OH262697   4.837   0.740  14.730 -0.6550 -0.3764  0.0706
13761TIP3    H162698   4.813   0.696  14.649 -2.2689 -0.6811  0.6746
13761TIP3    H262699   4.763   0.798  14.749  0.8562  1.7206 -0.0395
13762TIP3   OH262700   1.885   2.764   4.329 -1.1130  0.1255  0.5145
13762TIP3    H162701   1.933   2.734   4.252 -1.8817  0.4541 -0.0946
13762TIP3    H262702   1.796   2.732   4.316 -1.2334  0.1151  1.3087
13763TIP3   OH262703   5.083   1.850   0.160  0.7698  0.2414 -0.6817
13763TIP3    H162704   5.040   1.933   0.137  1.6791  0.9134 -0.0143
13763TIP3    H262705   5.123   1.821   0.078 -1.7572 -0.9323 -1.5895
13764TIP3   OH262706   2.572   6.432  13.021 -0.4435 -0.7648 -0.5657
13764TIP3    H162707   2.482   6.428  13.055 -0.6361  2.0162 -0.5154
13764TIP3    H262708   2.563   6.466  12.932  0.4916 -2.0208 -1.1713
13765TIP3   OH262709   4.954   5.900  15.243 -0.0902  0.5345  0.5148
13765TIP3    H162710   4.916   5.825  15.197 -0.6060  1.4297 -0.5407
13765TIP3    H262711   4.878   5.950  15.273  0.2552  0.9318  0.7248
13766TIP3   OH262712   1.696   5.675   1.782  0.0292  0.3755  0.1143
13766TIP3    H162713   1.661   5.650   1.697  1.8417  2.3669 -1.3242
13766TIP3    H262714   1.785   5.706   1.763  1.3504 -1.1707  3.0511
13767TIP3   OH262715   1.014   4.388  17.120  0.5060 -0.0126  0.7204
13767TIP3    H162716   1.109   4.379  17.116  0.4552 -0.7203  0.9652
13767TIP3    H262717   0.986   4.321  17.183 -0.1080  0.5308  1.0436
13768TIP3   OH262718   2.025   4.710   2.604 -0.4266  0.1459  0.1271
13768TIP3    H162719   2.086   4.777   2.571 -0.5588 -0.9828 -2.6613
13768TIP3    H262720   2.076   4.629   2.601 -1.3303 -0.4279  0.0678
13769TIP3   OH262721   5.036   5.176  10.561 -0.1459 -0.5730  0.0994
13769TIP3    H162722   5.117   5.226  10.570 -0.2702 -0.1896 -0.8261
13769TIP3    H262723   5.063   5.094  10.521 -0.1157 -0.7615  0.4965
13770TIP3   OH262724   5.342   3.943  12.000  0.2946 -0.0734  0.1295
13770TIP3    H162725   5.414   3.995  12.034  0.0232  0.7034 -0.4752
13770TIP3    H262726   5.365   3.924  11.909  0.2131 -0.6995  0.2303
13771TIP3   OH262727   5.899   0.371  13.022 -0.0280  0.4112  0.7859
13771TIP3    H162728   5.888   0.456  12.979 -1.9979 -1.6974 -3.4404
13771TIP3    H262729   5.824   0.364  13.081 -0.7375  0.9996 -0.0263
13772TIP3   OH262730   3.217   2.791  10.959 -0.1912 -0.6604  0.2990
13772TIP3    H162731   3.293   2.820  10.908 -0.6051 -0.6008 -0.3049
13772TIP3    H262732   3.180   2.872  10.994 -1.0905 -0.4546 -1.0237
13773TIP3   OH262733   1.202   1.173  11.050  0.1486 -0.0720 -0.1619
13773TIP3    H162734   1.251   1.094  11.073  1.2358  0.7014  0.2469
13773TIP3    H262735   1.215   1.182  10.955  0.7289  0.0769 -0.0708
13774TIP3   OH262736   4.415   1.083  15.675  0.3862 -0.1682 -0.0796
13774TIP3    H162737   4.424   1.060  15.582 -0.9784 -0.9559 -0.0450
13774TIP3    H262738   4.411   1.178  15.675  3.4055  0.0581 -0.5031
13775TIP3   OH262739   5.614   3.495  15.790 -0.6266  0.3793  0.9572
13775TIP3    H162740   5.560   3.471  15.715  1.7624  0.3961 -0.9037
13775TIP3    H262741   5.676   3.422  15.798  1.0040  1.7265  1.0139
13776TIP3   OH262742   1.330   2.819  11.500  0.1686  0.0918  0.0376
13776TIP3    H162743   1.351   2.747  11.559  2.2977  0.2230 -0.4768
13776TIP3    H262744   1.255   2.788  11.450 -1.4398 -0.1862  2.4731
13777TIP3   OH262745   6.288   5.369   2.228 -0.4006 -0.1090  0.7413
13777TIP3    H162746   6.287   5.273   2.234 -0.8000 -0.0203  2.2667
13777TIP3    H262747   6.379   5.393   2.244  0.4863 -0.3513 -2.9127
13778TIP3   OH262748   6.170   1.555  16.331 -0.0778  0.0005  0.2832
13778TIP3    H162749   6.081   1.589  16.321 -0.6354 -0.6379  2.5053
13778TIP3    H262750   6.197   1.532  16.242 -1.6513  1.3300 -0.5963
13779TIP3   OH262751   3.804   0.897   5.729  0.3425 -0.2026  0.0795
13779TIP3    H162752   3.871   0.845   5.685  0.1151 -0.8856  0.5174
13779TIP3    H262753   3.840   0.914   5.816 -0.0961 -0.6906  0.3645
13780TIP3   OH262754   6.114   4.118   5.726 -0.1632 -0.1499  0.2809
13780TIP3    H162755   6.076   4.120   5.814  0.5092 -0.5700  0.5871
13780TIP3    H262756   6.204   4.091   5.739  0.0203  0.0402 -0.5202
13781TIP3   OH262757   5.752   1.652  13.130 -0.8805  0.1779  0.1604
13781TIP3    H162758   5.772   1.603  13.050 -2.9745  1.1025 -0.9963
13781TIP3    H262759   5.732   1.740  13.100  1.4382  1.4768  2.0673
13782TIP3   OH262760   4.208   0.518   5.383 -0.3304 -0.0587 -0.4074
13782TIP3    H162761   4.263   0.499   5.307  0.6217 -0.8647  0.4620
13782TIP3    H262762   4.260   0.578   5.436 -0.1029 -1.1179  0.6052
13783TIP3   OH262763   3.720   5.292  14.453 -0.0532  0.0549 -0.2965
13783TIP3    H162764   3.782   5.293  14.380 -0.6064 -0.3057 -0.7868
13783TIP3    H262765   3.769   5.256  14.526  0.3407 -0.1421 -0.6532
13784TIP3   OH262766   4.018   1.810  12.748 -0.0465  0.2866  0.1306
13784TIP3    H162767   4.022   1.737  12.686 -2.0095  0.0805  0.1722
13784TIP3    H262768   4.014   1.767  12.834 -0.4382  0.4551  0.1992
13785TIP3   OH262769   4.496   3.378  11.550 -0.0490 -0.2925 -0.2545
13785TIP3    H162770   4.477   3.395  11.642  1.7432 -2.7480  0.6802
13785TIP3    H262771   4.414   3.341  11.515  0.0510 -1.9109  1.1242
13786TIP3   OH262772   4.942   5.421   4.490  0.1769 -0.0342 -0.4958
13786TIP3    H162773   4.995   5.460   4.559  0.5731  1.1530 -1.4379
13786TIP3    H262774   4.989   5.341   4.467  0.1435 -0.3419  0.4612
13787TIP3   OH262775   4.060   1.500  15.517  0.3747 -0.1948 -0.1525
13787TIP3    H162776   4.083   1.593  15.527 -0.0802 -0.1413  0.5147
13787TIP3    H262777   4.068   1.464  15.606  1.3408 -0.9889 -0.5491
13788TIP3   OH262778   6.035   4.232   0.842  0.2997 -0.3073 -0.8392
13788TIP3    H162779   6.097   4.287   0.795 -0.1816 -0.0888 -1.2314
13788TIP3    H262780   6.023   4.274   0.927 -0.1279  0.2468 -1.1673
13789TIP3   OH262781   6.454   1.147   3.239  0.2806 -0.4537 -0.1567
13789TIP3    H162782   6.366   1.167   3.271 -0.1018 -0.4035 -1.1828
13789TIP3    H262783   6.440   1.113   3.151  1.3568  0.4742 -0.7155
13790TIP3   OH262784   6.353   3.371   5.892 -0.0473 -0.2351  0.2394
13790TIP3    H162785   6.329   3.328   5.810 -0.1805  1.1404 -0.4725
13790TIP3    H262786   6.272   3.410   5.924  0.6581  2.6007 -1.0757
13791TIP3   OH262787   1.075   0.685  12.712 -0.0352 -0.2530 -0.5693
13791TIP3    H162788   1.159   0.693  12.666 -0.3114 -0.3886 -1.1032
13791TIP3    H262789   1.019   0.750  12.670 -0.2710 -0.3290 -0.3737
13792TIP3   OH262790   2.756   3.563   2.966 -0.4418  0.6977 -0.5045
13792TIP3    H162791   2.750   3.493   2.900 -0.5600  1.6253 -1.5036
13792TIP3    H262792   2.696   3.630   2.934 -1.1946  0.7968  1.0395
13793TIP3   OH262793   2.529   0.261   3.128 -0.2523  0.5418 -0.0838
13793TIP3    H162794   2.461   0.328   3.130 -1.3543 -0.4583  3.8412
13793TIP3    H262795   2.585   0.282   3.203  1.9750 -0.5023 -1.3560
13794TIP3   OH262796   6.483   2.909   2.238  0.1282  0.2759  0.3141
13794TIP3    H162797   6.420   2.855   2.190  0.5576 -0.1979  0.2632
13794TIP3    H262798   6.449   2.998   2.233  1.2604  0.6517 -2.8255
13795TIP3   OH262799   5.913   3.678  13.106 -0.2294  0.6965 -0.4603
13795TIP3    H162800   5.827   3.721  13.113 -0.7949 -0.5248  0.3283
13795TIP3    H262801   5.954   3.721  13.031 -1.7452  0.9430 -1.1910
13796TIP3   OH262802   4.451   1.513  15.134  0.4789 -0.8011 -0.0469
13796TIP3    H162803   4.436   1.432  15.086  0.6258  0.3039 -2.0741
13796TIP3    H262804   4.489   1.573  15.069 -0.4102  1.1559  1.1445
13797TIP3   OH262805   3.875   4.874  14.458  0.1509 -0.2933  0.3908
13797TIP3    H162806   3.829   4.849  14.377 -0.9383  2.6355 -0.0172
13797TIP3    H262807   3.809   4.922  14.509  1.8003  0.9907  1.4096
13798TIP3   OH262808   0.004   2.351   0.659 -0.1181 -0.2104 -0.5851
13798TIP3    H162809  -0.012   2.261   0.685 -1.1195 -0.4916 -2.0582
13798TIP3    H262810  -0.077   2.398   0.681  0.4630  0.3969  0.3488
13799TIP3   OH262811   1.961   0.844   5.782 -0.4615 -0.5364  0.4638
13799TIP3    H162812   2.010   0.803   5.853 -0.5003  0.7051  1.2389
13799TIP3    H262813   1.938   0.931   5.815  0.6989  0.6277 -1.5550
13800TIP3   OH262814   6.066   6.585   0.181 -0.1907  0.5006 -0.1312
13800TIP3    H162815   6.108   6.662   0.144 -1.7435  1.2874 -0.3331
13800TIP3    H262816   6.071   6.520   0.111 -0.3158  0.9510 -0.5633
13801TIP3   OH262817   0.684   0.984   0.088  0.1241  0.3320  0.3367
13801TIP3    H162818   0.595   0.984   0.054  0.0264 -1.0820  0.5715
13801TIP3    H262819   0.726   1.059   0.044 -0.3440 -0.6804 -1.9802
13802TIP3   OH262820   2.156   0.948  14.741  0.2647  0.0765  0.1462
13802TIP3    H162821   2.242   0.980  14.715  0.3939  0.3785  0.9076
13802TIP3    H262822   2.149   0.970  14.834 -0.2728 -0.7471  0.3162
13803TIP3   OH262823   1.527   0.131  12.929 -0.1746 -0.4723 -0.1592
13803TIP3    H162824   1.555   0.039  12.920 -1.0379 -0.6937 -0.6294
13803TIP3    H262825   1.476   0.133  13.010 -1.9929 -0.8933 -1.2368
13804TIP3   OH262826   0.654   3.899  16.743  0.2698 -0.4721  0.0672
13804TIP3    H162827   0.728   3.897  16.682 -1.3500  0.7964 -2.1172
13804TIP3    H262828   0.601   3.822  16.718 -0.2948 -0.0671 -0.0119
13805TIP3   OH262829   3.923   6.600   3.415  0.2364  0.0208 -0.0070
13805TIP3    H162830   3.972   6.538   3.469 -0.3208  1.8503  2.8229
13805TIP3    H262831   3.990   6.652   3.371  0.9295  1.2889  2.3775
13806TIP3   OH262832   2.150   0.428  12.053  0.1167  0.3228  0.3108
13806TIP3    H162833   2.128   0.430  12.146  1.1920  1.5065  0.5692
13806TIP3    H262834   2.091   0.490  12.012  1.6640  2.1531  0.7254
13807TIP3   OH262835   4.836   2.824  12.561 -0.0923  0.4401 -0.7048
13807TIP3    H162836   4.832   2.803  12.654  0.2305  2.0743 -0.2824
13807TIP3    H262837   4.929   2.837  12.543 -0.2773  1.8855 -0.7827
13808TIP3   OH262838   2.008   1.570   5.418 -0.0753 -1.0903 -1.0551
13808TIP3    H162839   2.007   1.555   5.513 -0.5722  1.4139 -0.5914
13808TIP3    H262840   2.070   1.642   5.406 -1.0692 -0.4143 -2.4494
13809TIP3   OH262841   6.052   3.637  17.320 -0.0175  0.0787  0.0317
13809TIP3    H162842   6.010   3.625  17.234  2.2072  0.7161 -1.2360
13809TIP3    H262843   6.124   3.575  17.320 -1.3436 -1.5818  2.4953
13810TIP3   OH262844   1.383   3.401   2.444 -0.5564 -0.4987  0.9543
13810TIP3    H162845   1.401   3.326   2.386 -1.3567 -0.9301  1.2499
13810TIP3    H262846   1.450   3.395   2.512 -1.1955 -1.5399  1.5238
13811TIP3   OH262847   3.976   0.932  15.115 -0.4917  0.0771  0.4422
13811TIP3    H162848   3.910   0.884  15.064 -1.2501  0.8740  0.6437
13811TIP3    H262849   4.049   0.943  15.054 -0.2870 -1.3300  0.3962
13812TIP3   OH262850   5.801   2.967  12.167 -0.0159  0.1114  0.1303
13812TIP3    H162851   5.862   2.920  12.224  0.1014  1.4153  1.1544
13812TIP3    H262852   5.854   3.033  12.124 -0.4508  0.3455 -0.0552
13813TIP3   OH262853   4.571   6.337   2.900  0.3667 -0.1370 -0.6464
13813TIP3    H162854   4.494   6.372   2.946  1.4919 -0.4372  1.6205
13813TIP3    H262855   4.534   6.279   2.833 -1.3994  1.3697 -1.0730
13814TIP3   OH262856   1.378   2.622  11.669  0.6477 -0.1627 -0.4998
13814TIP3    H162857   1.367   2.657  11.758 -0.6103 -0.2220 -0.6043
13814TIP3    H262858   1.369   2.527  11.680 -0.3953 -0.1098 -0.7902
13815TIP3   OH262859   5.124   5.495   0.501  0.6109  0.0935 -0.1271
13815TIP3    H162860   5.071   5.575   0.498  0.5967  0.0659 -0.8078
13815TIP3    H262861   5.212   5.524   0.477  0.1562 -0.4341 -2.8002
13816TIP3   OH262862   0.780   2.031  11.048  0.1305  0.1825  0.1310
13816TIP3    H162863   0.864   2.025  11.004  0.2635 -1.1073  0.5039
13816TIP3    H262864   0.779   1.957  11.108 -0.4368  1.3467  1.6216
13817TIP3   OH262865   5.545   1.484   5.766 -0.0753 -0.4811 -0.0666
13817TIP3    H162866   5.633   1.455   5.791  1.0072  1.2765 -1.6397
13817TIP3    H262867   5.508   1.520   5.846  0.1917 -2.1489  0.8631
13818TIP3   OH262868   1.488   0.755  13.707  0.2279 -1.1002 -0.6155
13818TIP3    H162869   1.450   0.683  13.758 -3.6814  0.9166 -0.3442
13818TIP3    H262870   1.475   0.729  13.616 -0.5931 -1.0577 -0.5195
13819TIP3   OH262871   1.306   5.118  17.214  0.1770  0.3577 -0.0901
13819TIP3    H162872   1.298   5.064  17.135  0.0863 -1.7339  1.2652
13819TIP3    H262873   1.306   5.208  17.182  0.7715 -0.4379 -2.5106
13820TIP3   OH262874   2.135   2.774   3.578  0.4784 -0.2273  0.1028
13820TIP3    H162875   2.172   2.686   3.590 -1.0899 -1.0296 -0.6336
13820TIP3    H262876   2.076   2.786   3.653 -0.1970 -0.3021 -0.4072
13821TIP3   OH262877   5.851   0.390  15.205 -0.2606 -0.2525 -0.2552
13821TIP3    H162878   5.910   0.344  15.264  1.1091  0.8927 -0.6593
13821TIP3    H262879   5.834   0.328  15.134  1.2119 -0.3080 -0.5854
13822TIP3   OH262880   1.854   1.095  13.265  0.2058  0.1332  0.4925
13822TIP3    H162881   1.925   1.030  13.262 -1.1417 -1.4493 -3.5668
13822TIP3    H262882   1.808   1.077  13.346  0.9879 -2.8348  0.3741
13823TIP3   OH262883   0.917   6.625  13.563  0.6047  0.1158  0.0502
13823TIP3    H162884   0.824   6.618  13.541  0.8754  1.8854 -2.0029
13823TIP3    H262885   0.926   6.714  13.599  1.9410  1.1820 -2.6717
13824TIP3   OH262886   0.654   3.539  16.026  0.4344  0.2076 -0.3874
13824TIP3    H162887   0.581   3.486  16.059 -1.3361  1.5314 -1.9488
13824TIP3    H262888   0.686   3.491  15.950 -0.6101  0.9086 -1.2948
13825TIP3   OH262889   2.107   0.540   3.816  0.5607  0.8312  0.5355
13825TIP3    H162890   2.158   0.470   3.858 -1.9478 -0.6374  1.3874
13825TIP3    H262891   2.105   0.610   3.881 -0.0429  0.1285  1.3135
13826TIP3   OH262892   4.461   1.510   5.686 -0.0427 -0.7346 -0.0128
13826TIP3    H162893   4.479   1.423   5.721 -0.0358 -1.1800 -1.0679
13826TIP3    H262894   4.366   1.518   5.689 -0.0983 -1.0964 -0.6112
13827TIP3   OH262895   1.575   1.126   5.073 -0.1942  0.7038  0.3464
13827TIP3    H162896   1.590   1.213   5.109  0.5291  0.4527  0.6571
13827TIP3    H262897   1.617   1.129   4.987 -0.5178  0.7867  0.1898
13828TIP3   OH262898   1.338   4.115   2.124 -0.0354  0.1620  0.6396
13828TIP3    H162899   1.258   4.074   2.157 -1.7802  1.2220 -1.9502
13828TIP3    H262900   1.382   4.046   2.074 -0.7678  0.2887 -0.1959
13829TIP3   OH262901   2.402   0.212  11.128  0.1099 -0.3138 -0.3039
13829TIP3    H162902   2.467   0.246  11.189  0.6529 -2.0166  0.1222
13829TIP3    H262903   2.346   0.287  11.108  1.7500  0.9959 -0.1079
13830TIP3   OH262904   2.845   6.266  11.498 -0.2031  0.3061 -0.1880
13830TIP3    H162905   2.870   6.191  11.444 -1.3116 -0.0108 -0.2817
13830TIP3    H262906   2.795   6.227  11.571 -0.7259  0.9393 -0.2018
13831TIP3   OH262907   3.995   0.871   4.840 -0.3129 -0.1363 -0.0699
13831TIP3    H162908   3.916   0.922   4.861  1.0029  1.9846  0.0430
13831TIP3    H262909   4.003   0.878   4.745 -0.4666 -0.7002 -0.1278
13832TIP3   OH262910   6.098   1.950   3.043 -0.2073 -0.4279 -0.4016
13832TIP3    H162911   6.038   2.017   3.009 -0.8411 -0.0848  1.2939
13832TIP3    H262912   6.152   1.997   3.107  0.2691 -1.2465 -0.1985
13833TIP3   OH262913   3.270   5.135   1.828 -0.6773  0.5742  0.4326
13833TIP3    H162914   3.240   5.224   1.806  2.1413  1.2416 -1.3728
13833TIP3    H262915   3.235   5.080   1.758 -0.8885  0.6319  0.4942
13834TIP3   OH262916   0.433   0.679   0.059  0.4339 -0.1094 -0.5956
13834TIP3    H162917   0.350   0.649   0.020  0.6101 -2.1851  0.4862
13834TIP3    H262918   0.407   0.716   0.143  0.6001 -0.9116 -0.1834
13835TIP3   OH262919   1.584   5.426  11.346 -0.9438 -0.0951  0.4634
13835TIP3    H162920   1.576   5.369  11.270  1.3289  2.5178 -1.9654
13835TIP3    H262921   1.512   5.488  11.337 -0.0763  0.8465 -0.2283
13836TIP3   OH262922   6.541   0.886  15.084  0.3483  0.1531 -0.6750
13836TIP3    H162923   6.465   0.891  15.142 -0.7039 -0.3687 -1.9651
13836TIP3    H262924   6.535   0.963  15.028 -0.0914 -0.6639 -1.7814
13837TIP3   OH262925   4.305   2.613  12.795  0.2907 -0.6029  0.1440
13837TIP3    H162926   4.360   2.681  12.833 -0.5275 -0.6811  1.5472
13837TIP3    H262927   4.218   2.652  12.791  0.1633 -0.9599 -0.7214
13838TIP3   OH262928   2.207   1.069  10.628  0.1372 -0.2134  0.3392
13838TIP3    H162929   2.216   1.020  10.710 -1.7923 -2.2256 -0.5742
13838TIP3    H262930   2.207   1.002  10.559  1.5711  1.4119 -1.3540
13839TIP3   OH262931   4.680   5.980   5.722  0.1310 -0.1369 -0.0868
13839TIP3    H162932   4.599   6.015   5.684  0.6939  1.7327  0.3138
13839TIP3    H262933   4.681   6.015   5.811  0.9954 -0.7867  0.1637
13840TIP3   OH262934   4.893   4.153  15.454  0.4581  0.6266  0.6549
13840TIP3    H162935   4.948   4.149  15.533  0.9753 -0.6259  0.2555
13840TIP3    H262936   4.809   4.116  15.482  0.6601  0.1268  0.6148
13841TIP3   OH262937   1.078   3.898   4.833 -0.3916 -0.0564  0.3164
13841TIP3    H162938   1.012   3.906   4.764  0.7364  0.5584 -0.7291
13841TIP3    H262939   1.037   3.843   4.899 -2.0168  0.4633 -0.2207
13842TIP3   OH262940   5.812   3.433   3.842 -0.1002  0.0507  0.0101
13842TIP3    H162941   5.777   3.437   3.931 -1.6059 -1.1974 -0.4750
13842TIP3    H262942   5.866   3.354   3.841  0.7805  0.6381  0.0816
13843TIP3   OH262943   5.259   1.229   4.839 -0.2354  0.5816  0.0163
13843TIP3    H162944   5.323   1.159   4.853 -1.2480 -0.2676  0.5423
13843TIP3    H262945   5.236   1.222   4.747 -1.6240 -0.9508  0.4400
13844TIP3   OH262946   1.660   6.732   1.339 -0.6108  0.2362  0.0905
13844TIP3    H162947   1.689   6.714   1.249  0.1638 -0.1782  0.4074
13844TIP3    H262948   1.677   6.825   1.351 -1.4360  0.4686 -0.4350
13845TIP3   OH262949   5.353   5.991  12.465 -0.1952 -0.2694  0.6366
13845TIP3    H162950   5.430   6.027  12.508  0.2573 -0.1008 -0.2944
13845TIP3    H262951   5.331   5.912  12.515  0.0012  0.2021  1.4793
13846TIP3   OH262952   4.308   5.373  15.140  0.3306  0.2275  0.3866
13846TIP3    H162953   4.256   5.419  15.074  1.2158  1.0279  0.2227
13846TIP3    H262954   4.346   5.443  15.194  2.7183 -0.1865 -0.6334
13847TIP3   OH262955   4.527   6.351  13.228  0.2765 -0.6326 -0.0900
13847TIP3    H162956   4.600   6.412  13.241 -0.4297 -0.0709  1.5846
13847TIP3    H262957   4.465   6.399  13.174  0.6059 -0.6506 -0.4917
13848TIP3   OH262958   2.176   2.507  15.660 -0.4514 -0.3935  0.2493
13848TIP3    H162959   2.267   2.496  15.631 -0.5523 -1.9422  0.4505
13848TIP3    H262960   2.124   2.459  15.595 -1.1753  0.8299 -0.1000
13849TIP3   OH262961   5.323   4.503  12.730 -0.0910 -1.0400  0.0764
13849TIP3    H162962   5.405   4.453  12.728 -0.2167 -1.2171 -1.7199
13849TIP3    H262963   5.256   4.439  12.753 -0.3916 -2.0180 -3.0638
13850TIP3   OH262964   4.015   3.854  14.543 -0.0887  0.3477  0.0617
13850TIP3    H162965   3.950   3.844  14.613  2.5008  0.1535  2.6203
13850TIP3    H262966   4.091   3.804  14.573  1.0408 -0.0942 -3.1518
13851TIP3   OH262967   1.862   2.551  15.265 -0.3308  0.3030 -0.0808
13851TIP3    H162968   1.917   2.618  15.223 -0.5970  0.2125 -0.5761
13851TIP3    H262969   1.773   2.573  15.238 -0.4107 -0.3214 -0.3369
13852TIP3   OH262970   4.884   2.686  14.409 -0.0747 -0.4355  0.1277
13852TIP3    H162971   4.927   2.756  14.360 -0.0799  0.6690  1.6379
13852TIP3    H262972   4.955   2.648  14.462 -0.3579 -0.6115  0.3814
13853TIP3   OH262973   6.761   4.311   6.939 -0.2129  0.1393 -1.2193
13853TIP3    H162974   6.670   4.284   6.956  0.2570 -0.4643  0.6145
13853TIP3    H262975   6.753   4.398   6.900 -1.6108  1.6776  2.0403
13854TIP3   OH262976   5.737   2.716  12.009  0.0535 -0.5126 -0.3547
13854TIP3    H162977   5.735   2.808  12.032 -0.7364 -0.3383 -1.0799
13854TIP3    H262978   5.686   2.673  12.078  0.8435 -0.4805  0.2596
13855TIP3   OH262979   3.039   0.412   0.292  0.4319  0.1717  0.8428
13855TIP3    H162980   3.133   0.409   0.273  0.4465  0.7439  0.8011
13855TIP3    H262981   3.030   0.367   0.377  0.3330 -2.5931 -0.5297
13856TIP3   OH262982   0.575   3.771  13.013 -0.2286 -0.3515  0.0984
13856TIP3    H162983   0.524   3.729  13.082 -1.2818  0.0301 -0.4115
13856TIP3    H262984   0.659   3.792  13.053  0.2319 -2.6440  0.4644
13857TIP3   OH262985   0.676   4.191  11.763 -0.1398  0.1991 -0.1018
13857TIP3    H162986   0.623   4.255  11.715  1.8184  0.3140 -2.2482
13857TIP3    H262987   0.751   4.240  11.795  0.1660 -0.5312  0.3282
13858TIP3   OH262988   3.209   5.051  11.885 -0.5715  0.5285 -0.0965
13858TIP3    H162989   3.219   4.956  11.879 -2.2016  0.2821  0.5051
13858TIP3    H262990   3.140   5.071  11.821  0.8057  1.5429 -1.3374
13859TIP3   OH262991   1.611   6.089   4.175 -0.2050 -0.1207 -0.3976
13859TIP3    H162992   1.586   6.179   4.195 -0.2692 -0.4001  0.9046
13859TIP3    H262993   1.535   6.052   4.130 -1.6804 -0.5181  2.1680
13860TIP3   OH262994   3.950   6.129   2.680  0.3090  0.3069  0.6026
13860TIP3    H162995   4.044   6.142   2.691  0.5481 -1.1509  0.4964
13860TIP3    H262996   3.942   6.084   2.596 -0.3174 -1.2473  1.4648
13861TIP3   OH262997   6.747   1.339  10.422 -0.5770  0.2990  0.0247
13861TIP3    H162998   6.688   1.407  10.389 -0.9711  0.2748  0.6660
13861TIP3    H262999   6.724   1.261  10.370  0.7599  0.9336 -1.6298
13862TIP3   OH263000   3.055   4.778   1.826 -0.2288 -0.5975 -0.2261
13862TIP3    H163001   2.993   4.841   1.788 -2.0316 -1.7759  0.6476
13862TIP3    H263002   3.119   4.763   1.756 -0.6601  0.9529 -1.0159
13863TIP3   OH263003   2.954   2.057  11.925 -0.3664 -0.0783 -0.1783
13863TIP3    H163004   2.866   2.035  11.955 -0.2314 -1.4499 -0.7152
13863TIP3    H263005   3.011   1.996  11.972  0.2697  0.6366 -0.0151
13864TIP3   OH263006   0.475   2.833   2.499 -0.2162 -0.2461  0.8754
13864TIP3    H163007   0.385   2.846   2.468  0.0342  1.2037  0.7134
13864TIP3    H263008   0.488   2.901   2.565  1.3263  0.6939 -0.3407
13865TIP3   OH263009   0.147   6.167   2.228 -0.3090  0.5333 -0.9771
13865TIP3    H163010   0.061   6.207   2.211 -0.8867 -0.1374  0.2139
13865TIP3    H263011   0.171   6.198   2.315  0.1767 -0.0906 -0.8813
13866TIP3   OH263012   2.734   1.375   6.060  0.1860  1.1116  0.1999
13866TIP3    H163013   2.704   1.456   6.099  1.2396  0.7663  1.8164
13866TIP3    H263014   2.830   1.384   6.057  0.2189  0.5798 -1.1021
13867TIP3   OH263015   0.805   3.411  16.270 -0.3967  0.0778 -0.1536
13867TIP3    H163016   0.800   3.470  16.195  0.7807  0.8998  0.3781
13867TIP3    H263017   0.782   3.325  16.234 -1.3712  0.7071 -1.1088
13868TIP3   OH263018   4.425   6.252  15.335  0.2532  0.3986  0.2663
13868TIP3    H163019   4.336   6.219  15.340  0.2855  0.2550 -0.0865
13868TIP3    H263020   4.449   6.270  15.426 -0.6274  1.7559  0.2629
13869TIP3   OH263021   3.428   1.482  13.583  0.2925 -0.0044  0.1731
13869TIP3    H163022   3.392   1.394  13.574 -0.5933  0.4461 -1.0377
13869TIP3    H263023   3.523   1.470  13.578  0.2187 -0.9694  0.8782
13870TIP3   OH263024   3.230   4.671  12.841  0.4033 -0.7996  0.5760
13870TIP3    H163025   3.229   4.653  12.747  1.0129  1.2548  0.1285
13870TIP3    H263026   3.206   4.588  12.882 -1.5615 -1.3050 -1.4354
13871TIP3   OH263027   0.337   3.398   2.001  0.0719 -0.8366  0.2685
13871TIP3    H163028   0.375   3.376   1.916  0.5856 -1.1637  0.5783
13871TIP3    H263029   0.407   3.443   2.047  0.0611 -1.3794  0.8187
13872TIP3   OH263030   6.239   1.220   4.816 -0.8491 -0.3668 -0.1280
13872TIP3    H163031   6.299   1.260   4.754 -0.7348 -0.6533 -0.2048
13872TIP3    H263032   6.297   1.174   4.878 -0.9083  0.6507  0.7206
13873TIP3   OH263033   5.836   2.118   4.358  0.1439  0.4772 -0.1320
13873TIP3    H163034   5.847   2.185   4.291 -2.2052 -0.8416 -2.0071
13873TIP3    H263035   5.898   2.049   4.334  1.1516  1.1033  0.6273
13874TIP3   OH263036   5.623   5.139  12.550 -0.6338  0.7170 -0.5815
13874TIP3    H163037   5.662   5.182  12.626  0.8453 -1.0030 -0.3025
13874TIP3    H263038   5.690   5.146  12.482  1.2348 -3.9038  0.4394
13875TIP3   OH263039   5.180   1.189   2.423 -0.9734 -0.2230 -0.2811
13875TIP3    H163040   5.156   1.096   2.419 -0.4439 -0.3319 -1.3772
13875TIP3    H263041   5.224   1.199   2.508 -0.4126 -1.1393 -0.4503
13876TIP3   OH263042   6.003   3.009  11.167  0.7583 -0.2435 -0.1517
13876TIP3    H163043   5.966   3.005  11.079 -0.8193 -1.3419  0.5181
13876TIP3    H263044   6.094   2.982  11.156  1.6867  3.1029 -1.9412
13877TIP3   OH263045   5.560   5.741  12.005 -0.2519  0.5692 -0.3183
13877TIP3    H163046   5.516   5.760  12.087 -1.7867  0.5677 -1.0944
13877TIP3    H263047   5.504   5.676  11.962 -0.1528  1.4537 -1.8781
13878TIP3   OH263048   4.680   5.413   2.081  0.1324 -0.4937  0.0529
13878TIP3    H163049   4.609   5.361   2.044  0.8836 -2.2726  0.9600
13878TIP3    H263050   4.725   5.450   2.005 -0.5951 -0.9437 -0.6127
13879TIP3   OH263051   3.154   4.355  12.428  0.0066 -0.5057 -0.2433
13879TIP3    H163052   3.087   4.344  12.360  0.7201 -0.2714 -1.0081
13879TIP3    H263053   3.125   4.432  12.478  0.2585  0.2815 -1.2684
13880TIP3   OH263054   6.517   0.086   5.029 -0.4589  0.5110 -0.2906
13880TIP3    H163055   6.547   0.088   4.938 -1.2112 -0.8108 -0.5925
13880TIP3    H263056   6.575   0.023   5.072  0.2301  1.5160  0.2972
13881TIP3   OH263057   6.420   3.638  15.091 -0.0631  0.4629 -0.6735
13881TIP3    H163058   6.423   3.724  15.049  2.2319  1.2226  0.8435
13881TIP3    H263059   6.484   3.585  15.043 -0.9515 -0.2083 -1.1496
13882TIP3   OH263060   5.527   5.579   5.576 -0.3313  0.2110  0.2622
13882TIP3    H163061   5.513   5.492   5.537  0.0184 -0.1387  0.9010
13882TIP3    H263062   5.463   5.584   5.647 -0.8509  0.7813 -0.2289
13883TIP3   OH263063   4.705   1.053  14.779  0.2381 -0.2138  0.2420
13883TIP3    H163064   4.611   1.034  14.784  0.1485  0.3828  1.1697
13883TIP3    H263065   4.713   1.114  14.707 -0.5355  1.9916  1.9043
13884TIP3   OH263066   0.992   6.010  15.823 -0.1383  0.3526  0.3102
13884TIP3    H163067   0.933   5.951  15.777 -0.8726  1.3090  0.0018
13884TIP3    H263068   1.030   6.065  15.755  1.7953 -0.7645  0.3801
13885TIP3   OH263069   4.233   5.067  16.080  0.0048 -0.3303 -0.3992
13885TIP3    H163070   4.259   5.010  16.152  1.4292 -0.3699 -0.9160
13885TIP3    H263071   4.267   5.153  16.103 -1.9323  0.3115  0.2642
13886TIP3   OH263072   0.911   4.066  16.344 -0.3509  0.2683 -0.6347
13886TIP3    H163073   0.998   4.084  16.378 -1.2392  2.4172  0.7264
13886TIP3    H263074   0.913   3.974  16.319  1.9836  0.0036  0.3026
13887TIP3   OH263075   4.497   5.581   4.863 -0.0335 -1.0240  0.5141
13887TIP3    H163076   4.403   5.570   4.855 -0.0932 -0.1867 -0.1953
13887TIP3    H263077   4.532   5.493   4.874 -0.7608 -1.5154 -0.8775
13888TIP3   OH263078   1.788   4.345  16.916  0.6615  0.4384 -0.1888
13888TIP3    H163079   1.807   4.252  16.932  1.0292  0.2918 -1.3616
13888TIP3    H263080   1.838   4.366  16.838 -0.8810  1.1113 -1.0452
13889TIP3   OH263081   1.567   6.613   4.090 -0.1540 -0.0070  0.3232
13889TIP3    H163082   1.631   6.632   4.022 -0.4450 -0.1595 -0.0030
13889TIP3    H263083   1.498   6.565   4.044 -0.5070  0.1680  0.6642
13890TIP3   OH263084   2.510   0.152  11.738  0.0576 -0.3546 -0.8585
13890TIP3    H163085   2.497   0.210  11.814 -1.0502  0.5149 -1.6830
13890TIP3    H263086   2.563   0.080  11.773 -0.6314 -0.1149  0.8166
13891TIP3   OH263087   2.255   1.542  15.667 -0.5421  0.0793 -0.5405
13891TIP3    H163088   2.248   1.447  15.660  0.0232 -0.0618  0.7126
13891TIP3    H263089   2.245   1.561  15.760 -1.7051  1.3537 -0.8757
13892TIP3   OH263090   2.370   1.411  14.364  0.4090 -0.1068  0.2639
13892TIP3    H163091   2.394   1.473  14.295  0.9434 -2.0397 -1.3983
13892TIP3    H263092   2.454   1.380  14.397  0.1762 -1.0006  0.0366
13893TIP3   OH263093   3.124   5.141   2.934  0.4139  0.4578 -0.1268
13893TIP3    H163094   3.055   5.099   2.881  1.7323  0.5367 -1.9958
13893TIP3    H263095   3.081   5.217   2.972 -1.4434 -1.3042  1.5554
13894TIP3   OH263096   3.086   2.757   3.383  0.2834  0.4613  0.7942
13894TIP3    H163097   3.050   2.708   3.457  1.5413 -0.2524  0.9650
13894TIP3    H263098   3.168   2.712   3.362  0.3941  1.1987 -0.4576
13895TIP3   OH263099   1.695   1.251   5.808 -0.3041  0.0991  0.0628
13895TIP3    H163100   1.621   1.212   5.761  1.0130 -1.0128 -1.1700
13895TIP3    H263101   1.658   1.329   5.849 -1.7993  0.4875 -1.8655
13896TIP3   OH263102   1.149   3.478   2.089  0.1217  0.2265 -0.4994
13896TIP3    H163103   1.124   3.453   2.177 -0.1778 -2.1586 -1.2023
13896TIP3    H263104   1.132   3.400   2.036  1.1075  1.3065 -2.5135
13897TIP3   OH263105   4.391   5.845  13.598  0.4858 -0.4840 -0.7619
13897TIP3    H163106   4.349   5.843  13.684  1.3719  0.7165 -0.2761
13897TIP3    H263107   4.328   5.803  13.539 -0.7719 -0.0015  0.2072
13898TIP3   OH263108   1.118   0.490  13.540 -0.5008  0.0483  0.1259
13898TIP3    H163109   1.192   0.528  13.493 -0.6591  0.9026  0.5470
13898TIP3    H263110   1.046   0.490  13.477 -0.3951  0.1100  0.0070
13899TIP3   OH263111   6.597   1.612  15.221  0.5178  0.5977  0.2635
13899TIP3    H163112   6.596   1.547  15.151 -1.3348  0.3825  0.4402
13899TIP3    H263113   6.680   1.596  15.267  2.2089  1.3248 -2.3475
13900TIP3   OH263114   1.396   3.717  12.725 -0.7162  0.7457 -0.4187
13900TIP3    H163115   1.466   3.707  12.660  0.8444  1.8638  1.0357
13900TIP3    H263116   1.438   3.757  12.801 -2.9114  1.3319  0.5695
13901TIP3   OH263117   1.466   3.205  12.427 -0.0359  0.5295 -0.1466
13901TIP3    H163118   1.482   3.150  12.503  0.1491  0.2650 -0.3721
13901TIP3    H263119   1.385   3.170  12.389  0.8784 -0.5809 -1.1490
13902TIP3   OH263120   0.596   0.643   5.848 -0.3392  0.0410  0.3589
13902TIP3    H163121   0.552   0.599   5.921  0.1190  0.0179  0.6249
13902TIP3    H263122   0.592   0.736   5.870  0.9374 -0.0525  1.0661
13903TIP3   OH263123   2.969   4.562  17.071 -0.3035  0.3475 -0.5023
13903TIP3    H163124   2.935   4.473  17.069  0.2312  0.1138  0.5000
13903TIP3    H263125   3.059   4.553  17.101  0.2036  1.1020 -1.6806
13904TIP3   OH263126   1.917   1.332  15.471 -0.2877 -0.0683 -0.3404
13904TIP3    H163127   1.875   1.297  15.392  0.5116  0.2813 -0.9393
13904TIP3    H263128   1.932   1.255  15.526  0.2776 -0.5036 -1.0763
13905TIP3   OH263129   5.892   3.209  15.450  0.7308  0.2779  0.6380
13905TIP3    H163130   5.806   3.234  15.482  0.7397 -0.4585  1.2759
13905TIP3    H263131   5.942   3.291  15.450 -0.0551  0.7812 -0.0871
13906TIP3   OH263132   0.206   2.437  12.334 -0.4404 -0.2200  0.1375
13906TIP3    H163133   0.196   2.443  12.239 -0.9697  1.2868  0.2593
13906TIP3    H263134   0.295   2.467  12.351 -0.2580 -0.7369  0.1010
13907TIP3   OH263135   0.506   3.595   5.842  0.0179 -0.6316 -0.0164
13907TIP3    H163136   0.440   3.530   5.866 -0.4840  0.3444  1.4200
13907TIP3    H263137   0.580   3.545   5.810 -0.7296 -1.8500  0.1199
13908TIP3   OH263138   5.579   0.220  15.167 -1.3613  0.9271  0.5789
13908TIP3    H163139   5.560   0.263  15.251  1.4693  1.3717  1.0807
13908TIP3    H263140   5.642   0.152  15.189 -0.0991  1.4315 -1.2593
13909TIP3   OH263141   6.680   0.771   0.454  0.4144  0.4668 -0.0105
13909TIP3    H163142   6.753   0.795   0.397  0.5737  0.5494  0.2219
13909TIP3    H263143   6.660   0.851   0.502 -0.3253  0.6538 -0.6012
13910TIP3   OH263144   2.592   0.973  11.630 -0.0141 -0.1487  0.3192
13910TIP3    H163145   2.569   1.023  11.552 -1.2542 -2.3824 -0.8582
13910TIP3    H263146   2.508   0.958  11.674  0.3031 -1.1785  0.6052
13911TIP3   OH263147   3.566   4.210   5.725  0.9181 -1.0433  0.7408
13911TIP3    H163148   3.653   4.207   5.763  1.6962  1.6212 -0.5986
13911TIP3    H263149   3.515   4.266   5.784  1.0497 -0.0045 -0.1107
13912TIP3   OH263150   6.025   1.863  14.131  0.6272 -0.4096  0.2105
13912TIP3    H163151   5.955   1.905  14.181  0.7620 -1.5714  1.4546
13912TIP3    H263152   6.103   1.914  14.152  0.5742 -0.5424  0.7597
13913TIP3   OH263153   5.389   4.072   5.014 -0.6853 -0.0997 -0.4862
13913TIP3    H163154   5.317   4.047   5.071 -1.7245 -2.6770 -2.7417
13913TIP3    H263155   5.351   4.074   4.926  1.9488 -1.5929 -1.7807
13914TIP3   OH263156   1.950   3.161  14.088 -0.0998  0.0625  0.1998
13914TIP3    H163157   1.998   3.127  14.164  0.0331  2.0680  1.0718
13914TIP3    H263158   1.863   3.122  14.096  0.0526 -0.1154  1.1301
13915TIP3   OH263159   0.729   2.089   0.661 -0.1291 -0.3329 -0.0706
13915TIP3    H163160   0.673   2.067   0.736 -0.8611 -1.7307 -0.9921
13915TIP3    H263161   0.818   2.087   0.697 -0.5334  0.1976  1.0174
13916TIP3   OH263162   4.538   3.836   4.486 -0.1056  0.4691  0.3838
13916TIP3    H163163   4.609   3.783   4.449 -1.0044  0.1084 -0.8815
13916TIP3    H263164   4.460   3.783   4.474 -0.8808  1.6681 -0.0059
13917TIP3   OH263165   2.267   3.958   0.483 -0.2341  0.1503 -0.0263
13917TIP3    H163166   2.345   3.904   0.471  0.7775  1.0484  2.0304
13917TIP3    H263167   2.237   3.936   0.571 -1.5292  0.8125 -0.2859
13918TIP3   OH263168   1.539   4.730   3.475 -0.4350 -0.5074 -0.0951
13918TIP3    H163169   1.595   4.707   3.549 -2.5900  1.0828  2.1771
13918TIP3    H263170   1.571   4.815   3.446  1.0174 -1.5417 -1.7499
13919TIP3   OH263171   2.402   1.484   4.940  0.0132 -0.3280  0.7344
13919TIP3    H163172   2.439   1.571   4.947 -0.1068  0.1359 -2.5862
13919TIP3    H263173   2.311   1.498   4.914  0.3356 -1.3214 -1.1993
13920TIP3   OH263174   3.606   2.365  13.541 -0.1536  0.7419 -0.0253
13920TIP3    H163175   3.691   2.331  13.568 -1.8812 -3.0513  1.3496
13920TIP3    H263176   3.607   2.358  13.445  1.1009  0.9012 -0.0399
13921TIP3   OH263177   4.599   6.616  16.580  0.5590 -0.1500 -0.0074
13921TIP3    H163178   4.506   6.598  16.567  0.0361  1.7999  0.6961
13921TIP3    H263179   4.635   6.620  16.491  0.0637 -1.1854 -0.2758
13922TIP3   OH263180   4.616   4.482  14.176  0.0923  0.0859  0.3546
13922TIP3    H163181   4.537   4.433  14.154  0.4439 -0.5596  0.4712
13922TIP3    H263182   4.685   4.415  14.177  0.4082  0.4028  1.5518
13923TIP3   OH263183   2.230   4.608  13.217 -0.1442 -0.1351  0.0146
13923TIP3    H163184   2.142   4.573  13.205 -0.4487  1.1775 -2.3248
13923TIP3    H263185   2.271   4.600  13.131  1.9328 -0.3677  0.9490
13924TIP3   OH263186   4.253   3.792   0.477  0.3456 -0.1403 -0.2561
13924TIP3    H163187   4.157   3.787   0.472  0.3205  0.3420 -0.3992
13924TIP3    H263188   4.273   3.782   0.570  0.0851  0.6564 -0.1016
13925TIP3   OH263189   3.243   5.893  14.387 -0.0044  0.1371  0.4216
13925TIP3    H163190   3.289   5.873  14.469  2.0163  0.5157 -0.5429
13925TIP3    H263191   3.247   5.811  14.337  0.4262  0.4173 -0.0137
13926TIP3   OH263192   3.479   4.948   5.031 -0.0721  0.7581 -0.0347
13926TIP3    H163193   3.472   5.038   4.999 -0.2658  1.1203  0.9733
13926TIP3    H263194   3.551   4.950   5.094 -0.2962  0.2977  0.2474
13927TIP3   OH263195   6.215   1.407  13.705  0.4303  0.0774  0.0868
13927TIP3    H163196   6.127   1.440  13.684  1.2021  1.6113 -0.9595
13927TIP3    H263197   6.206   1.312  13.703 -0.4886  0.0879 -3.5494
13928TIP3   OH263198   4.593   3.893   1.931  0.0432  0.3399 -0.1192
13928TIP3    H163199   4.633   3.980   1.925  1.9623 -0.4519  0.5459
13928TIP3    H263200   4.568   3.885   2.023  1.4293 -0.4463  0.2038
13929TIP3   OH263201   0.723   2.855  14.529 -0.5344 -0.3520  0.2086
13929TIP3    H163202   0.643   2.891  14.493 -1.2265 -0.8043  1.2420
13929TIP3    H263203   0.782   2.930  14.539 -0.7564 -0.0461 -0.7165
13930TIP3   OH263204   0.015   2.419   1.783 -0.0539 -0.1791  0.2937
13930TIP3    H163205  -0.032   2.433   1.865 -2.1413  0.9824 -1.0110
13930TIP3    H263206   0.001   2.500   1.733  0.6876 -1.0624 -1.4292
13931TIP3   OH263207   4.598   3.062  15.174  0.3645 -0.1275  0.1314
13931TIP3    H163208   4.504   3.043  15.171  0.3253 -0.3191 -4.2458
13931TIP3    H263209   4.603   3.157  15.159  0.9090  0.0984  1.6070
13932TIP3   OH263210   3.942   0.375   0.669  0.4366  0.3862  0.7046
13932TIP3    H163211   3.906   0.451   0.714 -1.5211 -0.0103 -0.1112
13932TIP3    H263212   4.001   0.412   0.603  0.3180  1.1378  1.0124
13933TIP3   OH263213   3.086   0.953  12.792 -0.1713 -0.1551  0.3196
13933TIP3    H163214   3.180   0.968  12.796 -0.1961  0.2677 -0.4484
13933TIP3    H263215   3.047   1.028  12.836 -0.1724  0.2004 -0.2688
13934TIP3   OH263216   4.806   1.742   5.638 -0.3828  0.1067 -0.0627
13934TIP3    H163217   4.833   1.832   5.656  1.0522 -0.3974  0.4354
13934TIP3    H263218   4.732   1.727   5.697  0.3598  0.4698  0.9894
13935TIP3   OH263219   4.940   2.236   6.281  0.2176  0.5445  0.0278
13935TIP3    H163220   4.985   2.157   6.310  1.6025  1.3560  0.1793
13935TIP3    H263221   4.935   2.228   6.186 -1.4611 -0.6299  0.1708
13936TIP3   OH263222   6.662   1.878   4.720 -0.0470  0.3384 -0.1308
13936TIP3    H163223   6.648   1.873   4.815 -0.7594 -0.5938 -0.2767
13936TIP3    H263224   6.667   1.787   4.692  1.8495  0.6033 -0.7625
13937TIP3   OH263225   2.986   4.851   4.490 -0.4938  0.3950  0.0566
13937TIP3    H163226   2.947   4.903   4.560 -1.1657 -0.5217  0.3883
13937TIP3    H263227   3.034   4.782   4.535 -1.1956 -0.3991 -0.3542
13938TIP3   OH263228   0.684   5.118   1.834 -0.0779  0.9754 -0.7167
13938TIP3    H163229   0.692   5.065   1.914  1.3067  1.9973 -0.1496
13938TIP3    H263230   0.641   5.059   1.772 -0.5548 -0.0843  0.5562
13939TIP3   OH263231   6.547   0.972   0.188 -0.0154 -0.2851  0.5566
13939TIP3    H163232   6.458   0.959   0.157 -0.6817 -0.7067  2.5042
13939TIP3    H263233   6.551   1.064   0.214  0.6453  0.1589 -0.9801
13940TIP3   OH263234   2.802   5.219   0.371 -0.4130  0.7423 -0.0523
13940TIP3    H163235   2.709   5.228   0.351 -0.5652  2.0822  1.0470
13940TIP3    H263236   2.805   5.160   0.447 -0.7232  3.1112  1.9525
13941TIP3   OH263237   1.059   4.263  14.813 -0.4068 -0.3200  0.0244
13941TIP3    H163238   1.086   4.199  14.747  1.1392 -1.2200  1.4571
13941TIP3    H263239   1.102   4.344  14.786 -0.5641 -0.4325 -0.5817
13942TIP3   OH263240   3.670   1.184  15.893 -0.4207 -0.0203  0.1229
13942TIP3    H163241   3.584   1.215  15.863  0.1447 -0.8468 -2.5468
13942TIP3    H263242   3.733   1.239  15.846  0.5245 -1.0993  0.0882
13943TIP3   OH263243   5.342   4.962  16.937 -1.3294 -0.2276  0.1895
13943TIP3    H163244   5.260   4.941  16.982 -1.4003 -1.8566 -0.5923
13943TIP3    H263245   5.407   4.904  16.977 -0.6571  0.6728  0.4364
13944TIP3   OH263246   4.273   2.320   3.949 -0.1647 -0.5241 -0.2841
13944TIP3    H163247   4.330   2.245   3.934  1.5529  0.6984 -0.1270
13944TIP3    H263248   4.184   2.284   3.946  0.6143 -2.5682 -0.0471
13945TIP3   OH263249   6.382   1.341  13.500  0.1658  0.0510  0.0051
13945TIP3    H163250   6.329   1.379  13.570  0.2978 -0.0547  0.1627
13945TIP3    H263251   6.414   1.259  13.537  1.0799  0.4853  0.1883
13946TIP3   OH263252   2.473   2.406   3.779 -0.1129  0.3480  0.3417
13946TIP3    H163253   2.475   2.469   3.851  1.2376  0.1562  0.4986
13946TIP3    H263254   2.418   2.335   3.811  0.5596  0.2098  1.2604
13947TIP3   OH263255   3.596   5.296  11.846  0.3418 -0.2468  0.3950
13947TIP3    H163256   3.683   5.312  11.881 -0.1342  0.7590  1.2057
13947TIP3    H263257   3.606   5.298  11.751  0.8293  2.3398  0.4397
13948TIP3   OH263258   4.701   3.428  12.416  0.2627 -0.1144 -0.1740
13948TIP3    H163259   4.788   3.405  12.447 -0.4669 -0.8534  1.4412
13948TIP3    H263260   4.661   3.345  12.392 -0.2612  0.1379 -0.1910
13949TIP3   OH263261   3.399   5.357  15.956  0.1944 -0.0624 -0.5075
13949TIP3    H163262   3.363   5.277  15.994 -0.5818 -0.7191 -2.4822
13949TIP3    H263263   3.486   5.333  15.926 -0.2334 -0.3375 -1.5635
13950TIP3   OH263264   2.076   0.720  16.837 -0.1467  0.2158 -0.0520
13950TIP3    H163265   2.147   0.670  16.798  1.2873  2.3311 -0.2921
13950TIP3    H263266   2.089   0.710  16.931 -1.0102 -1.3267 -0.0571
13951TIP3   OH263267   0.102   2.535   4.803  0.0956 -0.6048 -0.0198
13951TIP3    H163268   0.151   2.453   4.796 -0.2739 -0.7962 -0.3631
13951TIP3    H263269   0.019   2.518   4.759  0.5040  0.3334 -1.2077
13952TIP3   OH263270   6.346   5.970   3.483 -0.5388  0.1172 -0.1466
13952TIP3    H163271   6.434   5.985   3.515 -0.7292  1.0358 -0.0373
13952TIP3    H263272   6.298   6.050   3.503 -0.7946  0.5483 -2.2561
13953TIP3   OH263273   3.511   6.271   0.841  0.6963  0.0485 -0.3088
13953TIP3    H163274   3.579   6.280   0.907  0.3242  0.3152  0.0473
13953TIP3    H263275   3.430   6.295   0.886  0.1889 -1.4047 -0.3984
13954TIP3   OH263276   5.674   0.854  16.239 -0.1362 -0.2320 -0.5481
13954TIP3    H163277   5.766   0.828  16.239 -0.4073 -1.2429 -0.1810
13954TIP3    H263278   5.626   0.771  16.241 -1.0534  0.2927 -0.3947
13955TIP3   OH263279   0.037   6.375   5.887  0.0562 -0.0820 -0.0821
13955TIP3    H163280  -0.055   6.367   5.911  0.2566  0.4687  0.9300
13955TIP3    H263281   0.069   6.285   5.882 -0.7566 -0.3401 -1.4485
13956TIP3   OH263282   4.131   2.920  13.676  0.3293  0.3385  0.4683
13956TIP3    H163283   4.129   2.899  13.582  1.3212 -0.6118  0.6341
13956TIP3    H263284   4.132   3.015  13.679  0.2346  0.3854 -0.4863
13957TIP3   OH263285   3.770   4.413   4.312 -0.4113  0.6035 -0.1187
13957TIP3    H163286   3.699   4.362   4.273 -0.9764  0.4808  1.0348
13957TIP3    H263287   3.794   4.477   4.245 -2.1660  1.1757 -0.2528
13958TIP3   OH263288   4.991   2.287  12.288 -0.1424  0.0912 -0.1422
13958TIP3    H163289   4.987   2.381  12.271  1.6111 -0.0888 -2.0358
13958TIP3    H263290   4.969   2.278  12.381  2.5276  2.7096  0.9079
13959TIP3   OH263291   1.641   6.193   3.644  0.3324  0.3448  0.6032
13959TIP3    H163292   1.595   6.226   3.721 -0.8035 -0.3738  0.2693
13959TIP3    H263293   1.683   6.269   3.606 -0.5293  1.0279  0.9795
13960TIP3   OH263294   0.190   4.750  14.505 -0.2911  0.8007 -0.5251
13960TIP3    H163295   0.208   4.777  14.415  0.4124 -0.8366 -0.9050
13960TIP3    H263296   0.251   4.802  14.558  0.1559  0.8819 -1.1124
13961TIP3   OH263297   6.051   2.870   3.010  0.1494 -0.3759  0.2007
13961TIP3    H163298   6.024   2.833   3.094 -1.1998 -0.4813 -0.2600
13961TIP3    H263299   5.976   2.920   2.980  1.6238  2.1367  0.4024
13962TIP3   OH263300   3.853   5.563   4.642 -0.3540  0.0682 -0.1424
13962TIP3    H163301   3.769   5.609   4.638  0.8590  2.5876  1.1933
13962TIP3    H263302   3.900   5.591   4.564  0.5590  1.5857  0.8957
13963TIP3   OH263303   6.527   0.204   3.646  0.4433  0.5397 -0.2375
13963TIP3    H163304   6.614   0.185   3.680 -0.5663  1.5713  3.3636
13963TIP3    H263305   6.507   0.292   3.679 -1.3597  1.0054 -2.3279
13964TIP3   OH263306   1.533   1.242  14.910 -0.3826 -0.2291 -0.1340
13964TIP3    H163307   1.510   1.157  14.873 -2.6586  0.6957 -1.0090
13964TIP3    H263308   1.593   1.281  14.845 -0.7974 -0.4288 -0.6439
13965TIP3   OH263309   1.130   0.870  17.189 -0.7052  0.6114 -0.1799
13965TIP3    H163310   1.046   0.854  17.147 -1.7989 -1.0339  2.3968
13965TIP3    H263311   1.110   0.933  17.258  0.0540 -0.0938  0.7136
13966TIP3   OH263312   5.050   6.210   2.474 -0.1436 -0.2660  0.0257
13966TIP3    H163313   5.118   6.156   2.435 -0.4397  0.9917 -2.4143
13966TIP3    H263314   4.968   6.175   2.438 -0.4620  0.7110 -0.2350
13967TIP3   OH263315   1.736   6.564   3.800 -0.6197 -0.3231 -0.0935
13967TIP3    H163316   1.774   6.639   3.754 -0.8619 -0.5968 -0.7490
13967TIP3    H263317   1.645   6.562   3.773 -0.6206 -0.8431 -0.0677
13968TIP3   OH263318   3.453   3.800   4.958  0.1278  0.0875 -0.0452
13968TIP3    H163319   3.384   3.816   5.022 -1.8392 -1.2519 -1.6732
13968TIP3    H263320   3.423   3.723   4.909  1.7103  0.7865 -2.2905
13969TIP3   OH263321   4.266   5.320  13.803 -0.1475  0.1062  0.3157
13969TIP3    H163322   4.237   5.408  13.827  0.3608  0.0897  1.0194
13969TIP3    H263323   4.187   5.275  13.774 -0.6337  0.3895  1.1810
13970TIP3   OH263324   1.958   2.162   5.660  0.6485 -0.2864 -0.0552
13970TIP3    H163325   1.918   2.076   5.652  0.4620 -0.0969 -1.2995
13970TIP3    H263326   1.940   2.205   5.576  1.2122  0.7601  0.3429
13971TIP3   OH263327   5.088   2.115   4.456 -0.3178  0.4827 -0.0411
13971TIP3    H163328   5.181   2.137   4.452 -0.0205 -0.6980 -0.0360
13971TIP3    H263329   5.048   2.166   4.385  0.6188 -0.2863 -1.1654
13972TIP3   OH263330   3.185   5.954  14.137 -0.6325 -0.2335  0.6730
13972TIP3    H163331   3.199   5.945  14.231  0.8698  1.3333  0.6548
13972TIP3    H263332   3.266   5.922  14.097  0.5770  3.0091  0.1941
13973TIP3   OH263333   0.937   1.100   2.601  0.2207  0.1928 -0.0133
13973TIP3    H163334   0.902   1.186   2.623  0.0577 -0.2720  1.6528
13973TIP3    H263335   0.860   1.048   2.576  0.0744 -0.0055  0.8369
13974TIP3   OH263336   4.077   4.127  11.113 -0.5023 -0.1629 -0.1815
13974TIP3    H163337   4.112   4.039  11.125 -0.2709 -0.1563 -0.7491
13974TIP3    H263338   3.999   4.113  11.059 -0.8784 -0.0897  0.3366
13975TIP3   OH263339   2.940   0.122  12.041  0.5357  0.0235 -0.0005
13975TIP3    H163340   2.977   0.171  12.114  0.7985 -0.4944  0.2114
13975TIP3    H263341   2.932   0.188  11.971 -0.0074  0.5914  0.5780
13976TIP3   OH263342   2.148   5.296   1.951  0.0877 -0.0133  0.1286
13976TIP3    H163343   2.240   5.279   1.932  0.3354  0.4373  0.8646
13976TIP3    H263344   2.134   5.260   2.038 -0.2017  0.6755  0.3789
13977TIP3   OH263345   0.428   0.183   5.467  0.1816 -0.3145  0.0226
13977TIP3    H163346   0.399   0.140   5.547  2.6911 -1.5224  0.3959
13977TIP3    H263347   0.457   0.270   5.494  0.8018 -0.6353  0.4027
13978TIP3   OH263348   2.621   3.624  13.432  0.1632  0.1040  0.0761
13978TIP3    H163349   2.717   3.617  13.432  0.1975  0.5092  0.7722
13978TIP3    H263350   2.604   3.715  13.409  0.0666  1.0668  3.5285
13979TIP3   OH263351   3.926   1.766   1.505  0.3447  0.0937  0.3201
13979TIP3    H163352   3.938   1.678   1.540  2.1487 -0.6493 -1.9067
13979TIP3    H263353   3.988   1.771   1.432 -0.3280  2.9217 -0.1641
13980TIP3   OH263354   4.074   2.083  12.669  0.3176  0.0521  0.0504
13980TIP3    H163355   4.007   2.120  12.611  1.1396 -1.3053 -1.8165
13980TIP3    H263356   4.058   1.989  12.667  1.9995 -0.2522 -0.0598
13981TIP3   OH263357   2.697   2.064   0.330 -0.3160  0.5980  0.2453
13981TIP3    H163358   2.606   2.038   0.347 -0.3816  0.2465 -0.5509
13981TIP3    H263359   2.738   1.984   0.297  0.1674  0.8669  0.1928
13982TIP3   OH263360   2.498   3.429  11.201  0.4293  0.7057  0.0491
13982TIP3    H163361   2.435   3.450  11.132  0.4973 -1.0881 -0.6047
13982TIP3    H263362   2.446   3.426  11.281  0.2846  2.4161  0.0554
13983TIP3   OH263363   2.864   4.332  14.195  0.6978 -0.1475 -0.3628
13983TIP3    H163364   2.916   4.273  14.140 -0.0411 -1.3928  0.2234
13983TIP3    H263365   2.809   4.273  14.247 -0.6117  1.0978 -0.2940
13984TIP3   OH263366   3.119   0.225  14.360 -0.2473 -0.5232 -0.2999
13984TIP3    H163367   3.102   0.177  14.279  0.2465 -1.4376  0.1288
13984TIP3    H263368   3.207   0.198  14.387  0.0630  0.6576 -0.0613
13985TIP3   OH263369   0.247   4.173  16.674  0.0914  0.0403  0.0361
13985TIP3    H163370   0.214   4.197  16.760 -0.2220 -1.2876  0.3006
13985TIP3    H263371   0.340   4.197  16.677 -0.0662  0.6214  0.4941
13986TIP3   OH263372   5.346   5.538   4.395  0.4755  0.2347  0.2291
13986TIP3    H163373   5.276   5.549   4.459 -0.0350  0.6979 -0.3870
13986TIP3    H263374   5.423   5.576   4.436  0.2902  0.0159  0.7903
13987TIP3   OH263375   3.659   6.381   2.435 -0.4363 -0.3040 -0.3808
13987TIP3    H163376   3.734   6.390   2.494 -0.9271 -1.1264  0.3838
13987TIP3    H263377   3.691   6.415   2.351  1.1064 -1.4930 -0.3238
13988TIP3   OH263378   2.534   4.988  12.225  0.0997 -0.2315  0.1426
13988TIP3    H163379   2.483   5.052  12.275  0.6175  0.7248 -0.5111
13988TIP3    H263380   2.515   4.904  12.267 -1.5051  0.1719  0.3024
13989TIP3   OH263381   2.300   1.277   4.601  0.1395 -0.2556  1.2276
13989TIP3    H163382   2.371   1.256   4.661  0.0686 -1.5409  0.8906
13989TIP3    H263383   2.336   1.259   4.514 -0.4138 -0.3862  1.0180
13990TIP3   OH263384   4.510   2.182   1.177 -0.1939  0.7164 -0.3182
13990TIP3    H163385   4.495   2.139   1.093 -2.1746  0.9026 -0.1097
13990TIP3    H263386   4.428   2.171   1.224  0.1943  2.3403  0.8121
13991TIP3   OH263387   3.214   4.512   4.956  0.2250 -0.0728  0.3527
13991TIP3    H163388   3.220   4.595   5.005  1.1112 -0.7336  1.4040
13991TIP3    H263389   3.253   4.532   4.871 -2.2695  1.3758 -0.5532
13992TIP3   OH263390   6.030   1.665   2.503  0.2482  0.1224  0.4022
13992TIP3    H163391   5.945   1.691   2.538 -1.2092 -1.6369 -1.5384
13992TIP3    H263392   6.077   1.747   2.490 -1.6433  1.2601  0.3917
13993TIP3   OH263393   1.208   2.396   3.609  0.5997  0.3607 -0.1539
13993TIP3    H163394   1.118   2.390   3.640  0.5709 -1.1350 -0.4353
13993TIP3    H263395   1.261   2.371   3.684  0.6515 -0.7790 -0.5403
13994TIP3   OH263396   1.221   4.044  11.012 -0.5556  0.0562  0.5914
13994TIP3    H163397   1.310   4.075  10.992 -0.3956  0.1180  1.3725
13994TIP3    H263398   1.205   3.975  10.948 -0.2797  0.6314 -0.1155
13995TIP3   OH263399   5.911   3.090   2.851  0.4132 -0.1890  0.3933
13995TIP3    H163400   5.893   3.030   2.779 -1.9018  1.5061 -0.5978
13995TIP3    H263401   5.975   3.152   2.816  0.1033 -0.0027  0.1495
13996TIP3   OH263402   3.759   4.616   3.703  0.1713 -0.6228 -0.1853
13996TIP3    H163403   3.739   4.577   3.788  0.8304 -1.2491 -0.3041
13996TIP3    H263404   3.691   4.583   3.644  0.0405 -0.6382 -0.0257
13997TIP3   OH263405   4.355   2.148   3.668  0.3373 -0.3898 -0.5968
13997TIP3    H163406   4.268   2.161   3.630 -1.6977  1.0310  3.8523
13997TIP3    H263407   4.404   2.226   3.642 -1.6124  1.5153  1.0019
13998TIP3   OH263408   4.393   4.612  14.490  0.3388  0.4046  0.3376
13998TIP3    H163409   4.485   4.600  14.468  1.3766  1.8241  3.3877
13998TIP3    H263410   4.373   4.541  14.552 -0.1337  1.0220  0.9134
13999TIP3   OH263411   3.255   3.815   0.587 -0.3615 -0.1019 -0.2020
13999TIP3    H163412   3.311   3.777   0.519 -0.2925  0.5975 -0.5476
13999TIP3    H263413   3.179   3.757   0.591  0.2781 -0.9435  0.1224
14000TIP3   OH263414   5.712   5.032  10.690  0.1603  0.5230 -0.3435
14000TIP3    H163415   5.629   4.992  10.663  0.2828 -0.8630  1.1667
14000TIP3    H263416   5.779   4.972  10.656  0.5114  1.1918 -0.8384
14001TIP3   OH263417   3.786   2.821   0.047 -0.3618  0.8630  0.1016
14001TIP3    H163418   3.793   2.746   0.105 -0.1101  0.1392 -0.8382
14001TIP3    H263419   3.850   2.803  -0.023 -0.0057  2.1432  0.0714
14002TIP3   OH263420   6.304   3.037  13.302 -0.6132 -0.0434 -0.1143
14002TIP3    H163421   6.291   2.997  13.388 -1.8805 -0.9066 -0.6944
14002TIP3    H263422   6.399   3.032  13.288 -0.1935  1.3176  1.7777
14003TIP3   OH263423   5.923   1.629  14.417  0.4515 -0.0269 -0.0566
14003TIP3    H163424   5.987   1.652  14.349  1.5057 -2.0702  0.1739
14003TIP3    H263425   5.960   1.663  14.498 -0.3144  1.5162 -0.3165
14004TIP3   OH263426   4.938   6.523  10.898  0.5963  0.2717  0.3719
14004TIP3    H163427   4.997   6.551  10.969  0.8899 -0.3303  0.3759
14004TIP3    H263428   4.979   6.443  10.864  0.9280  1.0209 -1.0623
14005TIP3   OH263429   3.665   3.027   6.666 -0.5564  0.0618  0.3345
14005TIP3    H163430   3.729   3.047   6.597 -0.0232  0.8274  1.0178
14005TIP3    H263431   3.657   2.932   6.664  0.2395 -0.0124 -0.1021
14006TIP3   OH263432   2.932   0.973   0.925 -0.0020  0.1305 -0.4400
14006TIP3    H163433   2.980   0.987   0.844  0.0870  2.5367 -0.0403
14006TIP3    H263434   2.847   1.015   0.911 -0.1982  0.0839  0.5098
14007TIP3   OH263435   3.469   6.289  12.754  0.4917 -0.2878  0.2238
14007TIP3    H163436   3.503   6.336  12.678 -1.7850  1.5818  0.2340
14007TIP3    H263437   3.481   6.349  12.827 -0.9732 -0.3479  0.5556
14008TIP3   OH263438   4.773   4.156   3.228 -0.3389  0.0279  0.7685
14008TIP3    H163439   4.856   4.198   3.251 -0.5297 -0.1281  1.7782
14008TIP3    H263440   4.781   4.068   3.265 -0.5269 -0.3542 -0.0726
14009TIP3   OH263441   1.087   0.229  16.188 -0.0387  0.3426  0.1037
14009TIP3    H163442   1.104   0.141  16.152 -1.0302  0.1711  0.0392
14009TIP3    H263443   1.023   0.267  16.128 -0.2350  0.7984  0.6043
14010TIP3   OH263444   0.331   2.191   0.512 -0.3900  0.7396  0.0662
14010TIP3    H163445   0.336   2.145   0.596  0.5353 -0.6358 -0.7140
14010TIP3    H263446   0.374   2.274   0.528  4.1085 -1.2760 -0.1405
14011TIP3   OH263447   3.774   5.981   4.775 -0.1862  0.4041  0.5190
14011TIP3    H163448   3.685   5.963   4.744 -0.8984  1.8563  1.5727
14011TIP3    H263449   3.802   6.057   4.724 -0.0648  0.7335  1.0655
14012TIP3   OH263450   0.137   4.117   3.208  0.1483  0.4872 -0.1337
14012TIP3    H163451   0.087   4.179   3.260 -1.8100 -0.4978 -0.7419
14012TIP3    H263452   0.085   4.036   3.211  2.1052 -0.8541 -0.1718
14013TIP3   OH263453   6.534   3.899  11.130 -0.2567  0.1036  0.1265
14013TIP3    H163454   6.513   3.989  11.155 -0.1691  0.1472  0.0446
14013TIP3    H263455   6.476   3.880  11.056 -0.8423 -0.1845  0.6511
14014TIP3   OH263456   4.986   2.245  11.949  0.1615 -0.4841 -0.2061
14014TIP3    H163457   4.904   2.240  11.901  0.1581  0.7497 -0.3503
14014TIP3    H263458   4.999   2.156  11.983 -1.0006 -0.8037 -0.5484
14015TIP3   OH263459   6.680   2.468   4.640 -0.5171  0.2072 -0.2713
14015TIP3    H163460   6.615   2.443   4.705 -0.4996  2.1684  0.5666
14015TIP3    H263461   6.658   2.416   4.563 -1.9503 -0.4811  0.5556
14016TIP3   OH263462   2.093   4.085   3.631  0.1093 -0.0323  0.2188
14016TIP3    H163463   2.057   4.005   3.670 -0.2420 -0.8735 -1.7088
14016TIP3    H263464   2.028   4.112   3.567  0.8062  1.0860 -0.0434
14017TIP3   OH263465   2.888   4.717  14.450  0.3143  0.3644  0.1268
14017TIP3    H163466   2.926   4.785  14.394  0.1088  0.3590 -0.0225
14017TIP3    H263467   2.903   4.636  14.403 -0.7373  0.4603 -0.4150
14018TIP3   OH263468   3.973   0.262  16.558  0.5244  0.1944 -0.2795
14018TIP3    H163469   3.877   0.264  16.554  0.5635  0.6288 -1.0696
14018TIP3    H263470   3.992   0.222  16.643 -0.3541 -0.5595 -0.4241
14019TIP3   OH263471   6.593   1.363   6.075 -0.1539  0.2633  0.3778
14019TIP3    H163472   6.618   1.319   6.156 -0.8872 -1.8598 -0.4983
14019TIP3    H263473   6.629   1.451   6.085  1.7246 -0.5966  2.0462
14020TIP3   OH263474   0.442   2.566  13.410 -0.5678  0.1076  0.4076
14020TIP3    H163475   0.441   2.642  13.468  0.0594 -0.0243  0.5973
14020TIP3    H263476   0.534   2.557  13.385 -0.6672 -0.4889  0.2536
14021TIP3   OH263477   3.739   1.976  16.731 -0.3440 -0.1309 -0.0414
14021TIP3    H163478   3.644   1.963  16.725 -0.1437 -1.1986 -1.1145
14021TIP3    H263479   3.749   2.071  16.739 -1.4922  0.0179 -0.1452
14022TIP3   OH263480   1.975   4.580   3.527 -0.4853 -0.2488 -0.2878
14022TIP3    H163481   2.017   4.571   3.441 -0.8457  0.0411 -0.4998
14022TIP3    H263482   1.908   4.511   3.528  0.1998 -0.9163  0.1767
14023TIP3   OH263483   6.658   1.153   3.420 -0.8987  0.5468 -0.0102
14023TIP3    H163484   6.637   1.095   3.492 -0.3133  0.5940  0.2082
14023TIP3    H263485   6.585   1.145   3.359 -1.0435 -0.0564  0.2419
14024TIP3   OH263486   0.958   5.637   2.737 -0.3682 -0.4653 -0.1155
14024TIP3    H163487   0.974   5.613   2.646 -1.6521 -0.0857 -0.4508
14024TIP3    H263488   1.004   5.570   2.787 -1.3304 -1.8809 -1.0481
14025TIP3   OH263489   1.189   4.620   0.723 -0.3692 -0.3068  0.5489
14025TIP3    H163490   1.148   4.578   0.799  0.4881 -0.1153  1.1278
14025TIP3    H263491   1.207   4.547   0.663  0.9031 -0.7680  1.4525
14026TIP3   OH263492   5.578   5.308  12.822  0.1694  0.0188  0.2432
14026TIP3    H163493   5.593   5.278  12.912  1.4044 -1.0308 -0.2845
14026TIP3    H263494   5.647   5.372  12.806 -1.4064  1.9548  0.7635
14027TIP3   OH263495   2.079   4.890  16.917 -0.3403  0.1431 -0.4801
14027TIP3    H163496   1.991   4.859  16.894  0.2780 -0.5745 -2.0343
14027TIP3    H263497   2.107   4.940  16.840  1.3041 -1.1781 -0.7958
14028TIP3   OH263498   2.685   0.208   4.660  0.5436  0.3305  0.0311
14028TIP3    H163499   2.675   0.201   4.755  1.8266 -1.9885  0.0690
14028TIP3    H263500   2.608   0.163   4.625  0.4976  0.4472 -0.0174
14029TIP3   OH263501   0.213   4.484   1.361 -0.1145 -0.4156  0.8830
14029TIP3    H163502   0.164   4.551   1.409 -1.3821 -1.5370  1.2090
14029TIP3    H263503   0.151   4.449   1.298 -0.4447 -3.2618  2.6263
14030TIP3   OH263504   6.601   0.955   6.144 -0.1310 -0.5351  0.1263
14030TIP3    H163505   6.602   0.905   6.225 -1.0722  0.1268  0.5742
14030TIP3    H263506   6.610   1.046   6.172  0.3863 -0.3551 -0.5812
14031TIP3   OH263507   1.242   1.690   2.287  0.0037  0.1346  0.3471
14031TIP3    H163508   1.294   1.650   2.357  0.4998  2.4025  1.3510
14031TIP3    H263509   1.305   1.743   2.238 -0.4426 -1.0172 -1.5725
14032TIP3   OH263510   3.168   0.402   6.181  0.1370  0.8725 -0.1481
14032TIP3    H163511   3.158   0.325   6.236  2.6699  0.0365 -0.7354
14032TIP3    H263512   3.086   0.451   6.193 -2.2521 -2.5848 -0.9278
14033TIP3   OH263513   3.927   4.728  15.157 -0.3534 -0.1011  0.3348
14033TIP3    H163514   4.022   4.718  15.148 -0.4566 -1.0758  0.1970
14033TIP3    H263515   3.892   4.698  15.074 -0.8236 -0.6038  0.7079
14034TIP3   OH263516   4.204   5.939  11.332 -0.5126 -0.4191  0.5994
14034TIP3    H163517   4.268   5.970  11.268 -0.1407 -0.8414  0.7630
14034TIP3    H263518   4.255   5.887  11.394 -0.9649 -0.5062  0.9032
14035TIP3   OH263519   0.861   6.135   2.092  0.6322 -0.2221 -0.3822
14035TIP3    H163520   0.902   6.200   2.036  2.3279 -0.8418  0.0960
14035TIP3    H263521   0.931   6.074   2.115 -0.4231 -1.0105  0.9268
14036TIP3   OH263522   2.519   1.665   2.268 -0.1873 -0.2544  0.4954
14036TIP3    H163523   2.577   1.700   2.335  0.5655 -0.9506  0.2211
14036TIP3    H263524   2.452   1.618   2.316  0.3824 -0.8020  0.7655
14037TIP3   OH263525   6.523   6.212   5.087 -0.2728 -0.3212 -0.3891
14037TIP3    H163526   6.547   6.228   5.179 -0.5734  1.7958 -0.6443
14037TIP3    H263527   6.594   6.157   5.054  0.1504 -0.6261  0.9399
14038TIP3   OH263528   4.881   3.178   3.496  0.0553  0.8761 -0.8451
14038TIP3    H163529   4.960   3.230   3.483  0.2747  0.9049  0.5065
14038TIP3    H263530   4.912   3.087   3.497  0.3114  0.9571  1.1794
14039TIP3   OH263531   0.076   1.447   5.007  0.0549 -0.3126 -0.8374
14039TIP3    H163532   0.131   1.509   4.959 -0.8982 -0.3140 -1.9686
14039TIP3    H263533   0.123   1.364   5.003  1.1058  0.1889  0.2732
14040TIP3   OH263534   0.772   3.122   6.491  0.6898 -0.0058 -0.2157
14040TIP3    H163535   0.844   3.138   6.430  1.0260 -1.5056 -0.2301
14040TIP3    H263536   0.694   3.155   6.445  1.2407  0.9940 -0.4787
14041TIP3   OH263537   3.460   3.867  14.313 -0.3665  0.0478 -0.2814
14041TIP3    H163538   3.390   3.853  14.250  0.4093  0.4084 -1.2524
14041TIP3    H263539   3.450   3.958  14.341 -0.3032  0.0909 -0.3989
14042TIP3   OH263540   4.848   1.366  15.449  0.0509  1.1289 -0.0993
14042TIP3    H163541   4.783   1.424  15.489 -0.8178  0.4826 -0.5482
14042TIP3    H263542   4.803   1.328  15.373  1.1068  1.0225 -0.6873
14043TIP3   OH263543   5.092   2.665   5.655 -0.0969 -0.1104  0.0001
14043TIP3    H163544   5.053   2.578   5.659 -0.5253  0.0515 -0.5961
14043TIP3    H263545   5.026   2.720   5.613  0.2141  0.4776  0.2641
14044TIP3   OH263546   3.563   0.230   3.852  0.0032  0.5893 -0.0673
14044TIP3    H163547   3.578   0.322   3.874 -2.2101  1.3037 -1.1940
14044TIP3    H263548   3.650   0.191   3.851  1.0203  2.7076  0.3055
14045TIP3   OH263549   0.752   5.817   3.754  0.1156 -0.1673  0.3703
14045TIP3    H163550   0.816   5.805   3.824  0.6750 -2.4352 -0.4282
14045TIP3    H263551   0.791   5.884   3.697  1.7638 -1.3434  0.0183
14046TIP3   OH263552   6.197   5.949   4.435  0.5019 -0.2652 -0.1199
14046TIP3    H163553   6.132   5.996   4.384  3.0046  0.1499 -3.2420
14046TIP3    H263554   6.212   5.867   4.387  3.7309  0.6261 -0.9099
14047TIP3   OH263555   2.628   4.292   2.522  0.2045 -0.3881 -0.5004
14047TIP3    H163556   2.658   4.291   2.613  0.6948  1.1208 -0.6162
14047TIP3    H263557   2.534   4.271   2.527  0.4619 -1.4631  0.2153
14048TIP3   OH263558   2.477   1.042  11.127  0.2874  0.1075  0.2612
14048TIP3    H163559   2.552   0.986  11.106  0.0874 -0.5892  1.3247
14048TIP3    H263560   2.425   0.990  11.188 -0.1005  1.3247  0.9957
14049TIP3   OH263561   6.089   6.197   5.996  0.0483 -0.1429  0.6138
14049TIP3    H163562   6.130   6.283   6.002 -1.2641  0.3986  3.4736
14049TIP3    H263563   6.003   6.214   5.957  0.1902 -0.3248  0.2202
14050TIP3   OH263564   2.908   2.415  14.414 -0.1236 -0.2494  0.3734
14050TIP3    H163565   2.852   2.337  14.422  0.2991 -0.5785  0.1386
14050TIP3    H263566   2.985   2.395  14.467  1.3418 -1.2226 -1.9665
14051TIP3   OH263567   5.916   2.722   3.478  0.0799 -0.0804  0.8686
14051TIP3    H163568   5.976   2.680   3.416  0.0776  0.0525  0.7751
14051TIP3    H263569   5.872   2.650   3.522 -0.1933 -0.1709  0.4459
14052TIP3   OH263570   0.894   0.433  13.390 -0.4701 -0.1464  0.4812
14052TIP3    H163571   0.847   0.359  13.352  0.0607 -0.2718  0.0595
14052TIP3    H263572   0.834   0.468  13.456 -1.5414  0.2573 -0.6758
14053TIP3   OH263573   4.546   3.084  13.072 -0.0495  0.3881  0.0797
14053TIP3    H163574   4.497   3.010  13.034  0.7804 -0.9437  1.4557
14053TIP3    H263575   4.520   3.083  13.165  1.1659  0.8127  0.4382
14054TIP3   OH263576   5.755   0.606   2.866 -0.7272 -0.2640  0.3823
14054TIP3    H163577   5.792   0.540   2.807  0.0929  0.8639 -0.4201
14054TIP3    H263578   5.830   0.636   2.917 -0.1205  2.8729 -2.0372
14055TIP3   OH263579   1.859   6.358   1.900  0.7912  0.5859  0.1719
14055TIP3    H163580   1.805   6.337   1.975 -0.7940  2.2504 -0.4458
14055TIP3    H263581   1.944   6.382   1.937 -0.1131  1.8511  1.4725
14056TIP3   OH263582   0.653   4.217  11.421  0.1394  0.0441 -0.5967
14056TIP3    H163583   0.567   4.230  11.462  0.7086  0.2435  0.5882
14056TIP3    H263584   0.674   4.126  11.438  0.4390  0.1645 -0.3048
14057TIP3   OH263585   0.945   1.236   1.764 -0.6554  0.3509  0.4112
14057TIP3    H163586   0.893   1.309   1.732 -0.4636  0.2362 -0.1786
14057TIP3    H263587   1.036   1.263   1.751 -0.5797  0.1263  0.4639
14058TIP3   OH263588   0.858   1.428  13.802  0.2879  0.1540  0.3762
14058TIP3    H163589   0.839   1.453  13.711  0.1407 -0.8402  0.1211
14058TIP3    H263590   0.945   1.386  13.797 -0.1446 -0.7889  0.5142
14059TIP3   OH263591   1.870   1.823   0.735  0.1702 -0.3751  0.5109
14059TIP3    H163592   1.875   1.859   0.647 -0.5832  2.7045  1.5851
14059TIP3    H263593   1.903   1.733   0.727  1.2650  0.1910 -2.6311
14060TIP3   OH263594   2.239   5.649   1.227 -0.4903 -0.1940  0.5109
14060TIP3    H163595   2.162   5.692   1.262 -0.6103  0.3250 -0.3746
14060TIP3    H263596   2.292   5.720   1.191  0.4285 -0.5365  1.1429
14061TIP3   OH263597   0.142   6.514   4.966  0.1888  0.4088  0.2745
14061TIP3    H163598   0.229   6.480   4.943  0.4589  0.8047  0.7077
14061TIP3    H263599   0.099   6.441   5.010  0.1436  0.0704 -0.3205
14062TIP3   OH263600   3.507   4.809   3.519  0.7415  0.1819  0.0620
14062TIP3    H163601   3.459   4.768   3.447 -1.8699  0.2835  1.6057
14062TIP3    H263602   3.580   4.854   3.477  0.9548 -2.0575 -2.1769
14063TIP3   OH263603   6.201   0.048   1.168  0.2515 -0.0868 -1.2050
14063TIP3    H163604   6.196   0.135   1.128  0.4158 -0.6413 -2.4534
14063TIP3    H263605   6.153  -0.009   1.109  1.6754 -1.1883 -1.3677
14064TIP3   OH263606   5.518   0.747  17.208  0.0459  0.0769  0.1940
14064TIP3    H163607   5.606   0.787  17.210 -0.0869  0.4468 -0.7930
14064TIP3    H263608   5.524   0.674  17.270  0.9467  0.3082  0.4063
14065TIP3   OH263609   2.879   3.024  13.727  0.2311 -0.1531  0.1188
14065TIP3    H163610   2.895   3.022  13.633 -2.0969  0.1691 -0.3411
14065TIP3    H263611   2.891   3.115  13.752 -0.5445  0.0336 -0.1630
14066TIP3   OH263612   0.130   4.173  16.928  1.0999 -0.3935  0.4798
14066TIP3    H163613   0.180   4.220  16.995 -0.2819 -1.2015  2.1625
14066TIP3    H263614   0.088   4.101  16.976  0.0251 -0.9916 -1.2717
14067TIP3   OH263615   2.945   2.607  12.409 -0.1935  0.2739 -0.3922
14067TIP3    H163616   2.963   2.522  12.370 -1.0004  0.1879 -0.5789
14067TIP3    H263617   2.935   2.590  12.502 -0.4267  0.1584 -0.4399
14068TIP3   OH263618   6.105   5.000  13.298 -0.6030  0.8755 -0.4317
14068TIP3    H163619   6.021   4.957  13.311 -0.0498 -0.7483 -1.8423
14068TIP3    H263620   6.103   5.076  13.357 -2.7975  0.5625 -0.0296
14069TIP3   OH263621   2.043   4.364   3.336 -0.1465 -0.5553 -0.0201
14069TIP3    H163622   2.078   4.354   3.247  0.6206  0.0738  0.2044
14069TIP3    H263623   1.949   4.380   3.323 -0.4005 -2.2656 -0.6317
14070TIP3   OH263624   3.689   0.630  14.001 -0.4059  0.5355 -0.2965
14070TIP3    H163625   3.742   0.599  13.928  0.7540 -0.9188  1.0916
14070TIP3    H263626   3.623   0.686  13.960 -0.5509 -1.1487 -2.5959
14071TIP3   OH263627   3.020   3.920   0.914  0.2600 -0.1097 -0.1201
14071TIP3    H163628   2.972   3.952   0.991  0.5777 -3.4675  1.6692
14071TIP3    H263629   2.952   3.903   0.849 -0.3484  0.1359  0.4346
14072TIP3   OH263630   6.148   0.413  15.337  0.0023  0.1773 -0.0184
14072TIP3    H163631   6.191   0.332  15.310  1.1020  0.3992  0.9854
14072TIP3    H263632   6.152   0.469  15.259 -1.5873 -1.0049 -1.0228
14073TIP3   OH263633   3.654   4.875   3.279 -0.2093  0.0914 -0.3797
14073TIP3    H163634   3.592   4.886   3.207  0.1701  1.0179 -0.5707
14073TIP3    H263635   3.719   4.943   3.265  0.7922 -0.7804 -0.1077
14074TIP3   OH263636   5.208   0.694   5.719  0.2810  0.1567  0.1716
14074TIP3    H163637   5.203   0.664   5.628 -3.3741 -0.6033  0.4955
14074TIP3    H263638   5.254   0.624   5.765 -1.7139 -1.6235 -0.3978
14075TIP3   OH263639   6.161   6.006  12.716 -0.3528 -0.3313 -0.5741
14075TIP3    H163640   6.128   6.093  12.736  0.0028 -0.0961 -0.9961
14075TIP3    H263641   6.195   5.973  12.800  0.8636  0.5318 -0.7016
14076TIP3   OH263642   0.861   6.603  14.952 -0.5479 -0.3498 -0.3148
14076TIP3    H163643   0.878   6.650  14.870  0.7819  0.1745  0.2272
14076TIP3    H263644   0.786   6.547  14.932 -0.7165  0.3025 -1.6681
14077TIP3   OH263645   0.418   5.974   2.577 -0.5116 -0.2317 -0.3541
14077TIP3    H163646   0.470   6.021   2.642  0.0012 -0.7556 -0.3719
14077TIP3    H263647   0.475   5.966   2.501 -1.4073  1.1131 -1.1957
14078TIP3   OH263648   5.405   3.685  10.831  0.4859 -0.8626  0.3303
14078TIP3    H163649   5.489   3.687  10.877 -0.1705  0.1289  1.5367
14078TIP3    H263650   5.374   3.775  10.833 -0.2105 -1.0430 -0.9073
14079TIP3   OH263651   0.877   1.658   3.820 -0.0018 -0.2607  0.2305
14079TIP3    H163652   0.895   1.572   3.782 -0.4865  0.0922 -0.8084
14079TIP3    H263653   0.855   1.639   3.912  2.5323 -1.0021  0.7895
14080TIP3   OH263654   1.126   0.380   4.864 -0.0261  0.2623  0.1401
14080TIP3    H163655   1.072   0.405   4.790 -1.3561 -1.0653  0.6186
14080TIP3    H263656   1.184   0.455   4.878 -2.3052  2.1207  0.1540
14081TIP3   OH263657   4.755   5.132   1.275  0.1106 -1.1096  0.5926
14081TIP3    H163658   4.747   5.175   1.360  0.4355  0.9294 -0.3672
14081TIP3    H263659   4.666   5.105   1.253 -0.2604 -0.0828  0.8022
14082TIP3   OH263660   4.550   1.707  15.856  0.5042  0.2694 -0.1384
14082TIP3    H163661   4.592   1.629  15.821  1.5998  0.4732  0.6550
14082TIP3    H263662   4.531   1.761  15.780 -1.0875 -1.1406 -0.7833
14083TIP3   OH263663   4.029   3.768   2.832  0.1682  0.0070 -0.0805
14083TIP3    H163664   4.012   3.857   2.861 -1.6564 -0.3266  0.0138
14083TIP3    H263665   4.056   3.778   2.740 -2.1735  0.5722 -0.7755
14084TIP3   OH263666   2.947   1.050  12.262  0.2243  0.4699  0.7566
14084TIP3    H163667   2.927   1.144  12.265  1.6445  0.8449 -0.5007
14084TIP3    H263668   2.964   1.026  12.353  2.7046  2.1328  0.8256
14085TIP3   OH263669   2.063   4.011  17.111 -0.1025  0.0576 -0.1189
14085TIP3    H163670   2.137   4.025  17.170  0.5077 -0.7638 -0.6663
14085TIP3    H263671   2.021   3.931  17.143  0.3001 -0.4561 -0.8469
14086TIP3   OH263672   0.236   2.626   0.426  1.0468  0.2437 -0.1906
14086TIP3    H163673   0.193   2.558   0.374  0.8365 -0.9771  1.5174
14086TIP3    H263674   0.258   2.583   0.508  3.7655  1.3730 -0.2293
14087TIP3   OH263675   0.689   6.072  11.504  0.8751 -0.0391 -0.1185
14087TIP3    H163676   0.602   6.037  11.523  0.6131  0.0329 -1.1471
14087TIP3    H263677   0.674   6.137  11.436  1.5161  1.2184  0.9003
14088TIP3   OH263678   0.555   5.176   4.064  0.0436 -0.1349  0.1098
14088TIP3    H163679   0.494   5.172   4.138  0.8590 -0.3084  0.7881
14088TIP3    H263680   0.563   5.085   4.035  0.4194 -0.1915  0.3893
14089TIP3   OH263681   1.109   6.771   0.415 -0.0660  0.0824  0.9349
14089TIP3    H163682   1.146   6.682   0.416  0.2847  0.2144  0.2873
14089TIP3    H263683   1.182   6.827   0.442 -0.6461  0.0651  2.6589
14090TIP3   OH263684   3.836   6.585  16.789  0.2173  0.1711  0.4245
14090TIP3    H163685   3.902   6.525  16.824 -1.2831 -1.0598  1.2792
14090TIP3    H263686   3.753   6.553  16.825 -0.9127  1.3895 -0.9700
14091TIP3   OH263687   6.634   0.104  17.113  0.5465  0.6314 -0.3740
14091TIP3    H163688   6.589   0.188  17.105 -0.4562 -0.0297 -2.8501
14091TIP3    H263689   6.725   0.124  17.093  0.4637  1.2579 -0.1503
14092TIP3   OH263690   2.115   1.387  14.028  0.3178 -0.1000  0.0779
14092TIP3    H163691   2.153   1.369  13.942  0.6345 -0.6297  0.3217
14092TIP3    H263692   2.051   1.317  14.041 -0.5070  0.5989 -0.1880
14093TIP3   OH263693   2.760   3.125   3.829 -0.2161  0.4732 -0.6159
14093TIP3    H163694   2.743   3.211   3.868 -1.1290 -1.1757  3.1003
14093TIP3    H263695   2.855   3.115   3.836 -0.2545  0.6391  0.3163
14094TIP3   OH263696   5.486   2.421   1.340  0.0352 -0.5600  0.2262
14094TIP3    H163697   5.560   2.449   1.287 -0.6964  0.8631 -0.0822
14094TIP3    H263698   5.486   2.325   1.333  2.3137 -0.6537  0.9066
14095TIP3   OH263699   4.950   6.356   6.114 -0.8523  0.3754 -0.0721
14095TIP3    H163700   5.006   6.278   6.124 -1.7887 -0.1213  1.8871
14095TIP3    H263701   4.982   6.417   6.181 -1.2676  0.9600 -0.3996
14096TIP3   OH263702   1.059   4.752   1.131  0.3917 -0.0399  0.3490
14096TIP3    H163703   1.134   4.707   1.171  0.5865 -0.6608 -0.6847
14096TIP3    H263704   1.095   4.791   1.051 -1.0246 -3.1255 -1.9735
14097TIP3   OH263705   6.147   3.655  15.459  0.6705 -0.1524 -0.6301
14097TIP3    H163706   6.078   3.707  15.501  1.2412 -1.1887  1.7790
14097TIP3    H263707   6.187   3.714  15.395  0.3308  1.8882  0.9463
14098TIP3   OH263708   5.997   4.858   4.693  0.1725  0.2953 -0.0368
14098TIP3    H163709   5.989   4.849   4.598 -1.0238 -2.0169  0.2209
14098TIP3    H263710   6.089   4.880   4.707 -0.2207  3.8002 -1.8416
14099TIP3   OH263711   2.024   2.678   4.556  0.0222 -0.0021 -0.3083
14099TIP3    H163712   1.964   2.694   4.482 -0.3085 -0.0621 -0.0535
14099TIP3    H263713   2.031   2.763   4.599  0.9578  0.2680 -0.9511
14100TIP3   OH263714   5.319   1.060  17.282 -0.2071 -0.2324 -0.2301
14100TIP3    H163715   5.410   1.081  17.264 -0.3351 -0.6512 -1.4697
14100TIP3    H263716   5.299   0.989  17.221 -1.2550 -0.3838  0.2795
14101TIP3   OH263717   0.920   2.837  15.202 -0.1666 -0.1896 -0.3336
14101TIP3    H163718   0.889   2.749  15.181 -1.2311  0.0292  0.2422
14101TIP3    H263719   0.850   2.875  15.256  0.5832  0.7653 -0.0041
14102TIP3   OH263720   6.481   2.041  16.375 -0.2867  0.1493  0.4349
14102TIP3    H163721   6.555   1.981  16.375  0.9307  1.5850  0.8857
14102TIP3    H263722   6.445   2.035  16.463  0.0395  0.3061  0.5820
14103TIP3   OH263723   6.552   3.486  11.455 -0.1430 -0.0159  0.3495
14103TIP3    H163724   6.537   3.475  11.549 -2.8968  0.2352  0.0252
14103TIP3    H263725   6.556   3.581  11.443 -0.3009 -0.0328  0.1570
14104TIP3   OH263726   3.226   1.627  11.715  0.4244  0.1542  0.2484
14104TIP3    H163727   3.161   1.602  11.650  1.6767 -0.5825 -0.7840
14104TIP3    H263728   3.249   1.717  11.693 -1.0776  0.8522  1.3743
14105TIP3   OH263729   2.475   2.748   0.911 -0.5517 -0.0108  0.7005
14105TIP3    H163730   2.486   2.678   0.974 -3.6849 -0.5899  0.7776
14105TIP3    H263731   2.511   2.714   0.830  1.3929 -0.1623  1.5857
14106TIP3   OH263732   6.413   5.045  17.221 -0.3163 -0.5247  0.2091
14106TIP3    H163733   6.400   5.034  17.315  0.6670 -1.7844  0.2198
14106TIP3    H263734   6.333   5.090  17.191 -1.1960 -1.2022  1.4463
14107TIP3   OH263735   2.096   2.260  12.502 -0.5752 -0.2132 -0.1480
14107TIP3    H163736   2.019   2.204  12.494 -0.6074  0.0319 -1.9390
14107TIP3    H263737   2.070   2.343  12.462  1.2956 -0.8691 -2.9709
14108TIP3   OH263738   3.331   0.239   1.893 -0.4192  0.0175 -0.3208
14108TIP3    H163739   3.408   0.227   1.837  0.8545  0.1993  1.3055
14108TIP3    H263740   3.330   0.332   1.912 -1.2263  0.0618 -0.5399
14109TIP3   OH263741   3.240   0.497  15.535 -0.2317  0.7710 -0.3657
14109TIP3    H163742   3.169   0.554  15.565  0.4469  0.3563  2.3394
14109TIP3    H263743   3.214   0.410  15.563  1.1996  0.5895  0.5497
14110TIP3   OH263744   0.230   5.063  16.969  0.3500 -0.3238 -0.4371
14110TIP3    H163745   0.295   5.005  17.008  0.4722  0.0014 -0.1443
14110TIP3    H263746   0.146   5.030  17.003  0.5361  0.6601  1.0767
14111TIP3   OH263747   2.818   3.622   0.974 -0.5935 -0.1437 -0.2602
14111TIP3    H163748   2.807   3.531   0.945  0.3889 -0.6439  0.8624
14111TIP3    H263749   2.886   3.657   0.917 -0.6690 -0.2287 -0.4064
14112TIP3   OH263750   4.664   0.596   1.533 -0.2991  0.6904  0.4013
14112TIP3    H163751   4.616   0.516   1.512  0.1452  0.3505  0.6728
14112TIP3    H263752   4.665   0.598   1.629  1.9416 -0.3576  0.4499
14113TIP3   OH263753   6.251   3.083   2.796  0.1430 -0.1467 -0.5138
14113TIP3    H163754   6.182   3.122   2.742  1.5076  1.6910 -1.0029
14113TIP3    H263755   6.231   2.989   2.794 -0.7365  0.0135 -2.9749
14114TIP3   OH263756   5.275   3.301  13.191  0.2764  0.0532 -0.1995
14114TIP3    H163757   5.303   3.236  13.128 -0.6020  0.7498 -1.3513
14114TIP3    H263758   5.336   3.374  13.179  0.1532  0.1591 -0.1873
14115TIP3   OH263759   4.397   0.509   2.616  0.2514  0.0807 -0.1860
14115TIP3    H163760   4.326   0.447   2.633 -1.1655  1.8408  0.7014
14115TIP3    H263761   4.400   0.518   2.521 -0.9284  0.2039 -0.2197
14116TIP3   OH263762   5.838   3.608   6.752 -0.1466  0.8828 -0.0258
14116TIP3    H163763   5.894   3.534   6.728  0.5311  0.6355  2.1336
14116TIP3    H263764   5.760   3.568   6.790  0.6851  1.1773  2.1757
14117TIP3   OH263765   0.335   1.445   3.384  0.3485  0.4228  0.0794
14117TIP3    H163766   0.343   1.539   3.368 -0.5893  0.5627  0.3716
14117TIP3    H263767   0.241   1.427   3.379  0.2471 -0.0380  2.4596
14118TIP3   OH263768   2.131   0.787   0.705  0.0104  0.2479  0.2264
14118TIP3    H163769   2.213   0.743   0.685 -0.3643 -0.4543  0.2116
14118TIP3    H263770   2.064   0.734   0.661 -0.3668  1.3300 -0.5459
14119TIP3   OH263771   1.926   2.479  16.964  0.4658 -0.0791 -0.2019
14119TIP3    H163772   2.006   2.516  17.002  0.2599 -1.1132  1.3544
14119TIP3    H263773   1.951   2.390  16.938 -0.1093 -0.3280  0.0807
14120TIP3   OH263774   2.163   2.576   3.258 -0.4071  0.2108  0.3821
14120TIP3    H163775   2.250   2.594   3.293  0.2796 -0.8057 -0.7396
14120TIP3    H263776   2.178   2.555   3.166 -2.0456  1.8399 -0.3236
14121TIP3   OH263777   3.195   2.700   0.524 -0.4138  0.0545 -0.3527
14121TIP3    H163778   3.217   2.615   0.562  0.5331  0.7886  0.8056
14121TIP3    H263779   3.159   2.750   0.597 -2.0634  0.3039 -1.2726
14122TIP3   OH263780   1.314   1.490  17.158  0.2221 -0.5052  0.3303
14122TIP3    H163781   1.245   1.556  17.159 -0.3623 -1.1069  0.3689
14122TIP3    H263782   1.276   1.415  17.204  0.6514 -1.0895 -0.2518
14123TIP3   OH263783   2.904   2.342  16.558  0.5473 -0.4114  0.7413
14123TIP3    H163784   2.840   2.284  16.516 -1.2995  1.0235  1.4682
14123TIP3    H263785   2.852   2.402  16.610  2.3756  1.8995  0.0731
14124TIP3   OH263786   1.546   6.453  12.791  0.3213  0.1567 -0.2223
14124TIP3    H163787   1.475   6.516  12.788  0.8341  0.7433 -0.0885
14124TIP3    H263788   1.626   6.505  12.783  0.8179 -0.3221  1.3119
14125TIP3   OH263789   4.394   4.205  16.030 -0.0544 -0.6593 -0.3579
14125TIP3    H163790   4.367   4.296  16.043 -2.6426 -1.4509  0.5150
14125TIP3    H263791   4.416   4.174  16.118  1.2202 -0.7926 -0.7069
14126TIP3   OH263792   2.520   0.483   4.325  0.2250 -0.4613  0.7837
14126TIP3    H163793   2.593   0.443   4.374  0.6910  0.2232  0.6613
14126TIP3    H263794   2.535   0.577   4.332  0.2054 -0.3338 -0.5169
14127TIP3   OH263795   3.516   5.227  17.280 -0.3377  0.3441 -0.1644
14127TIP3    H163796   3.517   5.317  17.311 -0.2302 -0.1274  1.3174
14127TIP3    H263797   3.572   5.180  17.343  3.2228 -0.0692 -3.2630
14128TIP3   OH263798   5.672   3.154  15.037 -0.1634 -0.0650  0.0755
14128TIP3    H163799   5.750   3.131  15.087 -0.7682 -1.0368  0.6098
14128TIP3    H263800   5.609   3.184  15.102 -0.7187 -0.6621 -0.1748
14129TIP3   OH263801   3.833   0.284   5.634  0.0894  0.6448 -0.1494
14129TIP3    H163802   3.846   0.199   5.591 -2.2243  0.3894 -0.5071
14129TIP3    H263803   3.887   0.345   5.586 -0.6860 -0.0655 -2.0134
14130TIP3   OH263804   5.054   1.134   1.049 -0.1742 -0.0396 -0.0455
14130TIP3    H163805   5.017   1.122   0.961 -1.2079 -1.3371  0.5251
14130TIP3    H263806   5.030   1.224   1.072 -0.2696  0.1730 -0.9199
14131TIP3   OH263807   4.184   4.449  13.573  0.0078  0.1889 -0.4056
14131TIP3    H163808   4.244   4.431  13.646  0.4562 -0.4907 -0.9348
14131TIP3    H263809   4.236   4.504  13.514 -0.6071  1.3917  0.1278
14132TIP3   OH263810   4.814   4.909  14.157 -0.0314 -0.6922  0.4045
14132TIP3    H163811   4.828   4.852  14.081  1.7034  1.0990 -0.7253
14132TIP3    H263812   4.725   4.943  14.145 -0.9399 -2.7677  0.8880
14133TIP3   OH263813   6.583   0.994   3.645 -0.8082 -0.2455 -0.1947
14133TIP3    H163814   6.577   0.905   3.680  0.2314  0.1992  1.2127
14133TIP3    H263815   6.594   1.049   3.723 -0.9703  1.0745 -1.0752
14134TIP3   OH263816   4.422   4.271  15.770 -0.0806  0.6505 -0.2471
14134TIP3    H163817   4.408   4.220  15.850 -0.8585  1.5325  0.1971
14134TIP3    H263818   4.481   4.217  15.718  0.7392  0.2122  1.0686
14135TIP3   OH263819   3.784   4.466   5.808 -0.2104  0.0998  0.4291
14135TIP3    H163820   3.847   4.526   5.849  2.7153 -2.0446 -0.5712
14135TIP3    H263821   3.809   4.380   5.842  0.6338 -1.4549 -3.6223
14136TIP3   OH263822   3.804   3.007   6.429  0.1628 -0.2209 -0.3587
14136TIP3    H163823   3.755   2.941   6.380 -1.1209 -0.0253  0.6031
14136TIP3    H263824   3.896   2.989   6.409 -0.2699 -0.6319 -2.2019
14137TIP3   OH263825   5.991   4.253   2.183 -0.3350  0.3245  0.5655
14137TIP3    H163826   5.940   4.297   2.251  0.5864 -0.8845  2.1071
14137TIP3    H263827   6.073   4.228   2.227  0.2198 -0.6448 -0.9495
14138TIP3   OH263828   0.538   0.656   3.283 -0.1104 -0.3776  0.2890
14138TIP3    H163829   0.633   0.648   3.279 -0.1939 -1.5354  0.3907
14138TIP3    H263830   0.522   0.751   3.285  1.1507 -0.1325  3.2200
14139TIP3   OH263831   4.992   3.801   4.657  0.1214 -0.4835  0.3992
14139TIP3    H163832   5.035   3.817   4.573  2.0739 -1.0948  1.2321
14139TIP3    H263833   4.992   3.886   4.701 -0.1546 -0.3416  0.1335
14140TIP3   OH263834   3.991   3.903   5.443  0.3647  0.1219 -0.0127
14140TIP3    H163835   3.972   3.820   5.397 -0.2685 -0.0440  0.5316
14140TIP3    H263836   3.991   3.880   5.535  2.3267  0.3214  0.0796
14141TIP3   OH263837   5.457   3.207  10.888  0.2766 -0.6258 -0.3059
14141TIP3    H163838   5.386   3.148  10.863 -0.1640 -1.0904  1.8670
14141TIP3    H263839   5.454   3.277  10.822 -2.5298 -0.3653 -0.0409
14142TIP3   OH263840   3.886   6.114  16.887  0.1898  0.0344 -0.0034
14142TIP3    H163841   3.828   6.173  16.840  0.3563  0.5417  0.4096
14142TIP3    H263842   3.839   6.093  16.968  0.6161  0.5385  0.3863
14143TIP3   OH263843   1.593   4.901  14.728 -0.3813 -0.1885 -0.1339
14143TIP3    H163844   1.601   4.979  14.783  0.3115 -1.5431  1.7992
14143TIP3    H263845   1.679   4.891  14.688  0.3846 -1.3502  1.6795
14144TIP3   OH263846   2.543   6.043   0.361 -0.0028 -0.1057 -0.1077
14144TIP3    H163847   2.471   5.982   0.344 -1.5797  0.7463  2.9478
14144TIP3    H263848   2.502   6.130   0.358  1.0493  0.4500  0.9542
14145TIP3   OH263849   2.810   5.708   6.316 -0.3577  0.1996  0.0196
14145TIP3    H163850   2.805   5.799   6.345  1.8342 -0.0135  1.2472
14145TIP3    H263851   2.786   5.656   6.393 -0.5181 -0.2923 -0.3533
14146TIP3   OH263852   4.554   3.179   1.143 -0.1920 -0.4627  0.2402
14146TIP3    H163853   4.600   3.154   1.062 -1.7994  2.0265 -1.5664
14146TIP3    H263854   4.608   3.140   1.213  3.0874 -0.0789 -1.8279
14147TIP3   OH263855   0.236   3.835  15.175  0.1202 -0.8420  0.6472
14147TIP3    H163856   0.255   3.927  15.192  0.1391 -0.1598 -2.4502
14147TIP3    H263857   0.159   3.816  15.229 -0.0643  1.0766  1.1277
14148TIP3   OH263858   5.978   4.425   3.462  0.0037 -0.1522  0.4323
14148TIP3    H163859   5.928   4.478   3.400 -0.2355 -2.6947 -1.7476
14148TIP3    H263860   5.914   4.361   3.495  0.6162 -0.0881  1.8244
14149TIP3   OH263861   2.961   2.729   3.060 -0.3999 -0.0107  0.1211
14149TIP3    H163862   3.029   2.662   3.056 -1.3102 -0.8950 -0.9086
14149TIP3    H263863   2.879   2.681   3.065 -1.0284  1.0258  0.0482
14150TIP3   OH263864   5.867   3.554  14.704 -0.2227  0.2814  0.8096
14150TIP3    H163865   5.874   3.495  14.779 -0.1779 -0.5310  0.1730
14150TIP3    H263866   5.928   3.625  14.723 -0.0061 -0.0599  1.4069
14151TIP3   OH263867   0.279   0.571   3.528  0.8839  0.2689  0.5636
14151TIP3    H163868   0.367   0.535   3.526  0.2849 -1.2196 -0.2054
14151TIP3    H263869   0.257   0.586   3.436  0.5630  1.2533  0.7877
14152TIP3   OH263870   0.571   1.680   6.126 -0.3991 -0.1980  0.0281
14152TIP3    H163871   0.490   1.629   6.124 -0.3749 -0.2873  0.8621
14152TIP3    H263872   0.641   1.615   6.135 -0.0993 -0.2201 -2.0049
14153TIP3   OH263873   1.483   5.971  16.501 -0.5262 -0.4150 -0.3956
14153TIP3    H163874   1.417   5.952  16.434  0.7463 -1.0139 -1.5270
14153TIP3    H263875   1.548   5.902  16.490  0.9596  0.9198 -0.2316
14154TIP3   OH263876   4.333   5.944  12.164 -0.0437 -0.5542 -0.0237
14154TIP3    H163877   4.390   5.892  12.220 -0.0107 -0.6553 -0.1526
14154TIP3    H263878   4.337   6.032  12.202 -1.8366 -1.0809  1.5600
14155TIP3   OH263879   5.110   0.654  14.846 -0.4793  0.2035  0.4675
14155TIP3    H163880   5.038   0.671  14.786 -0.1832  0.6533  0.2409
14155TIP3    H263881   5.146   0.740  14.868  0.8567 -0.0780 -0.4875
14156TIP3   OH263882   6.321   6.193  11.677  0.4691 -0.0274  0.1135
14156TIP3    H163883   6.267   6.239  11.742 -0.3677  2.5464 -2.1943
14156TIP3    H263884   6.319   6.102  11.704 -2.8236  0.3613  1.6686
14157TIP3   OH263885   4.889   1.717   6.304 -0.2298  0.1092 -0.2658
14157TIP3    H163886   4.880   1.705   6.398  1.8793  0.1763 -0.0069
14157TIP3    H263887   4.943   1.643   6.275 -0.0761  0.5936 -1.2546
14158TIP3   OH263888   0.793   1.005  14.954  0.9874 -0.2746 -0.3871
14158TIP3    H163889   0.813   1.098  14.943  0.8478 -0.4734 -2.8195
14158TIP3    H263890   0.821   0.985  15.044 -1.6048  2.7331  1.3105
14159TIP3   OH263891   6.037   1.774  17.304  0.2739  0.5589  0.2416
14159TIP3    H163892   6.088   1.740  17.230 -1.2470  0.2432 -0.6999
14159TIP3    H263893   6.081   1.738  17.382 -0.7602 -3.0367 -0.6397
14160TIP3   OH263894   0.106   3.718  14.249  0.5169  0.3207 -0.3146
14160TIP3    H163895   0.164   3.727  14.173  2.1230  0.3352  0.8758
14160TIP3    H263896   0.149   3.655  14.305 -0.1743  0.9946  1.0137
14161TIP3   OH263897   5.167   0.462  15.816 -0.9054 -0.3120  0.0419
14161TIP3    H163898   5.162   0.554  15.788  1.2609  0.3523  1.5804
14161TIP3    H263899   5.076   0.432  15.815 -1.4505  1.0343 -2.9514
14162TIP3   OH263900   1.803   0.659   4.681 -0.2055  0.6043 -0.2236
14162TIP3    H163901   1.786   0.720   4.610 -2.4472  1.9509  1.3496
14162TIP3    H263902   1.739   0.589   4.669  0.3058  0.1362 -0.2696
14163TIP3   OH263903   3.459   0.308   1.293  0.3682 -0.2486  0.1575
14163TIP3    H163904   3.425   0.265   1.372 -0.7986  1.4857  0.6618
14163TIP3    H263905   3.536   0.356   1.323 -0.1052  0.4533  0.2845
14164TIP3   OH263906   2.866   0.124   3.780  0.1091 -0.1250 -0.0208
14164TIP3    H163907   2.889   0.106   3.689  0.1569  0.8184 -0.2064
14164TIP3    H263908   2.881   0.218   3.790  0.1466 -0.2266  0.9761
14165TIP3   OH263909   1.936   5.209  12.078 -0.3667 -0.0017 -0.1179
14165TIP3    H163910   1.904   5.252  12.158  0.5069 -1.2789  0.9740
14165TIP3    H263911   1.877   5.135  12.066 -0.2965 -0.0007 -0.4620
14166TIP3   OH263912   5.981   1.227   3.940 -0.2649 -0.2521  0.2066
14166TIP3    H163913   5.985   1.322   3.928  1.0065 -0.2550  0.4748
14166TIP3    H263914   6.026   1.211   4.023  0.3171 -1.1617 -0.2610
14167TIP3   OH263915   1.620   6.756  14.533 -0.2181  0.5898 -0.4588
14167TIP3    H163916   1.627   6.701  14.455 -0.4915  0.3167 -0.2922
14167TIP3    H263917   1.618   6.694  14.606  2.2118  0.8848 -0.0579
14168TIP3   OH263918   2.739   5.364   6.199  0.0406  0.5867  0.6630
14168TIP3    H163919   2.706   5.335   6.284 -1.7629 -0.2622 -0.2573
14168TIP3    H263920   2.755   5.282   6.151  0.5255  1.0601  0.0020
14169TIP3   OH263921   1.994   2.631  10.926 -0.1283  0.4951 -0.4135
14169TIP3    H163922   1.914   2.611  10.876 -0.1095 -0.2019 -0.1802
14169TIP3    H263923   1.984   2.722  10.952  0.0853  1.0450 -2.1150
14170TIP3   OH263924   3.906   5.457  16.610 -0.5557 -0.0682 -0.2501
14170TIP3    H163925   3.930   5.503  16.530  0.9993 -0.7926 -0.2430
14170TIP3    H263926   3.985   5.408  16.633 -1.6278 -1.4323  0.6347
14171TIP3   OH263927   4.042   0.763  16.819 -0.1988 -0.7491 -0.2103
14171TIP3    H163928   3.961   0.813  16.815  1.4721  2.2036 -0.2174
14171TIP3    H263929   4.057   0.736  16.728 -1.1653 -1.3808 -0.1969
14172TIP3   OH263930   5.070   5.672   5.527  0.3718 -0.8120 -0.4349
14172TIP3    H163931   5.135   5.742   5.531 -0.7230  0.2770 -1.0363
14172TIP3    H263932   5.118   5.596   5.495  1.6042 -0.3730  0.3222
14173TIP3   OH263933   3.171   1.261  15.219 -0.2213 -0.4419 -0.3220
14173TIP3    H163934   3.211   1.332  15.269 -1.2738  0.5671 -0.8853
14173TIP3    H263935   3.200   1.275  15.129 -1.3085 -0.0837 -0.6206
14174TIP3   OH263936   4.081   4.869   4.471  0.0240  0.4735  0.6374
14174TIP3    H163937   4.168   4.909   4.474  0.2767 -0.0685  3.4042
14174TIP3    H263938   4.023   4.940   4.444  1.0665  1.3985  0.7577
14175TIP3   OH263939   0.129   5.791   1.385  0.3476  0.2663 -0.2788
14175TIP3    H163940   0.093   5.839   1.460  0.6735  0.8558 -0.4968
14175TIP3    H263941   0.123   5.699   1.411  0.2015  0.4491  0.3593
14176TIP3   OH263942   5.064   3.938  13.519  0.5399 -0.1368  0.4814
14176TIP3    H163943   5.096   3.985  13.442 -0.5321  1.7697  1.1209
14176TIP3    H263944   5.129   3.956  13.587  0.2073  0.3073  0.6860
14177TIP3   OH263945   4.623   4.219  12.068 -0.2585 -0.6284  0.2536
14177TIP3    H163946   4.706   4.180  12.095 -1.0113 -2.6301 -0.1003
14177TIP3    H263947   4.625   4.308  12.103  1.0898 -1.3442  2.1873
14178TIP3   OH263948   3.986   3.032   4.974 -0.0198 -0.1757  0.0457
14178TIP3    H163949   3.954   3.034   5.064 -2.4782  2.0125 -0.7445
14178TIP3    H263950   3.929   2.969   4.930 -0.2108  0.3247 -0.4224
14179TIP3   OH263951   4.940   5.889   2.980 -0.2205 -0.4017 -0.8636
14179TIP3    H163952   4.984   5.804   2.979  1.9268  0.5692  1.1178
14179TIP3    H263953   4.909   5.899   3.070 -0.3201  0.9543 -1.0271
14180TIP3   OH263954   4.170   3.119   5.763  0.1246 -0.0316 -0.0132
14180TIP3    H163955   4.109   3.062   5.809 -1.8287  2.1320  0.2538
14180TIP3    H263956   4.130   3.132   5.677  1.0930  0.1176 -0.4573
14181TIP3   OH263957   1.075   0.516   2.815 -0.2297 -0.0336  0.0167
14181TIP3    H163958   1.067   0.546   2.725 -1.3642  0.3428  0.2299
14181TIP3    H263959   1.061   0.595   2.868  1.9552  0.0723  0.5250
14182TIP3   OH263960   3.168   1.823  15.992 -0.2044  0.4155  0.5002
14182TIP3    H163961   3.087   1.831  16.044  0.8753  0.0141  2.3207
14182TIP3    H263962   3.178   1.729  15.977  0.4097  0.3790  1.1069
14183TIP3   OH263963   2.546   0.368  11.934  0.1397  0.0830 -0.4529
14183TIP3    H163964   2.601   0.332  12.004 -0.0236  0.5313 -0.0859
14183TIP3    H263965   2.472   0.408  11.981  0.3312  0.9120 -0.8574
14184TIP3   OH263966   1.172   0.699   1.445  0.0486 -0.0815  0.1537
14184TIP3    H163967   1.127   0.713   1.362  1.4972  0.2434 -0.5937
14184TIP3    H263968   1.209   0.784   1.468 -1.1899  0.1011  1.6948
14185TIP3   OH263969   3.119   1.041   1.883 -0.1375 -0.2432 -0.0138
14185TIP3    H163970   3.172   1.120   1.870 -0.1656 -0.4014 -1.2104
14185TIP3    H263971   3.031   1.074   1.901 -0.2076  0.0156 -0.7761
14186TIP3   OH263972   0.606   4.632  13.611  0.2637 -0.1604  0.0964
14186TIP3    H163973   0.677   4.633  13.675 -0.8005  1.5118  1.3483
14186TIP3    H263974   0.534   4.680  13.653 -0.1244  2.0856 -2.7192
14187TIP3   OH263975   1.601   1.009  11.664  0.9821  0.1735  0.4688
14187TIP3    H163976   1.639   0.987  11.578 -0.2570  0.3787 -0.1481
14187TIP3    H263977   1.605   1.105  11.667  1.2636  0.1560  0.7708
14188TIP3   OH263978   2.795   0.431  11.566 -0.4039 -0.4418  0.5434
14188TIP3    H163979   2.847   0.502  11.606 -1.1037 -0.2185  1.0747
14188TIP3    H263980   2.741   0.475  11.501 -0.8979 -0.4698  0.9297
14189TIP3   OH263981   5.497   1.417  11.546  0.6365 -0.5251  0.1385
14189TIP3    H163982   5.487   1.447  11.456  0.7958  1.9196  0.8597
14189TIP3    H263983   5.411   1.384  11.571  0.2672 -0.0567 -0.5136
14190TIP3   OH263984   4.849   6.154  17.174 -0.4527  0.1586  0.0558
14190TIP3    H163985   4.775   6.135  17.116  1.2028 -0.6350 -1.9150
14190TIP3    H263986   4.825   6.114  17.258 -2.3970  0.2731 -0.3989
14191TIP3   OH263987   5.254   0.529  14.567  0.7236 -0.1322 -0.2638
14191TIP3    H163988   5.313   0.588  14.520 -1.0619  0.7366 -1.5386
14191TIP3    H263989   5.166   0.561  14.546 -0.2384 -0.6232  2.5074
14192TIP3   OH263990   5.126   4.087  15.909  0.0508 -0.4390  0.6711
14192TIP3    H163991   5.212   4.085  15.867 -0.5186 -0.3333 -0.5250
14192TIP3    H263992   5.106   3.995  15.928  0.1440 -0.5241  0.3607
14193TIP3   OH263993   4.898   6.176   3.466 -0.6368  0.6934  0.1565
14193TIP3    H163994   4.950   6.250   3.499 -0.4260  0.6901 -0.1627
14193TIP3    H263995   4.938   6.154   3.382  0.7589 -1.2278  1.2267
14194TIP3   OH263996   3.684   4.472  15.763  0.0911 -0.4894 -0.4004
14194TIP3    H163997   3.608   4.414  15.754  0.5458 -1.0030 -0.9682
14194TIP3    H263998   3.646   4.559  15.777 -0.5949 -0.9115  0.4639
14195TIP3   OH263999   5.903   4.675   7.062 -0.0938 -0.3564  0.4105
14195TIP3    H164000   5.989   4.633   7.051  0.7172  1.4776 -0.9291
14195TIP3    H264001   5.852   4.643   6.987 -0.3965 -1.0129  0.8932
14196TIP3   OH264002   0.443   1.666   4.700 -0.2989 -0.2139 -0.3237
14196TIP3    H164003   0.517   1.606   4.693  1.5478  1.9934 -0.9882
14196TIP3    H264004   0.466   1.724   4.773  0.2590  2.4876 -2.5045
14197TIP3   OH264005   5.127   5.418   5.428  0.2814 -0.2489 -0.2045
14197TIP3    H164006   5.055   5.407   5.366 -0.7658  0.3928  0.8510
14197TIP3    H264007   5.122   5.340   5.484 -0.9698  0.7849  1.1887
14198TIP3   OH264008   1.292   0.764  16.297 -0.7805  0.2474  0.6710
14198TIP3    H164009   1.387   0.751  16.293 -1.0182 -1.2839 -1.3557
14198TIP3    H264010   1.280   0.856  16.275  0.1290 -0.1992 -1.9679
14199TIP3   OH264011   3.060   1.928   0.036  0.1642 -0.0611  0.5946
14199TIP3    H164012   2.970   1.923   0.003  0.3421 -2.1364  0.2851
14199TIP3    H264013   3.109   1.969  -0.035 -0.3249  0.0547  0.3139
14200TIP3   OH264014   4.937   3.995   2.367 -0.1492  0.6629  0.1002
14200TIP3    H164015   4.914   4.073   2.416  2.7873  0.6288  1.7569
14200TIP3    H264016   4.953   4.026   2.278 -0.5993  1.6310  0.3419
14201TIP3   OH264017   1.494   0.684   4.830 -0.4816 -0.0784  0.3477
14201TIP3    H164018   1.528   0.608   4.781  1.0861 -0.2406  1.5986
14201TIP3    H264019   1.509   0.758   4.771 -0.8930 -0.5646 -0.3915
14202TIP3   OH264020   1.781   4.669   2.459  0.0156  0.1295  0.2294
14202TIP3    H164021   1.859   4.679   2.513  0.4518  0.2596 -0.4159
14202TIP3    H264022   1.736   4.753   2.466  0.2477  0.2634  0.1192
14203TIP3   OH264023   2.196   2.685   0.875  0.3787  0.2546 -0.0786
14203TIP3    H164024   2.166   2.602   0.912 -0.9038  0.4180 -0.6729
14203TIP3    H264025   2.283   2.698   0.911  0.0553 -0.6858  1.0997
14204TIP3   OH264026   4.770   4.298   4.525  0.2213  0.0973  0.3854
14204TIP3    H164027   4.775   4.210   4.488 -0.2333  0.0655  0.3981
14204TIP3    H264028   4.678   4.309   4.549  0.2032  0.7077  0.0625
14205TIP3   OH264029   3.388   3.385   0.263  0.3925 -0.4774 -0.0321
14205TIP3    H164030   3.296   3.407   0.274  1.0490  1.2566  3.0913
14205TIP3    H264031   3.388   3.297   0.226 -2.4910 -0.8178  0.6215
14206TIP3   OH264032   5.875   2.978  13.697 -0.3867 -0.1078 -0.3538
14206TIP3    H164033   5.861   2.998  13.605 -2.6070  2.8123  0.4399
14206TIP3    H264034   5.938   3.044  13.727 -0.1970 -0.5930  0.3506
14207TIP3   OH264035   3.659   4.649   0.976 -0.6321  0.3023  0.1111
14207TIP3    H164036   3.738   4.598   0.962  0.2640  1.6727 -0.0110
14207TIP3    H264037   3.588   4.585   0.970  0.4674 -1.0185  0.5913
14208TIP3   OH264038   2.668   3.052   6.435 -1.0613  0.3408  0.1659
14208TIP3    H164039   2.691   3.101   6.514  2.6484 -1.9515  0.7191
14208TIP3    H264040   2.725   3.087   6.367 -0.8418 -0.8387 -0.2873
14209TIP3   OH264041   6.451   6.599   1.724 -0.0390  0.5604  0.0052
14209TIP3    H164042   6.435   6.593   1.630  0.2113  0.1385 -0.0080
14209TIP3    H264043   6.542   6.626   1.732 -0.2893  1.4327  0.1177
14210TIP3   OH264044   5.350   2.736  16.176 -0.0486 -0.0377  0.5642
14210TIP3    H164045   5.368   2.819  16.132  3.1634 -0.7244  0.3700
14210TIP3    H264046   5.290   2.690  16.118 -0.9976  1.6500  0.1395
14211TIP3   OH264047   3.663   1.470  13.091  0.1404  0.0760  0.8497
14211TIP3    H164048   3.715   1.455  13.170  1.5978  0.0228 -0.0893
14211TIP3    H264049   3.632   1.383  13.066  1.7631 -0.2765 -0.0151
14212TIP3   OH264050   1.836   4.539   1.770 -0.7620 -0.3978  0.1474
14212TIP3    H164051   1.790   4.536   1.686  1.0925  0.1768 -0.9276
14212TIP3    H264052   1.829   4.630   1.798  0.9865  0.0481 -0.7815
14213TIP3   OH264053   4.458   3.810   2.238 -0.5954  0.0184  0.3925
14213TIP3    H164054   4.524   3.744   2.219  1.3147  2.1818 -1.2022
14213TIP3    H264055   4.385   3.788   2.180 -0.7246 -1.5984  1.1223
14214TIP3   OH264056   2.467   3.752  14.771 -0.3458  0.0011 -0.1535
14214TIP3    H164057   2.403   3.817  14.743 -1.3043 -0.5092  0.8053
14214TIP3    H264058   2.490   3.705  14.690 -0.8853  0.4354 -0.5633
14215TIP3   OH264059   6.077   4.046  17.152  0.0667 -0.5175  0.0464
14215TIP3    H164060   6.075   4.089  17.237 -1.3417 -1.5817  0.5793
14215TIP3    H264061   6.165   4.064  17.118  0.8666 -0.5732  1.9736
14216TIP3   OH264062   1.082   3.509   0.960 -0.2536 -0.5341 -0.0924
14216TIP3    H164063   1.028   3.442   1.003 -0.2672 -1.3868 -1.3977
14216TIP3    H264064   1.029   3.588   0.964  0.2454 -0.2191  2.5484
14217TIP3   OH264065   6.018   1.561   5.922  0.5714 -0.1323 -0.0234
14217TIP3    H164066   6.019   1.623   5.995 -1.8059  0.2212 -0.2205
14217TIP3    H264067   6.070   1.603   5.854  0.4852  0.7979  0.4760
14218TIP3   OH264068   1.652   4.153  11.743  0.0377  0.7108 -0.3254
14218TIP3    H164069   1.655   4.073  11.796  0.6524 -0.7577 -2.4658
14218TIP3    H264070   1.581   4.204  11.783 -0.5473 -0.9820  0.9832
14219TIP3   OH264071   5.712   3.527   1.752  0.4760  0.0422  0.1704
14219TIP3    H164072   5.699   3.497   1.662 -1.1617 -1.0486  0.7338
14219TIP3    H264073   5.804   3.508   1.771  0.3938 -1.3106 -0.7006
14220TIP3   OH264074   4.256   2.169   0.131 -0.5979 -0.6078  1.4099
14220TIP3    H164075   4.231   2.082   0.161  2.3065 -1.3766  1.9403
14220TIP3    H264076   4.342   2.185   0.171  1.1065  0.5195 -2.1810
14221TIP3   OH264077   0.962   4.481  14.578  0.5754 -0.3082 -0.0415
14221TIP3    H164078   1.026   4.495  14.648 -0.9209  1.1261  1.1564
14221TIP3    H264079   0.959   4.565  14.532 -0.4825 -0.3121 -0.0086
14222TIP3   OH264080   2.404   6.630   0.846 -0.0774  0.0619 -0.4283
14222TIP3    H164081   2.399   6.633   0.941 -1.2521  0.1518 -0.4825
14222TIP3    H264082   2.497   6.621   0.827  0.2467  0.8418  0.7111
14223TIP3   OH264083   0.416   2.240   6.616 -0.0718 -0.1893  0.1598
14223TIP3    H164084   0.321   2.236   6.628 -0.6524  1.8176 -2.7149
14223TIP3    H264085   0.442   2.323   6.656  0.1689  0.0347 -0.4448
14224TIP3   OH264086   1.851   3.422  17.009 -0.1035  0.2464  0.3861
14224TIP3    H164087   1.794   3.376  16.948 -1.3684  0.2242  1.5269
14224TIP3    H264088   1.807   3.413  17.094  0.8014  1.5790  1.0285
14225TIP3   OH264089   0.541   1.051   4.288  0.4547 -0.2833  0.1912
14225TIP3    H164090   0.540   1.056   4.192  0.4774  1.0367  0.2367
14225TIP3    H264091   0.471   0.990   4.310 -0.1301  0.0686 -0.6505
14226TIP3   OH264092   2.672   1.131  11.404  0.8721  0.1456  0.1997
14226TIP3    H164093   2.670   1.047  11.357  1.5765  0.5547 -0.5895
14226TIP3    H264094   2.606   1.185  11.361  0.9985  0.2704  0.1604
14227TIP3   OH264095   0.819   3.333  14.837  0.0146 -0.1887  0.3670
14227TIP3    H164096   0.762   3.294  14.903 -0.4467 -1.8316 -0.9418
14227TIP3    H264097   0.761   3.355  14.765  0.5669  1.2517  0.3324
14228TIP3   OH264098   4.963   1.856   4.549 -0.5630  0.6962 -0.1776
14228TIP3    H164099   5.015   1.908   4.488  0.7599  0.6387  0.8467
14228TIP3    H264100   4.917   1.921   4.602 -0.2953  0.7954 -0.0624
14229TIP3   OH264101   4.403   1.410   1.718 -0.3297  0.2610  0.0061
14229TIP3    H164102   4.354   1.344   1.668  0.2528  0.0053 -0.2448
14229TIP3    H264103   4.413   1.371   1.805 -1.8077  0.9373  0.4985
14230TIP3   OH264104   5.456   4.351  16.966 -0.4510 -0.0102 -0.3966
14230TIP3    H164105   5.415   4.282  17.019  0.0690  0.0418  0.0916
14230TIP3    H264106   5.541   4.366  17.009 -0.2537  0.4220 -0.9288
14231TIP3   OH264107   2.753   4.954   6.820 -0.3452 -1.1567  0.1054
14231TIP3    H164108   2.844   4.950   6.790 -1.1679  1.5219 -3.4108
14231TIP3    H264109   2.735   4.866   6.854  3.5258 -1.7117  1.1801
14232TIP3   OH264110   1.937   3.224  14.716  0.9076 -0.1701  0.5419
14232TIP3    H164111   1.988   3.229  14.636  1.7315  2.0254  1.1445
14232TIP3    H264112   1.867   3.288  14.704  0.5008 -0.4703  1.2301
14233TIP3   OH264113   5.029   2.040  13.195  0.0265 -0.1284  0.9763
14233TIP3    H164114   4.975   2.008  13.123 -0.2038  0.4404  0.8921
14233TIP3    H264115   5.040   1.964  13.253  0.3905 -0.6483  0.2421
14234TIP3   OH264116   3.917   4.771   0.642 -0.1566 -0.9107 -0.1644
14234TIP3    H164117   3.923   4.857   0.601  0.7327 -1.0938 -0.4388
14234TIP3    H264118   3.867   4.718   0.580 -0.6438 -0.6232 -0.0272
14235TIP3   OH264119   1.883   1.118   5.199 -0.2853 -0.1120  0.5687
14235TIP3    H164120   1.861   1.119   5.106 -0.1800 -0.7440  0.5350
14235TIP3    H264121   1.969   1.159   5.203 -0.5764  0.5241  0.4688
14236TIP3   OH264122   1.205   5.414  11.395 -0.1697 -0.7135 -0.3105
14236TIP3    H164123   1.167   5.447  11.477  0.5019 -2.2180  0.6527
14236TIP3    H264124   1.268   5.481  11.370 -0.1313 -0.3872  0.6032
14237TIP3   OH264125   1.201   0.990  16.196  0.6300  0.8367  0.5803
14237TIP3    H164126   1.141   0.941  16.140  2.0604 -0.6307  0.2714
14237TIP3    H264127   1.143   1.041  16.254 -0.9589 -1.5919  1.2759
14238TIP3   OH264128   4.545   3.382  16.738 -0.1902  0.3779 -0.2497
14238TIP3    H164129   4.557   3.347  16.826 -0.2642 -2.4395 -1.2646
14238TIP3    H264130   4.589   3.319  16.681  0.1909  2.3138 -2.2469
14239TIP3   OH264131   2.362   4.796  16.508  0.4635  0.2101 -0.0576
14239TIP3    H164132   2.360   4.867  16.573 -0.8096 -0.8902  1.1713
14239TIP3    H264133   2.270   4.770  16.498  0.8511 -0.9072 -0.8854
14240TIP3   OH264134   6.224   2.727   1.484  0.4783 -0.3270  0.4672
14240TIP3    H164135   6.214   2.743   1.390  2.1995 -0.4890  0.2154
14240TIP3    H264136   6.195   2.808   1.526 -0.9395 -0.4918 -0.1350
14241TIP3   OH264137   5.801   1.559   2.708 -0.5618 -0.3722  0.3466
14241TIP3    H164138   5.807   1.470   2.742  0.6530  0.3376  2.1376
14241TIP3    H264139   5.891   1.591   2.709 -0.9605  0.8252 -0.4425
14242TIP3   OH264140   1.129   0.777   0.706  0.3036 -0.1591 -0.4053
14242TIP3    H164141   1.181   0.772   0.786  1.3873 -1.4516 -1.1485
14242TIP3    H264142   1.066   0.705   0.714  0.2748 -0.1569 -0.6063
14243TIP3   OH264143   4.408   1.929  12.047 -0.1722  0.0897  0.0838
14243TIP3    H164144   4.349   1.911  12.120 -0.9953  1.1788 -0.2965
14243TIP3    H264145   4.361   1.900  11.969  0.5954 -0.8184 -0.0685
14244TIP3   OH264146   3.832   2.647  13.068  0.0514 -0.3582 -0.4895
14244TIP3    H164147   3.913   2.596  13.059  0.2569  0.1153 -1.5250
14244TIP3    H264148   3.804   2.663  12.978  0.2901  1.7906 -0.2270
14245TIP3   OH264149   0.164   0.308   5.702  0.0168 -1.0739  0.1233
14245TIP3    H164150   0.081   0.346   5.672  0.9611 -0.0696 -1.3263
14245TIP3    H264151   0.141   0.220   5.732 -1.7789 -0.3537  0.9927
14246TIP3   OH264152   3.500   2.206  14.334  0.8602  0.5182 -0.2741
14246TIP3    H164153   3.449   2.191  14.255 -1.1632 -0.9371  1.2002
14246TIP3    H264154   3.538   2.120  14.355  0.3647  0.5754  0.9550
14247TIP3   OH264155   3.903   3.874   2.376  0.4839  0.3132 -0.2015
14247TIP3    H164156   3.866   3.960   2.357  0.4861  0.5074  0.6072
14247TIP3    H264157   3.827   3.821   2.400  0.6019  0.4079  0.3961
14248TIP3   OH264158   1.447   3.666   1.309 -0.4603 -0.5360 -0.5341
14248TIP3    H164159   1.496   3.584   1.306 -2.0666 -1.6842  1.6855
14248TIP3    H264160   1.375   3.653   1.248 -0.0932 -0.3272 -1.0139
14249TIP3   OH264161   1.348   0.395   4.481 -0.1578  0.1574  0.3683
14249TIP3    H164162   1.253   0.388   4.467 -0.2971  0.4883  1.0774
14249TIP3    H264163   1.374   0.471   4.430 -0.0445 -0.6694 -0.8424
14250TIP3   OH264164   3.947   2.343   5.751  0.1758  0.1906  0.7973
14250TIP3    H164165   3.936   2.365   5.658  0.1715 -2.0067  0.2189
14250TIP3    H264166   4.023   2.394   5.779 -0.6051  1.8887 -0.0362
14251TIP3   OH264167   4.812   5.283  17.314 -0.1575 -0.0829  0.0511
14251TIP3    H164168   4.757   5.280  17.235  0.1345  0.8885 -0.2075
14251TIP3    H264169   4.811   5.375  17.340  2.4317  0.2530 -0.7462
14252TIP3   OH264170   2.880   0.272   6.126  0.6181  0.0860  0.2771
14252TIP3    H164171   2.806   0.276   6.187  2.0045 -0.6370  2.0925
14252TIP3    H264172   2.853   0.326   6.052 -2.3071 -1.2888  0.1896
14253TIP3   OH264173   4.327   6.104   4.142  0.6190 -0.2826  0.2743
14253TIP3    H164174   4.372   6.157   4.208  0.4165 -0.0968  0.2664
14253TIP3    H264175   4.335   6.014   4.175  2.7211 -0.5192 -0.7401
14254TIP3   OH264176   1.489   1.639  12.844 -0.3323 -0.1357  0.6499
14254TIP3    H164177   1.568   1.690  12.826 -0.8271  0.9831  1.4941
14254TIP3    H264178   1.518   1.567  12.900  0.4508 -1.0778 -0.9101
14255TIP3   OH264179   0.819   2.353  11.788  0.1694 -0.1287  0.3638
14255TIP3    H164180   0.837   2.426  11.848  1.7820 -1.1891  1.2449
14255TIP3    H264181   0.864   2.278  11.827 -1.9347 -1.7905 -0.1642
14256TIP3   OH264182   4.428   2.701   4.307 -0.3502  0.0305 -0.3883
14256TIP3    H164183   4.468   2.615   4.296  1.1396  0.3463  1.9884
14256TIP3    H264184   4.358   2.686   4.371 -0.2842  0.5444 -0.1972
14257TIP3   OH264185   3.632   2.056  12.942 -0.2116  0.2258  0.5620
14257TIP3    H164186   3.724   2.049  12.968 -0.3213  1.8502  1.4998
14257TIP3    H264187   3.582   2.040  13.022 -0.6547  1.7581  0.6201
14258TIP3   OH264188   0.841   3.133   4.229  0.1209  0.7094  0.2947
14258TIP3    H164189   0.749   3.115   4.246  0.4143 -0.9443  0.2330
14258TIP3    H264190   0.878   3.155   4.315  0.3790 -2.0746  0.9930
14259TIP3   OH264191   2.981   4.965  11.146  0.2536 -0.1499 -0.2895
14259TIP3    H164192   2.927   4.950  11.069 -0.3572 -0.4091  0.1735
14259TIP3    H264193   2.964   4.888  11.202  0.6623  0.0438  0.1105
14260TIP3   OH264194   4.634   2.396   2.198 -1.0472  0.3776  0.3089
14260TIP3    H164195   4.701   2.341   2.239 -1.6218 -0.8423 -0.3185
14260TIP3    H264196   4.626   2.361   2.109 -2.4348  0.5428  0.3398
14261TIP3   OH264197   2.798   2.076   3.660 -0.2212 -0.1805 -0.2086
14261TIP3    H164198   2.802   2.165   3.693 -2.2573 -0.0024 -0.3413
14261TIP3    H264199   2.874   2.032   3.699 -0.6238  0.9268  1.9202
14262TIP3   OH264200   4.468   4.236  16.868 -0.0898  0.2291 -0.0355
14262TIP3    H164201   4.528   4.205  16.936  0.2113  1.0668  0.0900
14262TIP3    H264202   4.410   4.297  16.912 -1.1573 -0.6796 -0.1261
14263TIP3   OH264203   2.831   3.458  13.218  0.2132  0.1709 -0.1083
14263TIP3    H164204   2.915   3.485  13.181 -0.6263  3.4673  0.1139
14263TIP3    H264205   2.852   3.433  13.308  0.7620  3.2364  0.7280
14264TIP3   OH264206   1.459   5.908  13.820 -0.0419  0.2596 -0.2447
14264TIP3    H164207   1.534   5.877  13.871 -0.1756  2.3696  1.3810
14264TIP3    H264208   1.497   5.970  13.757 -0.2583  0.2188 -0.4174
14265TIP3   OH264209   0.381   2.816  13.540 -0.5683  0.1736 -0.0159
14265TIP3    H164210   0.397   2.791  13.631 -2.1861  1.6923  0.7468
14265TIP3    H264211   0.286   2.828  13.535 -0.2351  3.1216 -1.0564
14266TIP3   OH264212   0.655   4.561   3.544 -0.3121  0.4175  0.0186
14266TIP3    H164213   0.582   4.538   3.486  0.3413 -1.2847 -0.2006
14266TIP3    H264214   0.691   4.642   3.507 -0.6432  0.0073 -1.2701
14267TIP3   OH264215   4.623   1.969  16.719  0.4516  0.2215 -0.1949
14267TIP3    H164216   4.554   2.030  16.691 -0.4574 -0.4871  0.4706
14267TIP3    H264217   4.687   2.025  16.762  0.3309  0.9022 -0.8750
14268TIP3   OH264218   5.554   2.040  12.227  0.3532  0.0786  0.4532
14268TIP3    H164219   5.589   2.120  12.189  1.0775 -0.9439 -1.1771
14268TIP3    H264220   5.618   2.016  12.294  1.7181 -0.6127 -1.0196
14269TIP3   OH264221   5.576   0.953  12.914  0.6027 -0.2197 -0.0595
14269TIP3    H164222   5.514   0.971  12.984  0.2448 -0.8088 -0.2185
14269TIP3    H264223   5.661   0.948  12.957  0.3869 -0.5624  0.3255
14270TIP3   OH264224   5.977   0.518  16.873 -0.0368 -0.2162 -0.2379
14270TIP3    H164225   5.960   0.607  16.843  0.8960 -0.6771 -2.3041
14270TIP3    H264226   6.006   0.471  16.795  1.4360 -1.8321  1.1948
14271TIP3   OH264227   1.247   1.072  13.651 -0.1669  0.5280  0.1421
14271TIP3    H164228   1.164   1.119  13.662 -1.1277 -0.6891 -1.4465
14271TIP3    H264229   1.242   1.035  13.563  1.1434 -1.3516  0.7975
14272TIP3   OH264230   2.445   4.106  11.555  0.0069  0.1459 -0.0935
14272TIP3    H164231   2.361   4.141  11.583 -0.4793  0.3196 -1.6664
14272TIP3    H264232   2.481   4.173  11.497 -0.1728 -1.1878 -1.8357
14273TIP3   OH264233   4.769   0.134   3.857  0.4241  0.4813 -0.4812
14273TIP3    H164234   4.836   0.189   3.897  0.0853  0.1286  0.5946
14273TIP3    H264235   4.692   0.146   3.912 -0.3290  0.6664 -1.5385
14274TIP3   OH264236   0.484   3.425  15.771 -0.4679 -0.1794  0.3538
14274TIP3    H164237   0.469   3.352  15.712  0.2236  2.8911 -4.1628
14274TIP3    H264238   0.577   3.420  15.793 -0.3600 -0.4874 -0.1659
14275TIP3   OH264239   4.983   5.965  16.681 -0.4110  0.5425 -0.2335
14275TIP3    H164240   4.965   5.984  16.589  1.4439 -4.0292 -1.8714
14275TIP3    H264241   5.069   6.004  16.698 -0.6097  1.1196 -0.5402
14276TIP3   OH264242   4.417   3.160   3.813  0.1119 -0.4222  1.1190
14276TIP3    H164243   4.471   3.080   3.809  0.2797 -0.2844  0.3975
14276TIP3    H264244   4.471   3.222   3.862  0.4412 -0.4217  0.7687
14277TIP3   OH264245   1.628   1.692   1.137  0.8563  0.1981  0.3719
14277TIP3    H164246   1.690   1.622   1.120  1.1425  0.6607 -0.6005
14277TIP3    H264247   1.542   1.652   1.126  0.9993 -0.2412  0.8581
14278TIP3   OH264248   6.548   6.408  11.166 -0.4725  0.5065 -0.2674
14278TIP3    H164249   6.487   6.479  11.183  0.1334  0.5922  1.8730
14278TIP3    H264250   6.549   6.399  11.071  0.2647  4.0998 -0.7385
14279TIP3   OH264251   3.913   2.446   3.451 -0.4572  0.4171 -0.6926
14279TIP3    H164252   3.840   2.384   3.455  0.9780 -1.3054 -0.0567
14279TIP3    H264253   3.906   2.496   3.533  0.0860 -0.9808  0.2375
14280TIP3   OH264254   3.226   1.259  11.265 -0.2369 -0.2432  0.0562
14280TIP3    H164255   3.202   1.342  11.223 -0.4558 -0.5148 -0.3577
14280TIP3    H264256   3.187   1.192  11.210 -1.6183 -0.5753  1.3576
14281TIP3   OH264257   6.075   1.785  11.680  0.0856  0.2419 -0.3827
14281TIP3    H164258   6.035   1.861  11.723 -0.0684 -0.3148  0.4677
14281TIP3    H264259   6.159   1.818  11.648  0.6807  0.4319  1.2484
14282TIP3   OH264260   0.648   6.072  13.127 -0.1908  0.2543 -0.1379
14282TIP3    H164261   0.557   6.055  13.102  0.2714 -1.3533 -0.9036
14282TIP3    H264262   0.644   6.089  13.221 -1.3039  0.4712 -0.2099
14283TIP3   OH264263   6.154   6.419  11.172  0.0346 -0.0892  0.1941
14283TIP3    H164264   6.212   6.344  11.184  0.2953  0.0558 -0.1161
14283TIP3    H264265   6.081   6.386  11.120 -0.2271 -0.3030  0.6939
14284TIP3   OH264266   2.504   3.164  16.173  0.2452 -0.1292  0.0242
14284TIP3    H164267   2.513   3.208  16.088  0.8916 -1.0603 -0.4192
14284TIP3    H264268   2.501   3.071  16.150  1.3078 -0.4432  1.0675
14285TIP3   OH264269   5.428   0.434   3.095 -0.7743  0.0165  0.3314
14285TIP3    H164270   5.503   0.457   3.150  0.6791  0.5162 -1.7565
14285TIP3    H264271   5.422   0.338   3.103 -0.4017  0.0520  1.1273
14286TIP3   OH264272   3.011   4.301  16.264 -0.0395  0.1132  0.2614
14286TIP3    H164273   2.982   4.389  16.242  1.3437  0.0036 -2.3733
14286TIP3    H264274   2.968   4.244  16.200  0.9771 -0.8059  0.3705
14287TIP3   OH264275   5.282   3.190   0.757 -0.4475  0.4085  0.3890
14287TIP3    H164276   5.312   3.149   0.676  1.3782  0.5006  0.9877
14287TIP3    H264277   5.265   3.281   0.732  1.0859  0.6921  0.2988
14288TIP3   OH264278   6.256   6.773  14.916 -0.4149  0.2478  0.3856
14288TIP3    H164279   6.274   6.802  14.827 -1.7034 -1.9829 -0.6726
14288TIP3    H264280   6.334   6.797  14.965  1.0371  0.0406 -1.7108
14289TIP3   OH264281   3.748   5.635   5.605 -0.2597 -0.2285 -0.0096
14289TIP3    H164282   3.713   5.646   5.516 -1.3230 -1.0737  0.2887
14289TIP3    H264283   3.710   5.553   5.636  0.2650 -0.0472  1.1616
14290TIP3   OH264284   0.607   1.192   1.585  0.5448  0.4072 -0.3153
14290TIP3    H164285   0.516   1.221   1.577  0.2568 -0.7366 -1.5787
14290TIP3    H264286   0.607   1.104   1.548  1.7661 -0.4493  1.5811
14291TIP3   OH264287   3.357   3.301  16.109 -0.1940  0.1910 -0.0013
14291TIP3    H164288   3.265   3.323  16.100 -0.2415 -0.4400 -1.2472
14291TIP3    H264289   3.397   3.379  16.147 -0.6008  1.9355 -2.9169
14292TIP3   OH264290   3.314   4.917   0.782  0.0010 -0.1061  0.0723
14292TIP3    H164291   3.240   4.876   0.737  0.5618  0.2718 -1.2723
14292TIP3    H264292   3.391   4.873   0.745  0.4742 -0.3222  1.2690
14293TIP3   OH264293   4.071   2.517   4.384 -0.0569  0.2933  0.2042
14293TIP3    H164294   4.049   2.424   4.391 -0.6743  0.4308  0.1665
14293TIP3    H264295   3.998   2.555   4.335  1.0669  0.4850 -1.3782
14294TIP3   OH264296   4.267   1.359   3.775  0.2502  0.3628  0.7999
14294TIP3    H164297   4.259   1.410   3.694 -0.7615  1.6462  1.6653
14294TIP3    H264298   4.247   1.269   3.749 -2.6148  1.1314  0.0335
14295TIP3   OH264299   1.676   5.884  11.725  0.5773 -0.4974  0.4991
14295TIP3    H164300   1.752   5.866  11.780  0.6262  0.4864  0.7729
14295TIP3    H264301   1.696   5.968  11.683 -0.0804 -0.5390  0.0838
14296TIP3   OH264302   1.811   0.495   0.799 -0.6314 -0.1783  0.0050
14296TIP3    H164303   1.718   0.515   0.804 -0.6936 -0.0198 -1.4013
14296TIP3    H264304   1.845   0.515   0.886 -1.3239  2.7209 -0.2963
14297TIP3   OH264305   1.971   1.146   1.382  0.3135  0.2691  0.5586
14297TIP3    H164306   2.052   1.143   1.330  0.1442  1.5894  0.1672
14297TIP3    H264307   1.942   1.237   1.374 -0.7447  0.0187  1.4182
14298TIP3   OH264308   4.384   0.890  14.027  0.2754 -0.9341  0.0766
14298TIP3    H164309   4.385   0.921  13.936 -1.1186  0.1330  0.3844
14298TIP3    H264310   4.416   0.965  14.077  2.1533 -1.9027  0.4027
14299TIP3   OH264311   0.869   5.848   5.118 -0.1765  0.0984 -0.6300
14299TIP3    H164312   0.816   5.870   5.042 -2.0515 -2.2844 -0.1267
14299TIP3    H264313   0.877   5.931   5.167 -0.1103  1.3467 -2.6523
14300TIP3   OH264314   4.031   2.879   0.866 -0.3074 -0.3353 -0.1221
14300TIP3    H164315   3.967   2.809   0.875 -0.6515 -0.1226 -0.8427
14300TIP3    H264316   4.113   2.834   0.845  0.0183 -0.6763  1.7736
14301TIP3   OH264317   3.262   0.247  15.111  0.6319 -0.4242 -0.1164
14301TIP3    H164318   3.205   0.174  15.136  0.9926 -0.3778  0.9056
14301TIP3    H264319   3.226   0.322  15.158 -0.9136  0.5344 -2.6584
14302TIP3   OH264320   6.230   5.815   0.291 -0.0589 -0.3887  0.3003
14302TIP3    H164321   6.324   5.832   0.293 -0.1043 -0.2265  1.0842
14302TIP3    H264322   6.210   5.779   0.377 -0.4775 -1.7767 -0.3429
14303TIP3   OH264323   5.094   6.163  11.599  0.2678 -0.2377  0.0175
14303TIP3    H164324   5.124   6.072  11.590  2.9814  0.7580 -2.1530
14303TIP3    H264325   5.084   6.175  11.694 -1.7988 -3.2038  0.3319
14304TIP3   OH264326   4.753   4.797   3.110  0.1166  0.2467 -0.5585
14304TIP3    H164327   4.792   4.824   3.027  0.3781 -1.1694 -0.9218
14304TIP3    H264328   4.683   4.737   3.085 -1.8338  2.1048  0.1182
14305TIP3   OH264329   1.871   4.708  16.018 -0.0641  0.4223  0.5867
14305TIP3    H164330   1.961   4.694  15.987  0.2435 -1.3205  2.1233
14305TIP3    H264331   1.858   4.642  16.086 -2.5274  0.6250  0.4062
14306TIP3   OH264332   0.607   3.906   4.561 -0.0788 -0.1307  0.0256
14306TIP3    H164333   0.635   3.823   4.523  0.1102 -0.3123  0.5622
14306TIP3    H264334   0.541   3.939   4.500  1.5206  0.4887 -1.4932
14307TIP3   OH264335   2.075   0.719   5.974 -0.0858  0.1733 -0.0543
14307TIP3    H164336   2.021   0.728   6.052 -1.0492 -0.9705 -0.5528
14307TIP3    H264337   2.165   0.715   6.007 -0.5017 -0.7030  1.0258
14308TIP3   OH264338   5.023   4.271   3.047 -0.6284 -0.4081 -0.0829
14308TIP3    H164339   5.096   4.316   3.003 -1.1438  0.5573  0.0401
14308TIP3    H264340   4.962   4.341   3.070 -1.1565 -1.1067  0.6633
14309TIP3   OH264341   3.129   3.598   0.876  0.6691 -0.2495  0.4851
14309TIP3    H164342   3.212   3.645   0.889  1.2813 -1.0883 -0.2480
14309TIP3    H264343   3.095   3.632   0.793  0.5524 -0.2934  0.5149
14310TIP3   OH264344   5.107   3.942   2.043 -0.0366  0.7325  0.6245
14310TIP3    H164345   5.132   4.033   2.058  0.8031  0.6220 -0.0474
14310TIP3    H264346   5.126   3.898   2.126 -0.3059  1.1345  0.9024
14311TIP3   OH264347   2.380   2.034   1.027 -0.4656  0.1093  0.6139
14311TIP3    H164348   2.306   1.973   1.034 -0.0452 -0.6453 -1.1445
14311TIP3    H264349   2.340   2.116   0.997 -0.8176  0.2646  1.4702
14312TIP3   OH264350   1.554   4.402  14.880  0.0152 -0.2747 -0.0147
14312TIP3    H164351   1.579   4.494  14.891 -0.5237  0.0556 -1.3678
14312TIP3    H264352   1.628   4.362  14.835  2.2420 -1.6351  4.3348
14313TIP3   OH264353   3.115   3.298   4.045  0.6134 -0.4284 -0.2901
14313TIP3    H164354   3.090   3.216   4.002  0.6535  0.1285 -1.4384
14313TIP3    H264355   3.057   3.364   4.007  0.4982  0.0588  0.7086
14314TIP3   OH264356   2.911   1.816  15.333 -0.4129 -0.1508 -0.5541
14314TIP3    H164357   2.956   1.746  15.287 -0.0921 -0.1241 -0.2807
14314TIP3    H264358   2.909   1.889  15.270 -0.5512 -0.3286 -0.7566
14315TIP3   OH264359   0.267   5.030   0.001 -0.1195 -0.1563  0.6848
14315TIP3    H164360   0.320   4.988  -0.066  2.5041  1.5696  1.5172
14315TIP3    H264361   0.184   4.983  -0.001  0.2904 -0.9857 -2.8336
14316TIP3   OH264362   0.163   4.029   5.066  0.3758 -0.0637  0.0578
14316TIP3    H164363   0.224   3.986   5.006 -0.4810  1.5571 -2.1003
14316TIP3    H264364   0.090   4.056   5.010 -1.0450  0.4853  2.0786
14317TIP3   OH264365   4.020   1.268   1.958  0.1842  0.4846  0.5608
14317TIP3    H164366   4.055   1.188   1.919 -2.5186 -1.6485  2.1013
14317TIP3    H264367   3.950   1.295   1.898 -1.5092 -0.6715  1.9115
14318TIP3   OH264368   6.477   2.867  15.443  0.2153  0.4132 -0.4687
14318TIP3    H164369   6.567   2.835  15.440 -0.5607 -1.9431 -2.2425
14318TIP3    H264370   6.451   2.858  15.534  1.0073 -1.3277 -0.3823
14319TIP3   OH264371   0.224   4.938  15.575  0.1592  0.4010 -0.1171
14319TIP3    H164372   0.174   4.885  15.512  0.3410 -2.3187  1.8621
14319TIP3    H264373   0.158   4.990  15.621 -0.3570 -0.1125 -0.2709
14320TIP3   OH264374   4.973   3.336   1.457  0.0565  0.2588 -0.0824
14320TIP3    H164375   4.882   3.349   1.430  0.2211  1.8892  0.0355
14320TIP3    H264376   4.992   3.245   1.435 -0.7317  0.6566 -2.7675
14321TIP3   OH264377   0.207   1.352   0.051 -0.3942  0.5236 -0.1706
14321TIP3    H164378   0.247   1.294   0.115 -1.5722 -1.1922 -0.9195
14321TIP3    H264379   0.233   1.440   0.079  0.5889 -0.2768  1.5977
14322TIP3   OH264380   2.844   5.966   5.418  0.0527  0.4283 -0.2080
14322TIP3    H164381   2.793   5.921   5.484 -1.0088 -1.8367 -2.4166
14322TIP3    H264382   2.784   6.031   5.381 -1.2593 -1.8231 -2.3818
14323TIP3   OH264383   6.630   4.215   6.464  0.3465  0.1352 -0.1438
14323TIP3    H164384   6.710   4.268   6.462  0.3679  0.1012 -0.1821
14323TIP3    H264385   6.585   4.241   6.545 -0.9056  2.1016 -1.3828
14324TIP3   OH264386   6.179   0.945  16.311  0.2007  0.2480  0.1304
14324TIP3    H164387   6.102   0.972  16.360  0.4256  1.4960 -0.1490
14324TIP3    H264388   6.199   0.857  16.343  0.1001  0.8450  1.9817
14325TIP3   OH264389   5.648   0.152  14.510 -0.3317  0.1083  0.1356
14325TIP3    H164390   5.689   0.238  14.509  1.9448 -0.8446  2.0432
14325TIP3    H264391   5.560   0.168  14.543 -0.0970  1.7410  0.0666
14326TIP3   OH264392   2.270   5.713  17.019 -0.4326 -0.2347  0.3493
14326TIP3    H164393   2.239   5.794  17.061  0.5242  0.1754  0.2950
14326TIP3    H264394   2.335   5.679  17.081 -0.7678 -0.9224  0.3265
14327TIP3   OH264395   4.863   0.148  12.513 -0.0849 -0.1263  0.5897
14327TIP3    H164396   4.857   0.180  12.603 -1.5938  0.5569  0.2879
14327TIP3    H264397   4.954   0.163  12.488 -0.3346  2.5761  0.9954
14328TIP3   OH264398   5.536   4.145  11.351  0.3140 -0.6926 -0.0538
14328TIP3    H164399   5.476   4.214  11.324  1.3129 -0.5958 -2.3101
14328TIP3    H264400   5.492   4.102  11.424 -0.9694  1.4090  0.4887
14329TIP3   OH264401   3.488   5.188   2.966  0.5848  1.2010 -0.0043
14329TIP3    H164402   3.499   5.278   2.935  4.3499  1.3889  1.3627
14329TIP3    H264403   3.574   5.148   2.954  0.1312 -1.0104  3.0357
14330TIP3   OH264404   1.842   6.336   3.928  0.5395  0.1083  0.1518
14330TIP3    H164405   1.790   6.257   3.916  0.7216 -0.0411  0.3417
14330TIP3    H264406   1.784   6.407   3.902  0.5706 -0.1287 -0.5746
14331TIP3   OH264407   5.740   1.845   3.952  0.2097 -0.2015 -0.4687
14331TIP3    H164408   5.699   1.929   3.973  0.7433 -0.1921  0.5850
14331TIP3    H264409   5.669   1.793   3.914 -0.2163  0.5941 -0.7804
14332TIP3   OH264410   6.013   1.688   3.167  0.4557 -0.3951  0.2125
14332TIP3    H164411   6.010   1.616   3.104  1.7325 -0.9225  0.7156
14332TIP3    H264412   6.041   1.763   3.115 -0.6716 -0.2975 -0.2726
14333TIP3   OH264413   3.021   0.066   2.667  0.4818 -0.6079 -0.1665
14333TIP3    H164414   2.997   0.158   2.675  1.7192 -0.1068 -1.6997
14333TIP3    H264415   2.965   0.021   2.730 -0.3590  1.1467  0.4026
14334TIP3   OH264416   6.224   5.537   1.021 -1.0216  0.0096 -0.5437
14334TIP3    H164417   6.161   5.600   0.987 -2.6634 -1.2792 -0.0195
14334TIP3    H264418   6.265   5.583   1.095 -1.0852  0.9898 -1.0984
14335TIP3   OH264419   1.290   2.948   1.002 -0.3884 -0.2839  0.5155
14335TIP3    H164420   1.214   2.893   0.979  0.3489 -0.6198 -1.3504
14335TIP3    H264421   1.254   3.016   1.058 -2.0145 -0.6659  0.0069
14336TIP3   OH264422   3.752   3.314  13.717  0.3335  0.5216  0.1473
14336TIP3    H164423   3.723   3.223  13.714 -2.8844  1.3896  0.7273
14336TIP3    H264424   3.845   3.310  13.738  0.6770 -2.6322 -1.4243
14337TIP3   OH264425   1.447   3.100  16.063  0.3940 -0.2959  0.4707
14337TIP3    H164426   1.516   3.123  16.002  0.5784  0.6149  0.9996
14337TIP3    H264427   1.409   3.019  16.028 -0.1333  0.6822 -1.3445
14338TIP3   OH264428   5.741   2.171  13.200 -0.3142 -1.3329 -0.5154
14338TIP3    H164429   5.814   2.152  13.259  0.6187  0.1978 -1.1147
14338TIP3    H264430   5.712   2.258  13.225 -2.1149 -1.9783 -0.1728
14339TIP3   OH264431   0.732   6.294   3.695 -0.8783  0.1212 -0.4239
14339TIP3    H164432   0.642   6.265   3.705 -0.5447 -0.4832  0.9803
14339TIP3    H264433   0.752   6.340   3.777  0.6513 -1.3180  0.0511
14340TIP3   OH264434   4.452   1.033  14.875  0.1550 -0.2039  0.2438
14340TIP3    H164435   4.463   0.946  14.914 -2.4716 -0.4881  0.4878
14340TIP3    H264436   4.376   1.025  14.817  0.6481  1.6177 -0.7484
14341TIP3   OH264437   5.968   3.478  12.144  0.4507  0.2213 -0.3534
14341TIP3    H164438   5.878   3.476  12.175  0.3248 -1.7887 -0.7014
14341TIP3    H264439   6.009   3.549  12.193 -1.4932  1.7402 -0.7957
14342TIP3   OH264440   3.529   5.272  14.772 -0.6892  0.4655 -0.3804
14342TIP3    H164441   3.495   5.226  14.849  1.4653 -1.0732 -0.2638
14342TIP3    H264442   3.592   5.335  14.808 -1.0907  1.1045 -0.7817
14343TIP3   OH264443   3.852   4.690  12.391  0.9465 -0.0516  0.1987
14343TIP3    H164444   3.942   4.722  12.381  0.6402  1.0775  0.9528
14343TIP3    H264445   3.797   4.765  12.371  0.1942 -0.3136  1.2129
14344TIP3   OH264446   6.456   1.340  15.415  0.6029  0.1943  0.1882
14344TIP3    H164447   6.502   1.312  15.494 -2.9044 -0.2581  2.2353
14344TIP3    H264448   6.432   1.431  15.431  0.5081  0.3422 -0.7182
14345TIP3   OH264449   4.431   0.789  15.028 -0.1269  0.3105  0.3061
14345TIP3    H164450   4.487   0.723  15.069 -0.3782  0.0667  0.2552
14345TIP3    H264451   4.361   0.804  15.091  0.4236  1.2122  0.7313
14346TIP3   OH264452   5.180   2.851  13.533 -0.1534 -0.6383 -0.3882
14346TIP3    H164453   5.159   2.840  13.440 -0.4112  1.0674 -0.5696
14346TIP3    H264454   5.205   2.943  13.541 -0.0914 -0.7672  1.2297
14347TIP3   OH264455   5.370   1.080   0.365  0.3118  0.2165  0.2665
14347TIP3    H164456   5.296   1.057   0.421  1.0062  0.0574  1.1600
14347TIP3    H264457   5.372   1.176   0.366 -0.2629  0.2334 -0.2822
14348TIP3   OH264458   2.682   1.677   3.847 -0.8048  0.5326  0.0262
14348TIP3    H164459   2.606   1.622   3.831 -1.1548  1.4182 -1.6133
14348TIP3    H264460   2.668   1.754   3.792  0.7202  1.2459  0.5650
14349TIP3   OH264461   5.368   5.583  14.591 -0.1557  0.1372  0.1635
14349TIP3    H164462   5.354   5.496  14.554 -2.2208  1.2159 -1.9254
14349TIP3    H264463   5.444   5.617  14.543 -1.5786  0.7618 -1.7755
14350TIP3   OH264464   3.617   1.007  13.915  0.1898  0.2238 -0.9385
14350TIP3    H164465   3.626   0.926  13.864  0.1241  0.0095 -0.6098
14350TIP3    H264466   3.561   0.983  13.989  0.7933  0.3784 -0.4253
14351TIP3   OH264467   1.501   0.389   5.019 -0.0586 -0.3186 -0.0949
14351TIP3    H164468   1.514   0.483   5.015 -0.4257 -0.2150  0.9290
14351TIP3    H264469   1.417   0.374   4.976  0.0447 -0.1951 -0.3420
14352TIP3   OH264470   0.119   1.316   1.730 -0.2192 -0.2633 -0.5502
14352TIP3    H164471   0.080   1.387   1.680  0.3956 -0.9739 -2.1031
14352TIP3    H264472   0.045   1.270   1.770 -0.5529  2.3322  2.1525
14353TIP3   OH264473   0.479   3.829  17.013  0.4298 -0.0021  0.3769
14353TIP3    H164474   0.532   3.789  17.082  0.0737 -1.1648  0.0134
14353TIP3    H264475   0.462   3.918  17.043  2.1918  0.2378  0.7123
14354TIP3   OH264476   4.502   2.341   5.722  0.3792 -0.0829 -0.3517
14354TIP3    H164477   4.445   2.398   5.669  1.5303  3.0337  1.4889
14354TIP3    H264478   4.455   2.331   5.805  0.6151 -1.1047 -0.3307
14355TIP3   OH264479   5.402   3.731   1.869 -0.3769  0.0704  0.1476
14355TIP3    H164480   5.426   3.649   1.911 -0.9858 -0.3527 -0.3074
14355TIP3    H264481   5.377   3.705   1.780  2.6686  1.1242 -1.1583
14356TIP3   OH264482   2.279   1.719  12.432 -0.1404 -0.2973 -0.0697
14356TIP3    H164483   2.216   1.764  12.376 -0.3218 -1.1163 -0.5467
14356TIP3    H264484   2.226   1.660  12.486  0.2839 -2.1227 -1.5397
14357TIP3   OH264485   5.909   3.020  16.541  0.1311 -0.1220 -0.4071
14357TIP3    H164486   6.003   3.017  16.524  0.1325  0.4047 -0.5141
14357TIP3    H264487   5.898   2.977  16.626  0.9518  3.1454  1.5043
14358TIP3   OH264488   0.717   5.086   2.480  0.7202  0.7069 -0.3418
14358TIP3    H164489   0.721   5.055   2.570 -1.5167  0.5608 -0.2364
14358TIP3    H264490   0.742   5.010   2.428 -1.1016 -0.2448  0.0761
14359TIP3   OH264491   6.074   5.330   1.091  0.0540  0.3876  0.0946
14359TIP3    H164492   6.147   5.390   1.076  0.8330 -0.3418  0.8841
14359TIP3    H264493   6.060   5.287   1.006  0.5721  0.4860 -0.0429
14360TIP3   OH264494   4.876   4.138   3.729 -0.3202  0.0574  0.1979
14360TIP3    H164495   4.830   4.216   3.697 -0.8795 -0.9578 -1.5969
14360TIP3    H264496   4.825   4.109   3.804 -0.1886  1.3159  0.7999
14361TIP3   OH264497   1.376   6.473   3.496  0.5561  1.0277  0.2947
14361TIP3    H164498   1.467   6.449   3.486  0.1504 -0.3208 -0.3298
14361TIP3    H264499   1.351   6.509   3.411  0.2680  0.5597  0.1801
14362TIP3   OH264500   5.029   4.665   3.179 -0.3197  0.1522  0.3062
14362TIP3    H164501   5.105   4.610   3.198  0.9770  2.2414  1.5704
14362TIP3    H264502   4.957   4.604   3.171  1.5796 -2.0086 -1.7273
14363TIP3   OH264503   0.662   5.819  13.452 -0.3420  0.3820  0.2273
14363TIP3    H164504   0.654   5.875  13.529 -0.8965  1.4336 -0.5757
14363TIP3    H264505   0.624   5.735  13.480 -0.2989  0.6718  1.1739
14364TIP3   OH264506   0.134   6.451   3.241 -0.3009  0.2187  0.0910
14364TIP3    H164507   0.203   6.516   3.230  2.8433 -2.6064  1.3172
14364TIP3    H264508   0.107   6.427   3.152  1.7021  0.0848 -0.5144
14365TIP3   OH264509   2.367   5.291  16.001  0.3009 -1.0224 -0.1204
14365TIP3    H164510   2.330   5.262  15.918 -0.0348  1.7351 -1.0624
14365TIP3    H264511   2.304   5.356  16.033  2.8839  1.8665 -0.4192
14366TIP3   OH264512   0.380   6.142  14.007 -0.4701  0.1086 -0.1411
14366TIP3    H164513   0.328   6.148  13.927 -0.9447 -0.7048  0.0958
14366TIP3    H264514   0.316   6.136  14.078 -0.0892 -1.3059  0.1226
14367TIP3   OH264515   3.926   0.828   3.535 -0.1486  0.3327  0.1526
14367TIP3    H164516   3.882   0.895   3.587  1.0387  0.8329  0.5311
14367TIP3    H264517   4.019   0.842   3.551  0.1339 -1.2749  0.0800
14368TIP3   OH264518   3.881   2.524   2.376 -0.2599 -0.0550  0.3015
14368TIP3    H164519   3.905   2.491   2.290 -0.3033 -0.7416  0.5493
14368TIP3    H264520   3.959   2.572   2.406 -0.8129  1.6134 -0.7983
14369TIP3   OH264521   2.130   5.748   0.914 -0.2662  0.3715  0.1417
14369TIP3    H164522   2.154   5.673   0.860  0.2209 -0.2706  1.2111
14369TIP3    H264523   2.208   5.804   0.912 -0.0187  0.0612  0.6257
14370TIP3   OH264524   5.983   3.350   1.488  0.3169  0.1909  0.0996
14370TIP3    H164525   6.001   3.416   1.422 -0.2452 -0.6262 -0.8953
14370TIP3    H264526   5.888   3.353   1.500 -0.2072 -2.4285 -2.2124
14371TIP3   OH264527   3.512   0.428   1.646 -0.0644 -0.0523 -0.6798
14371TIP3    H164528   3.464   0.347   1.627 -0.7255  0.2830 -0.4724
14371TIP3    H264529   3.444   0.494   1.660  0.4307  0.1703  0.8418
14372TIP3   OH264530   2.062   0.470  11.375 -0.1362 -0.1472 -0.5539
14372TIP3    H164531   2.154   0.497  11.377  0.0673 -0.8442  0.1887
14372TIP3    H264532   2.064   0.377  11.400 -1.0882 -0.0348 -0.0215
14373TIP3   OH264533   3.037   4.128   0.138 -0.3046  0.3857  0.1587
14373TIP3    H164534   3.001   4.196   0.080  0.3976  1.0640  0.5011
14373TIP3    H264535   3.066   4.176   0.215 -0.8378 -0.4613  0.8972
14374TIP3   OH264536   2.248   0.573  12.651 -0.0610  0.2332  0.2488
14374TIP3    H164537   2.260   0.510  12.581 -0.0246  1.0776 -0.5213
14374TIP3    H264538   2.252   0.659  12.608  0.8485  0.8044  1.3951
14375TIP3   OH264539   0.937   5.062   4.611 -0.4576  0.2461  0.1755
14375TIP3    H164540   0.885   4.985   4.635  2.0604 -1.4813  0.5560
14375TIP3    H264541   0.963   5.045   4.521  2.4545 -0.9086  1.1216
14376TIP3   OH264542   4.391   4.028  13.703 -0.2398  1.0754 -0.6051
14376TIP3    H164543   4.483   4.007  13.688 -0.2364 -0.1293  0.7559
14376TIP3    H264544   4.343   3.977  13.638 -0.0338 -0.5265  0.4270
14377TIP3   OH264545   0.394   1.479   6.107 -0.3619 -0.2903 -0.5803
14377TIP3    H164546   0.415   1.391   6.074 -2.1469 -0.2725 -1.9025
14377TIP3    H264547   0.307   1.498   6.072  0.5536  2.6225 -1.5884
14378TIP3   OH264548   4.451   3.608   3.094 -0.6027 -0.0822 -0.1074
14378TIP3    H164549   4.394   3.677   3.128 -0.8519  0.2455 -1.1651
14378TIP3    H264550   4.392   3.536   3.072 -0.4411 -0.2949  0.1449
14379TIP3   OH264551   3.356   3.089   5.888 -0.1892 -0.0324 -0.4196
14379TIP3    H164552   3.314   3.141   5.819  2.1685 -0.2128 -2.1055
14379TIP3    H264553   3.410   3.153   5.936  0.7939 -0.4739 -0.9194
14380TIP3   OH264554   5.089   2.353   1.209 -0.5556  0.2715  0.4266
14380TIP3    H164555   5.100   2.265   1.175 -1.6012 -0.5190  2.0067
14380TIP3    H264556   5.021   2.345   1.277  0.1926  2.0483  1.4751
14381TIP3   OH264557   2.236   5.756  15.407 -0.5348 -0.1701 -0.3682
14381TIP3    H164558   2.311   5.779  15.462 -0.1961  0.2064 -0.9904
14381TIP3    H264559   2.231   5.660  15.414  1.0120 -0.3759 -1.6120
14382TIP3   OH264560   3.309   1.726  14.461 -0.5093 -0.5461  0.3994
14382TIP3    H164561   3.296   1.815  14.494 -1.6684 -0.4953 -0.1302
14382TIP3    H264562   3.312   1.736  14.366 -2.0059 -1.1834  0.2449
14383TIP3   OH264563   6.648   1.108  14.085  0.2344  0.0837 -0.3141
14383TIP3    H164564   6.623   1.020  14.056 -0.2950  0.2749 -0.4568
14383TIP3    H264565   6.738   1.098  14.116  0.4690 -0.3408 -1.0885
14384TIP3   OH264566   1.780   2.109   5.439 -0.1680  0.4198 -0.0021
14384TIP3    H164567   1.739   2.070   5.362  2.7439 -0.8487 -1.0615
14384TIP3    H264568   1.766   2.046   5.509 -2.9424  1.6373  0.6628
14385TIP3   OH264569   6.101   4.890   3.958 -0.2519 -0.4357  0.3366
14385TIP3    H164570   6.042   4.874   3.883  0.7582  2.4411 -1.2315
14385TIP3    H264571   6.185   4.855   3.930 -0.1091 -0.2547  0.5403
14386TIP3   OH264572   2.230   0.793  12.220 -0.3696 -0.4738  0.9126
14386TIP3    H164573   2.245   0.846  12.142 -2.1618  0.3872  1.1120
14386TIP3    H264574   2.311   0.743  12.231 -0.4428 -1.4253 -2.0902
14387TIP3   OH264575   1.574   6.393   0.340  0.4065 -0.6373 -0.0798
14387TIP3    H164576   1.487   6.403   0.379  0.4615  4.5784 -0.6559
14387TIP3    H264577   1.557   6.350   0.256 -1.9784  1.5141 -0.8245
14388TIP3   OH264578   2.169   0.551   2.993 -0.1104 -0.7763  0.3123
14388TIP3    H164579   2.207   0.497   2.923 -0.3089  1.7608 -1.8842
14388TIP3    H264580   2.112   0.613   2.948  0.5929  1.7099  2.5724
14389TIP3   OH264581   4.618   2.096  16.059 -0.6946 -0.2459  0.0842
14389TIP3    H164582   4.622   2.066  15.968 -3.4640 -0.4260 -0.0837
14389TIP3    H264583   4.697   2.148  16.072 -0.7861  0.7508 -2.7990
14390TIP3   OH264584   3.031   6.625   3.173  0.3821  0.2852  0.0465
14390TIP3    H164585   2.967   6.641   3.103  0.8557  0.0310 -0.4529
14390TIP3    H264586   3.084   6.705   3.176  1.8789 -0.5929 -1.5225
14391TIP3   OH264587   3.340   0.077  14.407  0.4670  0.5765  0.1432
14391TIP3    H164588   3.290   0.016  14.460  2.1177  0.5857  1.8359
14391TIP3    H264589   3.315   0.058  14.316 -2.1312  0.2807  0.8584
14392TIP3   OH264590   4.091   0.667  16.561 -0.1045  0.2897 -0.0050
14392TIP3    H164591   4.062   0.653  16.471  2.3282 -0.9272 -0.7030
14392TIP3    H264592   4.177   0.624  16.565  0.8564  2.1902  2.2810
14393TIP3   OH264593   2.027   4.128  13.411 -0.4186  0.3316 -0.0189
14393TIP3    H164594   2.044   4.116  13.505 -2.3886  0.4648  0.4047
14393TIP3    H264595   1.976   4.051  13.386 -3.2878  2.0757  0.0104
14394TIP3   OH264596   5.671   4.084   3.513 -0.3932  0.3532 -0.1124
14394TIP3    H164597   5.734   4.012   3.514 -0.1314  0.5213 -1.7176
14394TIP3    H264598   5.648   4.095   3.421 -2.1335  0.8685  0.3437
14395TIP3   OH264599   1.206   5.085  15.168 -0.3085 -0.6485 -0.0865
14395TIP3    H164600   1.124   5.122  15.202 -0.8732  0.5469 -2.5615
14395TIP3    H264601   1.272   5.152  15.185 -0.3183 -0.6174 -0.1714
14396TIP3   OH264602   1.539   1.588  11.104  0.7132 -0.0584  0.2732
14396TIP3    H164603   1.586   1.563  11.183  2.0377  0.6270 -0.2568
14396TIP3    H264604   1.523   1.506  11.058  3.3313 -0.1884 -0.5552
14397TIP3   OH264605   1.928   0.909   1.952 -0.3116  0.2991 -0.0412
14397TIP3    H164606   1.988   0.979   1.924  0.3801 -0.6179 -0.9093
14397TIP3    H264607   1.948   0.896   2.044 -0.5678  1.3548  0.1801
14398TIP3   OH264608   3.303   0.426   5.822 -0.3755  0.4733 -0.0409
14398TIP3    H164609   3.296   0.373   5.901  2.3094  0.8015  0.5010
14398TIP3    H264610   3.269   0.512   5.848  0.6689  0.6361  0.8539
14399TIP3   OH264611   4.696   6.766  11.897  0.4862 -0.5551 -0.3419
14399TIP3    H164612   4.663   6.854  11.880  2.2057  0.2709  0.3622
14399TIP3    H264613   4.758   6.777  11.969 -0.7544 -2.6715  1.1704
14400TIP3   OH264614   0.227   4.365   2.590  0.8177 -0.3505  0.2139
14400TIP3    H164615   0.214   4.321   2.506  0.4312  0.7618 -0.3235
14400TIP3    H264616   0.150   4.341   2.642  0.4393 -0.0260 -0.1963
14401TIP3   OH264617   6.582   2.569   6.769  0.4139  0.5248  0.6217
14401TIP3    H164618   6.593   2.656   6.730  0.1090  1.5135  2.6462
14401TIP3    H264619   6.670   2.532   6.771  0.6409  1.0391  0.3513
14402TIP3   OH264620   1.732   5.261  15.231  0.0626  0.3409  0.1003
14402TIP3    H164621   1.690   5.346  15.217  1.1721  0.8943  0.0312
14402TIP3    H264622   1.701   5.207  15.158  0.7486  1.2367 -0.8880
14403TIP3   OH264623   1.535   5.313  14.015  0.4876  0.1288  0.0408
14403TIP3    H164624   1.551   5.407  14.029  1.4279  0.1490 -1.0499
14403TIP3    H264625   1.553   5.299  13.922 -1.7679 -0.7361 -0.3216
14404TIP3   OH264626   0.600   4.819  14.365  0.3607  0.4996 -0.2068
14404TIP3    H164627   0.579   4.912  14.362  2.0632  0.9505  0.6541
14404TIP3    H264628   0.598   4.797  14.458 -0.3563 -0.4333 -0.4192
14405TIP3   OH264629   3.355   4.609   4.074  0.8803 -0.5363 -0.2082
14405TIP3    H164630   3.419   4.679   4.062  2.4137 -1.6761  0.9762
14405TIP3    H264631   3.361   4.586   4.167 -1.1844 -0.7739 -0.0816
14406TIP3   OH264632   0.404   2.002   0.758  0.1814 -0.2005 -0.0528
14406TIP3    H164633   0.484   1.973   0.803  0.3657 -0.8307 -0.7572
14406TIP3    H264634   0.337   1.940   0.786 -0.1168  0.4416  0.6853
14407TIP3   OH264635   4.104   1.619  13.850  0.3005  0.2713 -0.4976
14407TIP3    H164636   4.150   1.663  13.921  0.1627  0.5764 -0.5933
14407TIP3    H264637   4.164   1.626  13.775  0.1414  0.5822 -0.5964
14408TIP3   OH264638   1.671   1.674   6.471 -0.5671  0.0367  0.0025
14408TIP3    H164639   1.613   1.708   6.538 -0.2629  0.8390 -0.1361
14408TIP3    H264640   1.752   1.724   6.481 -0.0974 -0.6698 -0.1758
14409TIP3   OH264641   0.380   2.110  16.177 -0.6400 -0.2659 -0.5215
14409TIP3    H164642   0.311   2.062  16.131 -1.4310 -0.5214  0.8653
14409TIP3    H264643   0.357   2.102  16.270  0.2628  1.2035 -0.1359
14410TIP3   OH264644   0.653   3.600  13.540 -0.1660 -0.2960  0.1399
14410TIP3    H164645   0.714   3.558  13.601  0.3157  0.1991  0.0073
14410TIP3    H264646   0.611   3.669  13.591  0.8860  0.7080 -0.2992
14411TIP3   OH264647   2.137   3.501  15.762  0.0277 -0.2971  1.0435
14411TIP3    H164648   2.058   3.548  15.792 -0.3469 -0.6420  0.6160
14411TIP3    H264649   2.139   3.516  15.667 -0.0548 -1.0819  0.9134
14412TIP3   OH264650   3.791   1.689  15.691 -0.3298 -0.2721 -0.0002
14412TIP3    H164651   3.707   1.719  15.726 -0.4311  0.3066 -0.7259
14412TIP3    H264652   3.856   1.727  15.749 -0.4896  0.7829 -0.5033
14413TIP3   OH264653   0.760   3.381  15.814 -0.2390  0.4478  0.3543
14413TIP3    H164654   0.833   3.324  15.839  0.0539  0.5727 -0.2090
14413TIP3    H264655   0.779   3.406  15.724  0.0348  2.0497  0.8362
14414TIP3   OH264656   0.415   0.213   3.042  0.0544  0.9430  0.3869
14414TIP3    H164657   0.490   0.183   2.991  0.3527 -0.1547  1.4447
14414TIP3    H264658   0.438   0.303   3.066 -0.3173  1.6720 -1.7904
14415TIP3   OH264659   3.347   3.107  14.395 -0.2882 -0.7752 -0.3782
14415TIP3    H164660   3.280   3.153  14.344 -0.4723  2.0904  2.1901
14415TIP3    H264661   3.406   3.175  14.426  0.7012 -2.5145  1.8976
14416TIP3   OH264662   4.731   0.235   5.587  0.2404 -0.1071 -0.1598
14416TIP3    H164663   4.643   0.203   5.603  0.2311  0.5608  1.3041
14416TIP3    H264664   4.788   0.162   5.612  0.2294  0.9148  3.3548
14417TIP3   OH264665   4.241   3.482  12.786  0.4154  0.3304 -0.1843
14417TIP3    H164666   4.187   3.412  12.746  1.0197  0.3231 -1.0155
14417TIP3    H264667   4.320   3.437  12.816  0.3799  0.4987  0.1601
14418TIP3   OH264668   0.325   4.511  17.164  0.2233  0.8037  0.3284
14418TIP3    H164669   0.374   4.552  17.236 -0.4886 -0.1012  1.3698
14418TIP3    H264670   0.236   4.504  17.198 -0.2647  0.9270 -0.9015
14419TIP3   OH264671   4.939   0.263  13.468 -0.6340  0.0113 -0.1810
14419TIP3    H164672   5.033   0.259  13.485 -0.4814  1.4688 -0.5522
14419TIP3    H264673   4.899   0.239  13.552  0.0425 -1.1341 -0.1619
14420TIP3   OH264674   4.578   4.634   6.081 -0.0214  0.3654  0.1933
14420TIP3    H164675   4.646   4.694   6.048  0.9089 -0.5107  0.4618
14420TIP3    H264676   4.627   4.566   6.128 -1.1371  0.0315  0.9043
14421TIP3   OH264677   3.928   2.681   3.041  0.0474  0.1068  0.1242
14421TIP3    H164678   4.012   2.637   3.028 -1.7682 -3.3200 -1.5555
14421TIP3    H264679   3.911   2.725   2.957 -1.0062 -1.6981 -0.6829
14422TIP3   OH264680   0.445   0.081   3.336  0.8057  0.1359 -0.3762
14422TIP3    H164681   0.391   0.160   3.336 -0.9508 -0.9973  0.0209
14422TIP3    H264682   0.475   0.072   3.246 -0.5632  0.2380 -0.8628
14423TIP3   OH264683   0.183   2.711  15.278  0.8884  0.3630  0.0099
14423TIP3    H164684   0.218   2.700  15.190  1.2449 -0.5352  0.2540
14423TIP3    H264685   0.164   2.622  15.308  1.2337  0.6134  1.0102
14424TIP3   OH264686   0.544   3.528   2.853 -0.0614  0.1944  0.2026
14424TIP3    H164687   0.482   3.479   2.906  0.4588 -2.6433 -1.5969
14424TIP3    H264688   0.630   3.507   2.889  0.1732 -0.3781 -0.6435
14425TIP3   OH264689   0.652   4.110   1.925  0.3108  0.0508 -0.0978
14425TIP3    H164690   0.713   4.157   1.868  2.6030 -1.3569  1.0515
14425TIP3    H264691   0.660   4.018   1.900 -1.3643 -0.1943  0.1285
14426TIP3   OH264692   0.886   0.178  15.428  0.5108 -0.3695  0.4825
14426TIP3    H164693   0.893   0.235  15.351 -1.0983 -0.0838  0.5114
14426TIP3    H264694   0.924   0.228  15.499 -0.6449  0.5972  0.4522
14427TIP3   OH264695   2.396   4.970  13.100 -0.3184  0.5691 -0.6099
14427TIP3    H164696   2.411   4.908  13.171 -0.7611 -0.0107 -1.0221
14427TIP3    H264697   2.328   5.029  13.134 -0.7294  0.1229 -0.6541
14428TIP3   OH264698   5.160   6.521  11.592  0.5434 -0.2468  0.4342
14428TIP3    H164699   5.205   6.519  11.507 -0.8069 -0.1761 -0.3148
14428TIP3    H264700   5.131   6.430  11.605 -0.0174 -0.0741  0.3894
14429TIP3   OH264701   4.796   5.302  13.783  0.2998 -0.0873 -1.1447
14429TIP3    H164702   4.715   5.315  13.734 -0.8472 -1.4069  0.2831
14429TIP3    H264703   4.794   5.370  13.851 -0.0709 -0.6576 -0.5732
14430TIP3   OH264704   4.815   0.940  13.508  0.4709 -0.4517 -0.2965
14430TIP3    H164705   4.768   0.928  13.426 -1.6749 -0.5262  0.8598
14430TIP3    H264706   4.817   0.852  13.547  0.9984 -0.3254 -0.0340
14431TIP3   OH264707   0.754   6.141   1.777 -0.0428 -0.0647 -0.2979
14431TIP3    H164708   0.675   6.101   1.816  0.0809  2.0480  2.4667
14431TIP3    H264709   0.824   6.119   1.838  0.6076  1.7211 -0.3444
14432TIP3   OH264710   1.032   4.429  16.522  0.2875 -0.0694 -1.0848
14432TIP3    H164711   1.016   4.334  16.516  1.8251 -0.2624 -3.5238
14432TIP3    H264712   1.024   4.460  16.432  1.8252  1.7437 -0.6572
14433TIP3   OH264713   4.871   1.298   2.563 -0.0432  0.1539 -0.5861
14433TIP3    H164714   4.847   1.364   2.628 -0.8906 -0.7874  0.0896
14433TIP3    H264715   4.952   1.260   2.597 -1.7816 -2.1361  1.4223
14434TIP3   OH264716   2.567   5.013   2.026 -0.0282  0.1704  0.3627
14434TIP3    H164717   2.656   4.980   2.033 -0.3513 -1.3844 -1.6486
14434TIP3    H264718   2.532   5.008   2.115  1.1452 -1.5014  0.7866
14435TIP3   OH264719   4.261   4.011  14.372  0.3229 -0.0987 -0.4869
14435TIP3    H164720   4.294   4.088  14.419 -0.6985  0.1084 -0.0828
14435TIP3    H264721   4.173   4.035  14.345 -0.0734 -1.1888 -0.2163
14436TIP3   OH264722   3.702   3.317   3.469  0.0092  0.3492  0.1646
14436TIP3    H164723   3.759   3.316   3.545 -0.1020 -0.3864  0.2464
14436TIP3    H264724   3.616   3.339   3.503 -0.4950 -2.0468  0.6114
14437TIP3   OH264725   1.548   3.386  11.145  0.1743  0.4919  0.5963
14437TIP3    H164726   1.486   3.334  11.095  0.2087  1.2145 -0.2096
14437TIP3    H264727   1.502   3.468  11.164  0.9613  1.1703 -0.2910
14438TIP3   OH264728   5.882   5.035  16.003  0.3840  0.7961 -0.0050
14438TIP3    H164729   5.976   5.017  16.008 -0.0843 -3.0889 -1.2955
14438TIP3    H264730   5.844   4.979  16.071 -1.0570  2.7876  0.9341
14439TIP3   OH264731   6.534   2.206   1.479  0.7593  0.0940  0.3991
14439TIP3    H164732   6.515   2.253   1.560  0.6145 -0.0333  0.4399
14439TIP3    H264733   6.600   2.259   1.435 -0.2351  0.9489 -0.1103
14440TIP3   OH264734   3.568   4.414  14.828  0.1684 -0.6521 -0.1050
14440TIP3    H164735   3.555   4.349  14.897  1.7120 -1.0122 -0.1175
14440TIP3    H264736   3.611   4.365  14.757 -0.7928 -0.1352 -1.0640
14441TIP3   OH264737   5.182   0.196   1.683  0.1169  0.6995 -0.0514
14441TIP3    H164738   5.140   0.118   1.717 -1.9453  1.5594 -0.4895
14441TIP3    H264739   5.138   0.214   1.600  0.6525  2.2126 -0.0477
14442TIP3   OH264740   0.027   3.883  11.144  0.0188  0.4045  0.4531
14442TIP3    H164741   0.079   3.905  11.067 -0.4248 -1.8320 -0.5357
14442TIP3    H264742  -0.063   3.878  11.112 -0.4295  1.1735  1.5130
14443TIP3   OH264743   1.066   5.860   1.441  0.5074  0.4550 -0.5870
14443TIP3    H164744   1.062   5.919   1.517  1.9797 -0.8253  0.5551
14443TIP3    H264745   1.049   5.773   1.477  4.0641 -0.6252 -1.0816
14444TIP3   OH264746   6.626   3.414   5.849  0.5430  0.1482  0.0314
14444TIP3    H164747   6.536   3.415   5.883  0.6952 -0.5045  0.4689
14444TIP3    H264748   6.616   3.388   5.758  0.2000  1.1102 -0.2165
14445TIP3   OH264749   4.802   0.450  16.423 -0.0430  0.1789  0.3340
14445TIP3    H164750   4.740   0.475  16.491  0.1825  0.2149  0.5310
14445TIP3    H264751   4.803   0.354  16.424  1.0307  0.1711  1.3861
14446TIP3   OH264752   5.676   0.415   5.463  0.6108  0.6760 -0.2116
14446TIP3    H164753   5.671   0.421   5.558 -1.6381  0.3046 -0.2486
14446TIP3    H264754   5.766   0.386   5.445  0.2127 -2.3952  1.9957
14447TIP3   OH264755   1.826   4.704   6.452  0.5579  0.2320  0.6527
14447TIP3    H164756   1.892   4.636   6.461  0.8780  0.2938 -0.9394
14447TIP3    H264757   1.874   4.782   6.425  0.0931  0.8869  1.6520
14448TIP3   OH264758   6.307   1.008  15.210 -0.2524 -0.3067 -0.0404
14448TIP3    H164759   6.222   0.963  15.212 -1.4689  1.7478 -1.2698
14448TIP3    H264760   6.322   1.034  15.301 -0.8780 -0.8072  0.2157
14449TIP3   OH264761   2.726   3.925   5.968 -0.2904 -0.2326  0.7799
14449TIP3    H164762   2.752   4.015   5.953 -1.9660  0.3211  0.9522
14449TIP3    H264763   2.640   3.918   5.926 -0.8139 -1.3475  1.9821
14450TIP3   OH264764   2.398   0.360  16.057  0.2469  0.0712 -0.2319
14450TIP3    H164765   2.455   0.348  15.981 -1.0598  0.9903 -1.4244
14450TIP3    H264766   2.392   0.455  16.068 -1.0019  0.0056 -0.1435
14451TIP3   OH264767   6.533   3.801   6.616  0.1236  0.1491  0.5676
14451TIP3    H164768   6.533   3.891   6.584 -1.1577  0.3280  0.9951
14451TIP3    H264769   6.440   3.778   6.625  0.3515 -1.8825 -1.3090
14452TIP3   OH264770   4.560   3.111  11.770 -0.0061 -0.0292  0.6236
14452TIP3    H164771   4.524   3.159  11.695 -2.8068 -0.5924  1.4758
14452TIP3    H264772   4.526   3.158  11.846  1.4363 -0.4327  1.5523
14453TIP3   OH264773   1.621   6.274  14.895  0.2244 -0.6846 -0.2772
14453TIP3    H164774   1.552   6.229  14.943 -1.1409  1.1299 -0.4202
14453TIP3    H264775   1.659   6.207  14.838  1.2284 -2.6554  2.4967
14454TIP3   OH264776   3.005   0.112  15.157 -0.0159 -0.0115 -0.7016
14454TIP3    H164777   2.961   0.178  15.210 -1.0189 -0.4715 -0.9388
14454TIP3    H264778   2.948   0.035  15.162  1.8019 -1.3832  0.7692
14455TIP3   OH264779   0.901   5.752  13.331 -0.0265 -1.2552 -0.2591
14455TIP3    H164780   0.807   5.757  13.349  0.1187 -0.2615  0.2904
14455TIP3    H264781   0.936   5.699  13.403  0.1763  0.5471  1.0522
14456TIP3   OH264782   4.593   1.501  17.130  0.0389  0.3666 -0.3001
14456TIP3    H164783   4.599   1.439  17.057  1.0353  0.7671 -0.5691
14456TIP3    H264784   4.656   1.468  17.194 -0.6879  0.1301  0.3028
14457TIP3   OH264785   5.735   4.101   4.726 -0.1210 -0.4944 -0.9939
14457TIP3    H164786   5.729   4.007   4.712  0.8888 -0.4127 -2.0766
14457TIP3    H264787   5.652   4.136   4.692 -0.7947 -1.0398  0.0443
14458TIP3   OH264788   0.783   6.645  15.765  0.1276  0.3273 -0.0893
14458TIP3    H164789   0.852   6.665  15.701  0.7679 -0.0467  0.4731
14458TIP3    H264790   0.816   6.682  15.847 -0.8375  1.0927 -0.0294
14459TIP3   OH264791   1.966   6.644  15.458  0.1378 -0.1604  0.4058
14459TIP3    H164792   1.939   6.703  15.529 -0.9275 -2.7431  2.3151
14459TIP3    H264793   1.940   6.557  15.489  0.6171 -1.5376 -2.7369
14460TIP3   OH264794   2.158   1.421   0.806  0.1307 -0.3137 -0.4285
14460TIP3    H164795   2.154   1.378   0.891  0.9406  1.1021  0.3696
14460TIP3    H264796   2.183   1.511   0.826 -0.6654  0.3258 -2.0889
14461TIP3   OH264797   0.141   0.350  11.577  0.5521 -0.1822  0.2413
14461TIP3    H164798   0.234   0.327  11.587  0.4332 -0.6894  0.1996
14461TIP3    H264799   0.142   0.443  11.555  1.0800 -0.2862 -0.1983
14462TIP3   OH264800   1.769   4.256  12.771  0.3714  0.1124  0.4551
14462TIP3    H164801   1.789   4.283  12.681  0.0458 -0.4376  0.2129
14462TIP3    H264802   1.677   4.231  12.769  1.1405 -3.0954  0.1317
14463TIP3   OH264803   1.021   3.165  14.797 -0.0127  0.7737 -0.2043
14463TIP3    H164804   1.051   3.112  14.871  0.2886  0.2215 -0.7154
14463TIP3    H264805   0.948   3.216  14.832  0.6185  1.0915  0.6763
14464TIP3   OH264806   4.302   0.210   4.763 -0.1612  0.4915 -0.4373
14464TIP3    H164807   4.293   0.247   4.675 -1.6913  0.0240 -0.5055
14464TIP3    H264808   4.213   0.206   4.797  0.3616  0.3024  1.0015
14465TIP3   OH264809   3.990   3.448  12.386 -0.1000 -0.0847  0.4152
14465TIP3    H164810   3.941   3.390  12.328 -1.6972 -1.6108  3.0754
14465TIP3    H264811   3.938   3.529  12.388  0.4524  0.3293 -0.8911
14466TIP3   OH264812   5.569   0.641  12.932 -0.0998  0.4064  0.1096
14466TIP3    H164813   5.593   0.671  13.020 -0.4269 -0.0598  0.3635
14466TIP3    H264814   5.478   0.670  12.922 -0.4808 -0.6257  0.4294
14467TIP3   OH264815   3.247   0.717  14.366 -0.1446  0.1184 -0.0722
14467TIP3    H164816   3.306   0.674  14.428 -1.3137 -1.2404  0.1411
14467TIP3    H264817   3.162   0.675  14.380 -1.1717  1.9587 -0.4284
14468TIP3   OH264818   2.746   1.225  11.845 -0.8867  0.1511  0.3343
14468TIP3    H164819   2.698   1.164  11.789 -1.4729  0.1327  0.8396
14468TIP3    H264820   2.680   1.287  11.875 -0.8160 -0.4536  1.8296
14469TIP3   OH264821   3.077   4.938  12.810 -0.1333  0.1403  0.1557
14469TIP3    H164822   2.988   4.968  12.830 -0.1346 -0.7367  1.6102
14469TIP3    H264823   3.106   4.894  12.889  1.2526 -0.4513 -0.6383
14470TIP3   OH264824   6.389   0.245  15.234 -0.0956  0.5480  0.3010
14470TIP3    H164825   6.468   0.289  15.266  0.1513  0.9071 -0.7534
14470TIP3    H264826   6.365   0.185  15.304 -0.6072  2.5488  1.9346
14471TIP3   OH264827   6.388   0.934  11.607 -0.1199  0.0309 -0.2497
14471TIP3    H164828   6.406   0.876  11.533 -1.2863  0.7626 -1.1385
14471TIP3    H264829   6.341   1.008  11.569  1.5608  1.7216  0.8220
14472TIP3   OH264830   2.618   4.384   1.782 -0.1908 -0.2694 -0.1711
14472TIP3    H164831   2.538   4.333   1.770 -0.2394  0.0143 -1.2219
14472TIP3    H264832   2.627   4.394   1.876 -0.6088 -1.5332  0.0250
14473TIP3   OH264833   0.372   4.123   4.735  0.4206 -0.5455  0.3097
14473TIP3    H164834   0.431   4.185   4.690 -0.4199 -0.6807 -1.0195
14473TIP3    H264835   0.327   4.077   4.664 -1.1608 -0.5681  1.2966
14474TIP3   OH264836   3.845   5.573   4.262  0.0489  0.1829  0.6217
14474TIP3    H164837   3.884   5.494   4.225 -0.7307  0.1727 -0.2138
14474TIP3    H264838   3.914   5.611   4.316  1.4691  0.4986 -1.2960
14475TIP3   OH264839   5.798   0.729   4.014 -0.6207 -0.2400 -0.5813
14475TIP3    H164840   5.889   0.702   4.023 -0.2130  0.0709 -3.1381
14475TIP3    H264841   5.797   0.821   4.040 -0.3684 -0.4267  0.1091
14476TIP3   OH264842   3.593   6.455  16.866 -0.2508  0.0463 -0.8355
14476TIP3    H164843   3.568   6.381  16.921  0.5268  0.7716  0.5179
14476TIP3    H264844   3.605   6.527  16.927  3.6129  0.1603 -1.5193
14477TIP3   OH264845   3.538   0.709   0.269  0.4795 -0.4274 -0.4829
14477TIP3    H164846   3.603   0.774   0.293  1.7353 -1.4283 -1.0367
14477TIP3    H264847   3.589   0.636   0.234 -0.7817 -2.1876  1.1529
14478TIP3   OH264848   3.587   2.769  12.595 -0.2576  0.3098 -0.1665
14478TIP3    H164849   3.500   2.742  12.624 -1.4105  0.7161 -2.9381
14478TIP3    H264850   3.588   2.864  12.607 -0.2936  0.3354 -0.3649
14479TIP3   OH264851   4.973   0.429   5.905 -0.2074  0.3516 -0.2667
14479TIP3    H164852   5.064   0.399   5.898  0.4481  2.1453 -0.0109
14479TIP3    H264853   4.979   0.509   5.958 -2.1565 -0.3843  1.1554
14480TIP3   OH264854   0.850   4.728   3.152  0.3601  0.0786 -0.1048
14480TIP3    H164855   0.900   4.697   3.077  0.2646  1.7250 -0.8936
14480TIP3    H264856   0.800   4.802   3.119  0.1243  0.6933  1.5177
14481TIP3   OH264857   4.706   1.300   3.516 -0.0301  0.4674 -0.1805
14481TIP3    H164858   4.625   1.250   3.530  0.5185 -0.2197  0.6231
14481TIP3    H264859   4.743   1.309   3.604 -0.6837  3.3121 -0.1014
14482TIP3   OH264860   6.127   4.136   2.743 -0.4398 -0.2143  0.3492
14482TIP3    H164861   6.083   4.200   2.688 -0.2950  0.5077  1.0580
14482TIP3    H264862   6.212   4.121   2.701 -0.6315 -0.2350 -0.0269
14483TIP3   OH264863   2.401   4.079  12.831 -0.3204  0.5570 -0.1394
14483TIP3    H164864   2.346   4.001  12.824  0.2592 -0.0591  1.5340
14483TIP3    H264865   2.367   4.126  12.907  0.2526  1.1860 -0.2596
14484TIP3   OH264866   3.427   2.690  14.671  0.3392 -0.0427 -0.2670
14484TIP3    H164867   3.435   2.784  14.662  1.4107 -0.1347 -0.4067
14484TIP3    H264868   3.505   2.654  14.629 -1.0197 -1.1127 -2.0417
14485TIP3   OH264869   6.352   1.070   2.707  0.5876  0.1812  0.0891
14485TIP3    H164870   6.363   1.158   2.670  1.9779  0.0298  0.0757
14485TIP3    H264871   6.321   1.017   2.633  1.3844  0.3170 -0.3594
14486TIP3   OH264872   6.440   5.731   2.542 -0.0806  0.2941  0.2434
14486TIP3    H164873   6.447   5.809   2.598  0.2969  1.5872 -1.5426
14486TIP3    H264874   6.349   5.704   2.550  0.0675  0.1135  1.8535
14487TIP3   OH264875   2.609   1.467   2.535  0.3978  0.1585  0.5425
14487TIP3    H164876   2.524   1.492   2.499 -0.0152 -0.4442  1.0805
14487TIP3    H264877   2.667   1.540   2.513  0.0397  0.0335 -0.9064
14488TIP3   OH264878   1.427   5.735   5.195  0.1601 -0.1869 -0.0419
14488TIP3    H164879   1.488   5.680   5.146  0.1484 -0.3568  0.1319
14488TIP3    H264880   1.340   5.706   5.168  0.1533 -0.3012  0.0984
14489TIP3   OH264881   1.524   4.988   0.541 -0.1803 -0.0591 -0.1445
14489TIP3    H164882   1.519   4.916   0.604  2.2155  0.4457  0.7493
14489TIP3    H264883   1.481   5.061   0.586  0.9520  0.1206  0.7020
14490TIP3   OH264884   2.397   0.055  12.092  0.2572  0.4121 -0.9841
14490TIP3    H164885   2.424  -0.004  12.162  0.7183  1.9939  0.2317
14490TIP3    H264886   2.478   0.101  12.067  0.1086 -0.1176 -2.5925
14491TIP3   OH264887   1.675   6.085  11.220 -0.0505 -0.0206 -0.0359
14491TIP3    H164888   1.670   6.165  11.274 -1.1300  0.3705 -0.6802
14491TIP3    H264889   1.590   6.043  11.233  0.7990 -1.5344  0.9539
14492TIP3   OH264890   1.475   3.697  11.808  0.3909  0.0481 -0.1634
14492TIP3    H164891   1.509   3.656  11.729 -1.7217  1.4586 -1.9489
14492TIP3    H264892   1.409   3.759  11.776 -1.3273 -0.0612  2.7651
14493TIP3   OH264893   2.863   2.081   5.744 -0.0927 -0.0044 -0.4032
14493TIP3    H164894   2.897   2.050   5.660  0.1357  0.5529 -0.5271
14493TIP3    H264895   2.934   2.065   5.807  0.6959  1.7114 -0.7753
14494TIP3   OH264896   4.664   5.323   4.496  0.0424 -0.3657  0.1273
14494TIP3    H164897   4.750   5.305   4.532  0.3749  1.2451  0.2091
14494TIP3    H264898   4.681   5.383   4.423 -1.0737  0.9179  0.8737
14495TIP3   OH264899   3.739   4.469   3.934 -0.2745 -0.4953  0.3597
14495TIP3    H164900   3.824   4.471   3.978  0.2276 -1.6659 -0.5008
14495TIP3    H264901   3.681   4.426   3.997  0.3474 -1.8109  0.0789
14496TIP3   OH264902   2.022   3.741   5.970  0.3984  0.4684 -0.3155
14496TIP3    H164903   2.014   3.715   6.062 -1.3696  2.0043  0.0254
14496TIP3    H264904   1.934   3.726   5.934  0.8915  0.5172 -1.5925
14497TIP3   OH264905   2.018   4.327  14.752  0.5657  0.7515 -0.6451
14497TIP3    H164906   2.023   4.352  14.845 -1.6046 -0.5047 -0.1194
14497TIP3    H264907   1.985   4.237  14.754  2.0917  0.0760 -2.6322
14498TIP3   OH264908   5.206   4.965  11.269 -0.0758 -0.4398  0.0341
14498TIP3    H164909   5.280   5.016  11.300 -0.3913  0.6164 -0.8672
14498TIP3    H264910   5.129   5.008  11.307 -0.2385 -1.8026  1.3479
14499TIP3   OH264911   5.836   2.475  11.905 -0.0014 -0.0508 -0.7771
14499TIP3    H164912   5.786   2.546  11.946 -0.2151 -1.6834  2.0538
14499TIP3    H264913   5.824   2.489  11.811 -1.1036  2.8632 -0.3086
14500TIP3   OH264914   3.763   6.078  15.071  0.3190  0.0481  0.8319
14500TIP3    H164915   3.793   5.987  15.073  1.9301  0.5112 -0.2834
14500TIP3    H264916   3.734   6.092  14.981  2.7412  1.3798  0.1745
14501TIP3   OH264917   2.534   3.450  10.826 -0.7104  0.2167 -0.8377
14501TIP3    H164918   2.453   3.424  10.870 -1.0722 -1.5476 -2.4161
14501TIP3    H264919   2.509   3.523  10.771 -1.2888 -0.3812 -1.3890
14502TIP3   OH264920   6.100   3.294   4.728 -0.6041 -0.1162 -0.1817
14502TIP3    H164921   6.085   3.389   4.725  1.6473  0.3502  1.0014
14502TIP3    H264922   6.040   3.262   4.795 -1.4876  0.4127 -0.6910
14503TIP3   OH264923   4.293   6.139   3.398  0.2574  0.2897  0.0135
14503TIP3    H164924   4.329   6.098   3.477  1.4523  1.0969 -0.0949
14503TIP3    H264925   4.268   6.065   3.343 -2.3467 -0.3420  1.8529
14504TIP3   OH264926   3.620   2.769   1.705  0.6349 -0.3559  0.1943
14504TIP3    H164927   3.676   2.846   1.697 -0.0124  0.0859 -0.2654
14504TIP3    H264928   3.567   2.785   1.784 -1.3034  0.9287 -1.2622
14505TIP3   OH264929   3.273   1.347  14.617  0.2349  0.0425 -0.0453
14505TIP3    H164930   3.188   1.310  14.643  0.4752 -0.3252  0.2163
14505TIP3    H264931   3.276   1.335  14.522  0.7045 -1.4508  0.1331
14506TIP3   OH264932   1.233   4.048  15.260 -0.0163  0.6779  0.3432
14506TIP3    H164933   1.195   4.066  15.174  1.6046 -1.0839 -0.8296
14506TIP3    H264934   1.181   4.100  15.321 -2.1187  0.9079 -1.5321
14507TIP3   OH264935   2.598   4.133  13.068  0.3268  0.7175 -0.0746
14507TIP3    H164936   2.649   4.067  13.022 -0.9749 -0.2152 -0.2361
14507TIP3    H264937   2.555   4.085  13.139 -1.1506  1.2410 -0.5809
14508TIP3   OH264938   1.582   3.796  14.354  0.5335 -0.2051 -0.6540
14508TIP3    H164939   1.545   3.799  14.442 -1.0159  0.6015 -1.2856
14508TIP3    H264940   1.595   3.888  14.330  0.1987 -0.3839 -1.5537
14509TIP3   OH264941   6.553   4.700   0.057 -0.0183 -0.5563 -0.0348
14509TIP3    H164942   6.518   4.646   0.128 -1.9405  1.5089  0.7122
14509TIP3    H264943   6.483   4.703  -0.008 -0.6068  2.1058  0.5949
14510TIP3   OH264944   6.740   2.418   2.507 -0.2851  0.7788  0.3955
14510TIP3    H164945   6.759   2.429   2.413 -0.1649  0.4404  0.3781
14510TIP3    H264946   6.663   2.473   2.522 -0.0170  1.2114  0.2024
14511TIP3   OH264947   3.962   2.253   6.574  0.3046  0.0789  0.2724
14511TIP3    H164948   4.032   2.238   6.638  2.2600  0.3636 -1.6821
14511TIP3    H264949   3.973   2.183   6.509 -1.7078 -0.2876  0.2367
14512TIP3   OH264950   0.562   3.049   5.332  0.0017  0.0996  0.1428
14512TIP3    H164951   0.519   2.989   5.272  2.7167 -2.1022  0.1897
14512TIP3    H264952   0.583   2.995   5.408  0.3274  1.7783  1.2841
14513TIP3   OH264953   3.345   3.048   0.644 -0.6127 -0.0675 -0.0812
14513TIP3    H164954   3.300   3.051   0.560 -2.5259 -2.3230  0.7528
14513TIP3    H264955   3.358   2.954   0.661  1.9341  0.3979  1.0432
14514TIP3   OH264956   0.830   6.340  13.924  0.3337  0.4265  0.0252
14514TIP3    H164957   0.825   6.433  13.946  0.4482  0.3558  0.3548
14514TIP3    H264958   0.770   6.330  13.849 -0.5612  0.5506  0.7076
14515TIP3   OH264959   1.430   3.113  10.727 -0.2020 -0.0193 -0.3931
14515TIP3    H164960   1.498   3.045  10.727 -0.9487 -0.7868 -0.7753
14515TIP3    H264961   1.422   3.139  10.635 -1.3172 -0.8581 -0.5427
14516TIP3   OH264962   1.279   0.544   4.266  0.0337 -0.6872  0.0939
14516TIP3    H164963   1.314   0.632   4.258  1.4629 -1.0467  1.7290
14516TIP3    H264964   1.298   0.502   4.183  0.2268  0.2396 -0.3382
14517TIP3   OH264965   1.374   6.174  12.848 -0.8531 -0.0878 -0.2532
14517TIP3    H164966   1.466   6.195  12.864 -1.2328  1.0186  0.6595
14517TIP3    H264967   1.369   6.159  12.754  0.0796  0.8517 -0.4770
14518TIP3   OH264968   0.251   2.064   3.060 -0.1456  0.1877 -0.3266
14518TIP3    H164969   0.283   2.153   3.079  0.5977 -0.3554  1.0991
14518TIP3    H264970   0.250   2.020   3.145 -1.1349 -0.9854 -0.9189
14519TIP3   OH264971   4.745   6.138  16.808  0.5772 -0.1795  0.2614
14519TIP3    H164972   4.825   6.097  16.776 -0.5655 -1.2911 -1.2987
14519TIP3    H264973   4.771   6.228  16.831  2.4888 -0.8637  0.9216
14520TIP3   OH264974   3.526   3.977  11.620  0.4510  0.4005  0.3196
14520TIP3    H164975   3.554   3.988  11.710 -0.2714  0.5606  0.5363
14520TIP3    H264976   3.575   4.044  11.571  1.5563 -0.3170  0.4230
14521TIP3   OH264977   1.467   1.779   2.917  1.1081 -0.0280 -0.2587
14521TIP3    H164978   1.487   1.825   2.835  0.4441 -0.7750 -0.8600
14521TIP3    H264979   1.552   1.759   2.955  1.4175  1.2769 -0.2040
14522TIP3   OH264980   2.986   5.666  16.402 -0.7854 -1.0206  0.1775
14522TIP3    H164981   2.915   5.719  16.364  0.7704  1.4457  0.4614
14522TIP3    H264982   2.981   5.583  16.356 -2.3071 -0.0257 -1.5946
14523TIP3   OH264983   6.196   2.829   4.098  0.2082 -0.7635  0.0147
14523TIP3    H164984   6.171   2.737   4.093  0.8042 -0.9592  0.5560
14523TIP3    H264985   6.278   2.835   4.049  0.5952 -0.6786  0.6695
14524TIP3   OH264986   3.747   2.278  17.170  0.4055 -0.4360  0.6106
14524TIP3    H164987   3.672   2.338  17.174 -0.1838 -1.1920  1.0951
14524TIP3    H264988   3.791   2.290  17.255  0.2189 -0.7768  0.7550
14525TIP3   OH264989   5.279   2.143  13.074 -0.0281  0.3920  0.3446
14525TIP3    H164990   5.188   2.125  13.097  0.5079 -0.7499  1.7326
14525TIP3    H264991   5.327   2.133  13.156  1.6556 -1.2477 -0.7617
14526TIP3   OH264992   5.871   1.387  13.981  0.2394  0.1497  0.3676
14526TIP3    H164993   5.784   1.421  14.005 -0.2368 -0.8923  0.1405
14526TIP3    H264994   5.929   1.463  13.990 -1.0196  1.4064 -1.4545
14527TIP3   OH264995   2.821   6.123  13.365  0.0975 -0.2508 -0.2289
14527TIP3    H164996   2.793   6.145  13.454 -1.0812 -1.8178 -0.1617
14527TIP3    H264997   2.915   6.141  13.364 -0.1406  1.1990  0.8572
14528TIP3   OH264998   1.069   2.329   2.711 -0.3113  0.1111 -0.3290
14528TIP3    H164999   1.022   2.272   2.651 -0.8529 -1.1297  1.2310
14528TIP3    H265000   1.003   2.390   2.743 -0.8937 -1.4917  1.6920
14529TIP3   OH265001   3.421   3.599  17.184 -0.1237 -0.1602 -0.3476
14529TIP3    H165002   3.472   3.660  17.237 -2.2391  0.3234  1.2643
14529TIP3    H265003   3.371   3.654  17.125 -0.4828 -0.4706 -0.3368
14530TIP3   OH265004   0.861   3.742  15.306 -0.4831 -0.2863 -0.1541
14530TIP3    H165005   0.858   3.837  15.303  2.6512 -0.1184 -0.2903
14530TIP3    H265006   0.832   3.720  15.395 -1.6628  0.7243 -0.2686
14531TIP3   OH265007   6.223   5.972  12.449 -0.3802 -0.1541 -0.2513
14531TIP3    H165008   6.231   5.987  12.543 -1.3732  0.4190 -0.2541
14531TIP3    H265009   6.249   5.880  12.437  2.2213  0.4410  0.2389
14532TIP3   OH265010   4.830   5.041   5.006 -0.0330 -0.1997 -0.2246
14532TIP3    H165011   4.739   5.065   4.990  0.2212  0.7907 -0.2291
14532TIP3    H265012   4.834   4.948   4.984 -0.7217  0.0589 -1.5498
14533TIP3   OH265013   1.416   2.372   4.628  0.2104  0.1053  0.1846
14533TIP3    H165014   1.401   2.419   4.710 -2.3743 -0.9906  0.4381
14533TIP3    H265015   1.337   2.320   4.615  0.4867  0.2600 -3.0448
14534TIP3   OH265016   6.236   6.761  13.209  0.9890  0.6770  0.0086
14534TIP3    H165017   6.292   6.823  13.256  1.9789 -0.2710  0.1023
14534TIP3    H265018   6.177   6.727  13.276 -0.1605  2.1540 -0.2148
14535TIP3   OH265019   4.603   5.988  14.440  0.2871 -0.4633  0.2593
14535TIP3    H165020   4.527   6.044  14.458 -1.0029 -1.4797 -1.7456
14535TIP3    H265021   4.660   6.042  14.386  1.4636  0.5840  2.4101
14536TIP3   OH265022   1.008   4.742  17.305  0.0677  0.3122  0.1536
14536TIP3    H165023   1.072   4.754  17.234  1.0317  1.1850  1.1404
14536TIP3    H265024   0.924   4.751  17.261  0.5800 -0.8847 -1.1852
14537TIP3   OH265025   3.854   5.808  15.116 -0.0515  0.0115  0.0964
14537TIP3    H165026   3.928   5.748  15.106 -0.9954 -1.5515  1.7219
14537TIP3    H265027   3.879   5.864  15.189  1.0066  1.9966 -1.6837
14538TIP3   OH265028   4.329   3.888  17.135  0.5256  0.0963  0.1277
14538TIP3    H165029   4.413   3.867  17.095 -0.0194 -1.3910 -0.2990
14538TIP3    H265030   4.309   3.976  17.103  1.0510 -0.2592 -1.2759
14539TIP3   OH265031   1.521   3.374   3.626  0.1811 -0.4714  0.2731
14539TIP3    H165032   1.478   3.316   3.564 -2.1245  1.0274  0.3582
14539TIP3    H265033   1.603   3.398   3.583  0.2096 -2.1128 -0.6641
14540TIP3   OH265034   1.929   6.177   3.636 -0.0326 -0.5971  0.2960
14540TIP3    H165035   1.937   6.183   3.541 -0.2795 -0.7591  0.2640
14540TIP3    H265036   2.018   6.193   3.668  0.0668 -0.6139  0.0354
14541TIP3   OH265037   0.809   0.563   3.109  0.4732  0.2198 -0.4174
14541TIP3    H165038   0.813   0.480   3.157 -1.2217  0.9774  1.2109
14541TIP3    H265039   0.751   0.545   3.035  1.3358 -0.4100 -0.9575
14542TIP3   OH265040   6.673   0.004   0.988  0.0424 -1.2932  0.0580
14542TIP3    H165041   6.612  -0.061   0.953 -0.5946 -0.6771  0.0102
14542TIP3    H265042   6.630   0.038   1.066 -1.2887  1.5527 -1.7484
14543TIP3   OH265043   1.374   5.988   5.803  0.3972  0.0439 -0.1519
14543TIP3    H165044   1.382   6.059   5.867  2.3238 -1.1160  0.9772
14543TIP3    H265045   1.410   5.911   5.847  1.0264 -0.9910 -2.3288
14544TIP3   OH265046   0.266   6.111  12.061 -0.0370  0.0940  0.6260
14544TIP3    H165047   0.280   6.075  12.148  1.5730  1.5344  1.0280
14544TIP3    H265048   0.350   6.151  12.038 -0.1370 -0.9816 -1.9675
14545TIP3   OH265049   0.730   5.867   6.238 -0.1014  1.1400  0.0121
14545TIP3    H165050   0.657   5.807   6.227 -0.2144  0.9764  1.4841
14545TIP3    H265051   0.768   5.844   6.323  2.0442  0.8154 -0.9726
14546TIP3   OH265052   6.684   6.310   1.727  0.0770  0.2411  0.2440
14546TIP3    H165053   6.757   6.328   1.668 -0.7110  3.0449 -0.0361
14546TIP3    H265054   6.668   6.394   1.771 -1.5922 -0.8638  1.8848
14547TIP3   OH265055   4.846   3.302  13.197  0.3256 -0.0909 -0.0121
14547TIP3    H165056   4.801   3.370  13.247 -0.5655  0.4136 -1.4412
14547TIP3    H265057   4.927   3.286  13.246 -0.8286 -0.1645  1.9701
14548TIP3   OH265058   2.769   2.167  10.804  0.2750 -0.0178 -0.1219
14548TIP3    H165059   2.735   2.233  10.743  0.3197  0.3740  0.2732
14548TIP3    H265060   2.844   2.210  10.846  0.0245 -0.1516  0.4731
14549TIP3   OH265061   4.529   3.291   0.492  0.0306 -0.4216 -0.4437
14549TIP3    H165062   4.583   3.308   0.569  0.4842  1.8340 -1.1900
14549TIP3    H265063   4.509   3.377   0.457 -1.4116 -1.3312 -2.0298
14550TIP3   OH265064   4.028   6.520  14.492  0.1713  0.4395 -0.3078
14550TIP3    H165065   4.001   6.609  14.516 -0.7117  0.7147 -2.1331
14550TIP3    H265066   3.957   6.488  14.437 -0.2963 -2.0431  1.5996
14551TIP3   OH265067   3.092   4.240  15.415  0.4404  0.6103 -0.3390
14551TIP3    H165068   3.039   4.281  15.483 -0.6016  2.0916 -1.9535
14551TIP3    H265069   3.057   4.151  15.408 -1.8127  1.4708 -1.1946
14552TIP3   OH265070   2.129   0.002   5.484  0.5154 -0.2766  0.1631
14552TIP3    H165071   2.110  -0.048   5.404 -2.3444 -0.5357  0.8791
14552TIP3    H265072   2.162  -0.064   5.546 -1.6783 -1.0899  0.5805
14553TIP3   OH265073   1.639   2.214  15.519 -0.2160  0.3020 -0.7895
14553TIP3    H165074   1.572   2.277  15.492  0.9689  2.2463  0.5956
14553TIP3    H265075   1.676   2.183  15.436 -0.5505  1.7494 -1.5267
14554TIP3   OH265076   4.680   5.916   0.827  0.2328  0.2191  0.5817
14554TIP3    H165077   4.637   5.998   0.852  1.4662  1.5820 -1.4879
14554TIP3    H265078   4.627   5.882   0.755 -1.3697 -1.8988  2.6256
14555TIP3   OH265079   0.466   2.925   0.824  0.1140 -1.0639 -0.1213
14555TIP3    H165080   0.408   3.000   0.817  1.0219 -0.3760 -0.5201
14555TIP3    H265081   0.453   2.877   0.742  0.9545 -0.2566 -0.7596
14556TIP3   OH265082   6.154   6.514  14.715 -0.4680  0.0242  0.9365
14556TIP3    H165083   6.181   6.602  14.742  1.6330 -0.5870  1.0201
14556TIP3    H265084   6.088   6.487  14.779 -0.3606  1.1195  1.5216
14557TIP3   OH265085   4.631   6.529   1.215 -0.1790 -0.0297  0.2283
14557TIP3    H165086   4.569   6.475   1.166 -1.1233  2.5305 -1.5544
14557TIP3    H265087   4.710   6.531   1.161 -0.1088  0.2920  0.3402
14558TIP3   OH265088   2.676   1.643   0.830  0.6314  0.1335  0.2058
14558TIP3    H165089   2.745   1.583   0.858 -1.9022 -2.5583  1.0866
14558TIP3    H265090   2.661   1.700   0.905  0.8882 -0.2763  0.5743
14559TIP3   OH265091   1.368   2.878  13.794  0.7631  0.8385 -0.1078
14559TIP3    H165092   1.297   2.826  13.832  0.8517  0.5748 -0.2966
14559TIP3    H265093   1.330   2.918  13.716  1.6583 -1.9498 -2.1687
14560TIP3   OH265094   5.432   1.601   5.980 -0.0860 -0.3242 -0.6922
14560TIP3    H165095   5.437   1.695   5.997  2.0413 -0.4567 -0.2848
14560TIP3    H265096   5.418   1.562   6.067 -0.3450 -0.4199 -0.7762
14561TIP3   OH265097   0.669   4.108  16.438 -0.6142  0.5979 -0.1258
14561TIP3    H165098   0.760   4.106  16.410 -0.6903  1.2536 -0.4365
14561TIP3    H265099   0.674   4.117  16.534 -0.3583  0.1273 -0.0907
14562TIP3   OH265100   5.090   4.698   3.526 -0.1460  0.2914  0.2405
14562TIP3    H165101   5.068   4.608   3.551 -1.8813  0.5447 -0.2615
14562TIP3    H265102   5.032   4.752   3.579  0.5545  1.1123  0.1940
14563TIP3   OH265103   3.336   4.933   3.723 -0.3210 -0.5657  0.4829
14563TIP3    H165104   3.398   4.921   3.651  1.3150 -1.4630  1.9933
14563TIP3    H265105   3.263   4.875   3.702  0.8086 -1.9512  0.2594
14564TIP3   OH265106   1.246   3.373  11.816  0.0952  0.2910  0.1557
14564TIP3    H165107   1.171   3.314  11.829  0.4572 -0.1035  0.4409
14564TIP3    H265108   1.242   3.433  11.890  1.0709 -0.8063  1.1231
14565TIP3   OH265109   4.314   5.084   3.207 -0.3483  0.2722  0.1015
14565TIP3    H165110   4.286   5.052   3.121 -0.4937 -1.3250  0.7159
14565TIP3    H265111   4.353   5.008   3.250  0.7978  1.3342  1.0149
14566TIP3   OH265112   5.299   3.724   0.117  0.4057 -0.2129 -0.6245
14566TIP3    H165113   5.384   3.696   0.148  0.2029 -1.1907 -0.9255
14566TIP3    H265114   5.236   3.671   0.166 -0.0739  0.9028  0.0250
14567TIP3   OH265115   4.895   0.069   4.375 -0.5631  0.1328  0.7317
14567TIP3    H165116   4.917   0.084   4.467  0.9634 -1.4779  0.6962
14567TIP3    H265117   4.978   0.082   4.329 -0.7909 -1.2147 -0.1085
14568TIP3   OH265118   0.400   0.128   1.802 -0.2273 -0.5490  0.1581
14568TIP3    H165119   0.392   0.033   1.792  0.5041 -0.9553  2.6568
14568TIP3    H265120   0.449   0.139   1.883 -1.4405  1.9830  0.6432
14569TIP3   OH265121   5.369   3.928  16.241 -0.6363 -0.0616  0.0098
14569TIP3    H165122   5.394   3.984  16.167 -1.2127 -0.2911 -0.3659
14569TIP3    H265123   5.453   3.899  16.278 -0.3371  0.9073  0.1084
14570TIP3   OH265124   5.220   5.387  16.130 -0.7432 -0.1753  0.4464
14570TIP3    H165125   5.247   5.355  16.044 -0.8635  2.7762 -0.8239
14570TIP3    H265126   5.302   5.396  16.179 -0.6848 -1.9940  0.7531
14571TIP3   OH265127   3.342   3.731   1.124  0.5504  0.5448  0.1893
14571TIP3    H165128   3.273   3.671   1.151  1.4641 -0.1162  1.1370
14571TIP3    H265129   3.332   3.739   1.029 -1.2088  0.9751  0.3844
14572TIP3   OH265130   1.696   4.745   3.189 -0.1144  0.5117 -0.0552
14572TIP3    H165131   1.632   4.783   3.128 -3.9423 -2.9348  1.3140
14572TIP3    H265132   1.668   4.776   3.275  2.1995  1.4306  0.4448
14573TIP3   OH265133   3.542   4.016   3.203 -0.4054 -0.1378  0.1621
14573TIP3    H165134   3.550   3.957   3.278  0.6120 -0.2057  0.0175
14573TIP3    H265135   3.632   4.028   3.173 -0.8822 -1.0307 -1.7691
14574TIP3   OH265136   2.384   0.834  13.991  0.4396  0.1007 -0.0585
14574TIP3    H165137   2.467   0.849  14.037 -0.2735  1.3303  0.8777
14574TIP3    H265138   2.410   0.821  13.900  1.6349  1.0956  0.1018
14575TIP3   OH265139   1.143   2.398  11.649  0.1189  0.9550 -0.3676
14575TIP3    H165140   1.120   2.324  11.593 -0.4649  1.4161 -0.7505
14575TIP3    H265141   1.237   2.387  11.667 -0.2460 -0.6475  0.7432
14576TIP3   OH265142   6.077   1.015  14.329  0.4308  0.9036  0.7688
14576TIP3    H165143   6.014   1.061  14.275  0.9669  0.9776  0.1922
14576TIP3    H265144   6.160   1.061  14.314  0.6181  0.8271  1.5272
14577TIP3   OH265145   1.436   6.082   6.229  0.7826 -0.1064 -0.0169
14577TIP3    H165146   1.522   6.117   6.252  1.0007 -0.8334  0.3166
14577TIP3    H265147   1.416   6.119   6.143  0.6312  1.4611  0.6710
14578TIP3   OH265148   6.278   0.660  14.321 -0.6281 -0.0820 -1.0279
14578TIP3    H165149   6.289   0.676  14.415 -0.1990 -1.2398 -0.8564
14578TIP3    H265150   6.368   0.651  14.288 -0.7910 -0.1684 -1.4467
14579TIP3   OH265151   6.197   5.334  10.883 -0.5879 -0.2692 -0.0555
14579TIP3    H165152   6.254   5.278  10.935 -0.5237  0.8549  1.1327
14579TIP3    H265153   6.257   5.388  10.831 -0.4331  1.5600  1.8662
14580TIP3   OH265154   0.787   1.490  16.071 -0.1421  0.0657 -0.2830
14580TIP3    H165155   0.766   1.524  16.158  1.3013  0.3883 -0.0365
14580TIP3    H265156   0.703   1.492  16.024 -1.0342 -0.5118  1.2078
14581TIP3   OH265157   4.842   2.591   3.886 -0.3973  0.4817  0.0006
14581TIP3    H165158   4.923   2.638   3.906  0.1139 -0.2622 -0.2684
14581TIP3    H265159   4.804   2.639   3.812  0.8952 -0.3618 -1.2659
14582TIP3   OH265160   6.514   4.190  11.197  0.0792 -0.0506 -0.2004
14582TIP3    H165161   6.463   4.183  11.116 -0.2267  0.3551 -0.0445
14582TIP3    H265162   6.547   4.280  11.196  0.1807 -0.0858  0.0700
14583TIP3   OH265163   2.604   4.237  12.380  0.1822 -0.2203 -0.2359
14583TIP3    H165164   2.614   4.330  12.357  0.6460 -0.2039  0.0226
14583TIP3    H265165   2.515   4.231  12.416 -0.6065 -0.2622 -2.0587
14584TIP3   OH265166   4.365   2.179  16.114 -0.0825  0.1173 -0.3366
14584TIP3    H165167   4.450   2.142  16.138 -0.6476 -1.3117 -0.4454
14584TIP3    H265168   4.372   2.197  16.021 -0.0589 -0.4941 -0.4581
14585TIP3   OH265169   6.611   2.331  17.280 -0.0877 -0.0392 -0.0196
14585TIP3    H165170   6.515   2.336  17.282 -0.0183  2.3256  1.7321
14585TIP3    H265171   6.634   2.280  17.358  0.1062 -0.4274 -0.3251
14586TIP3   OH265172   2.585   6.500   3.280 -0.0938 -0.0262  0.0055
14586TIP3    H165173   2.585   6.446   3.360  0.3408  0.6035  0.4422
14586TIP3    H265174   2.582   6.436   3.209  1.6641 -0.6906  0.4800
14587TIP3   OH265175   5.665   3.058   4.309  0.4405 -0.4233  0.3220
14587TIP3    H165176   5.592   3.103   4.266  0.3040 -1.0192 -0.0821
14587TIP3    H265177   5.693   2.992   4.246  1.3253 -0.2107  0.4880
14588TIP3   OH265178   0.074   0.670  15.960 -0.4920 -0.4686  0.3106
14588TIP3    H165179   0.015   0.603  15.995 -0.6009 -0.4819  0.1095
14588TIP3    H265180   0.136   0.621  15.906 -1.2837 -0.3087 -0.7968
14589TIP3   OH265181   3.562   2.968   0.987  0.4934  0.2236 -0.9283
14589TIP3    H165182   3.602   2.935   0.906  0.5889  1.2237 -1.3085
14589TIP3    H265183   3.470   2.980   0.964  0.0186 -1.7093 -0.1696
14590TIP3   OH265184   6.149   6.099  15.006 -0.5326  0.6107 -0.3345
14590TIP3    H165185   6.174   6.166  15.070 -0.5890  0.0696  0.2676
14590TIP3    H265186   6.204   6.024  15.028 -0.4333  0.4695 -1.0366
14591TIP3   OH265187   2.629   3.021   3.591 -0.0897  0.2546 -0.0132
14591TIP3    H165188   2.575   2.949   3.622  0.8125 -0.0599  0.8909
14591TIP3    H265189   2.638   3.079   3.667  0.4546  0.5418 -0.2899
14592TIP3   OH265190   5.746   0.416  12.181  0.0936 -0.6520  0.1211
14592TIP3    H165191   5.701   0.368  12.112 -0.3693  0.8472 -0.6405
14592TIP3    H265192   5.731   0.363  12.260 -0.6622 -1.5867 -0.6292
14593TIP3   OH265193   6.666   5.404  15.078 -0.0573 -0.0904  0.0461
14593TIP3    H165194   6.673   5.313  15.109 -1.1691  0.0741  0.8133
14593TIP3    H265195   6.630   5.396  14.990 -0.3758 -0.3927  0.1990
14594TIP3   OH265196   6.111   0.015  11.622  0.3525  0.4531 -0.1781
14594TIP3    H165197   6.020   0.031  11.647  0.5026  2.5272 -0.7998
14594TIP3    H265198   6.147   0.101  11.602  2.8748 -0.1257  1.3222
14595TIP3   OH265199   4.885   0.796  12.718  0.5312  0.2769 -0.0985
14595TIP3    H165200   4.895   0.886  12.688  1.1195  0.3570  0.3121
14595TIP3    H265201   4.794   0.773  12.698  0.1289  1.2432  0.5587
14596TIP3   OH265202   4.927   4.353  13.320  0.1662  0.0143 -0.1998
14596TIP3    H165203   4.995   4.418  13.300 -0.2899  0.2581 -0.9937
14596TIP3    H265204   4.947   4.279  13.263 -0.8030  0.4832 -1.1997
14597TIP3   OH265205   5.737   5.461   3.681 -0.1281  0.0519 -0.7460
14597TIP3    H165206   5.792   5.413   3.743 -0.8479  0.3988  0.1977
14597TIP3    H265207   5.797   5.520   3.635  0.2866  0.5169  0.3443
14598TIP3   OH265208   4.223   0.445  13.890  0.4740 -0.5232  0.2596
14598TIP3    H165209   4.238   0.398  13.808  0.4859 -1.3803  0.7382
14598TIP3    H265210   4.258   0.533  13.874 -1.9124  0.2121 -1.5529
14599TIP3   OH265211   2.912   5.128  13.960 -0.0881  0.6236  0.0408
14599TIP3    H165212   2.935   5.120  14.052  2.0198 -0.7464 -0.5309
14599TIP3    H265213   2.946   5.214  13.934 -3.2245  2.3487  1.1012
14600TIP3   OH265214   2.141   6.060  13.878 -0.0145 -0.5101 -0.0673
14600TIP3    H165215   2.083   6.124  13.918 -0.9413 -0.6382 -1.1531
14600TIP3    H265216   2.084   6.009  13.820  1.0384 -1.1444 -0.5770
14601TIP3   OH265217   3.928   2.588   5.509 -0.0440  0.4635  0.5738
14601TIP3    H165218   3.983   2.512   5.492 -1.2075 -0.0312 -1.1609
14601TIP3    H265219   3.849   2.552   5.550  0.1141  0.9619  1.3466
14602TIP3   OH265220   6.561   2.970  12.642 -0.8001  0.0450 -0.0400
14602TIP3    H165221   6.563   3.063  12.662 -1.3070  0.1801 -0.6046
14602TIP3    H265222   6.480   2.938  12.682  0.1248 -0.4933  1.5322
14603TIP3   OH265223   2.471   6.582  14.859  0.7419 -0.3855  0.4861
14603TIP3    H165224   2.504   6.672  14.855  0.8044 -0.3508  1.4999
14603TIP3    H265225   2.388   6.589  14.906 -0.9906 -0.4223 -2.3675
14604TIP3   OH265226   0.386   0.024   0.477  0.6294 -0.1698 -0.1708
14604TIP3    H165227   0.451   0.041   0.409  2.6706 -0.4162  1.6058
14604TIP3    H265228   0.433  -0.030   0.542 -0.3622  2.1334  2.6678
14605TIP3   OH265229   0.251   1.427  15.421  0.0555 -0.8576  0.6154
14605TIP3    H165230   0.328   1.471  15.457 -1.4037  1.4058  1.2063
14605TIP3    H265231   0.217   1.374  15.492 -0.1104 -0.1723  1.0572
14606TIP3   OH265232   3.038   0.618   2.258 -0.4684 -0.6490  0.4935
14606TIP3    H165233   3.006   0.562   2.187  0.5210 -0.3730 -0.1716
14606TIP3    H265234   3.004   0.705   2.238  2.6160  0.2272 -1.5996
14607TIP3   OH265235   1.180   0.942   3.017 -0.3508 -0.0474 -0.5345
14607TIP3    H165236   1.187   0.988   2.934 -0.8902  0.3596 -0.3599
14607TIP3    H265237   1.124   0.867   2.999 -0.1834 -0.1509 -0.6198
14608TIP3   OH265238   3.454   1.748  14.925  0.8378 -0.0765  0.2040
14608TIP3    H165239   3.416   1.698  14.998  1.5490 -0.3534  0.3944
14608TIP3    H265240   3.447   1.689  14.850  3.6679 -1.4444  0.8607
14609TIP3   OH265241   4.469   5.599  16.992  0.8810  0.0587 -0.2722
14609TIP3    H165242   4.437   5.510  16.981  1.2903  0.0645 -1.6087
14609TIP3    H265243   4.412   5.653  16.937 -0.8331  1.0020  2.2360
14610TIP3   OH265244   4.934   3.028  15.987 -0.3234 -0.6653  0.1542
14610TIP3    H165245   4.924   3.050  15.894  2.7939  1.4170  0.1395
14610TIP3    H265246   4.860   3.071  16.030 -1.2917 -0.8561 -1.2613
14611TIP3   OH265247   6.476   4.187   5.964  0.2554  0.1482  0.4487
14611TIP3    H165248   6.504   4.161   6.051 -1.6929  0.6972  1.3153
14611TIP3    H265249   6.478   4.283   5.966  0.5591  0.1595 -0.2405
14612TIP3   OH265250   0.694   1.085  15.970  0.4321  0.5743 -0.3580
14612TIP3    H165251   0.762   1.140  16.008 -0.5907  1.8684 -0.3347
14612TIP3    H265252   0.694   1.107  15.877 -0.2528  0.9317 -0.2805
14613TIP3   OH265253   4.599   4.196   0.482 -0.1834  0.0524  0.2363
14613TIP3    H165254   4.675   4.251   0.462  0.3684 -1.0982 -1.0085
14613TIP3    H265255   4.542   4.206   0.405 -0.0044 -1.1959 -0.0757
14614TIP3   OH265256   2.280   5.594   0.723  1.1716  0.0763  0.4106
14614TIP3    H165257   2.349   5.532   0.699  0.5904 -0.0133 -1.1378
14614TIP3    H265258   2.304   5.675   0.677  2.5865  1.4876  3.3554
14615TIP3   OH265259   0.606   6.461  13.034  0.4737  0.0754 -0.0941
14615TIP3    H165260   0.684   6.412  13.060 -0.1139 -0.1036  1.4889
14615TIP3    H265261   0.632   6.508  12.956  2.6013  1.0222  1.0922
14616TIP3   OH265262   1.106   6.373  10.168  0.0967  0.2032 -0.0701
14616TIP3    H165263   1.071   6.404  10.252  1.3240 -1.1620  0.9833
14616TIP3    H265264   1.100   6.278  10.173 -0.8230  0.1040 -2.0171
14617TIP3   OH265265   5.530   1.916  14.143 -0.7019 -0.1817 -0.1147
14617TIP3    H165266   5.589   1.865  14.200 -0.5627 -0.2138 -0.2852
14617TIP3    H265267   5.479   1.970  14.203 -0.1795  0.1789  0.0089
14618TIP3   OH265268   1.815   1.866  14.936  0.9934  0.2623 -0.3474
14618TIP3    H165269   1.743   1.921  14.908  0.9065  0.3792  0.1029
14618TIP3    H265270   1.868   1.922  14.993 -0.0336 -0.5934  1.5364
14619TIP3   OH265271   5.483   5.380   0.302  0.1638 -0.0183  0.4047
14619TIP3    H165272   5.399   5.419   0.325 -0.1371 -0.4568  0.0732
14619TIP3    H265273   5.538   5.454   0.276 -0.6636  0.1143 -1.0547
14620TIP3   OH265274   1.220   4.483  16.713  0.0158  0.4871 -0.6057
14620TIP3    H165275   1.157   4.454  16.647 -0.0630  0.3745 -0.4826
14620TIP3    H265276   1.295   4.516  16.663  1.0397 -1.8824 -0.7720
14621TIP3   OH265277   2.416   3.624   6.034 -0.7883  0.2494  0.3043
14621TIP3    H165278   2.383   3.680   5.964  0.1480 -0.2743 -0.5798
14621TIP3    H265279   2.430   3.683   6.108  0.0785  1.1836 -0.5717
14622TIP3   OH265280   0.195   2.020   5.938 -0.7465 -0.1818  0.3452
14622TIP3    H165281   0.170   1.928   5.950  1.0237 -0.7945 -0.3477
14622TIP3    H265282   0.194   2.056   6.027 -2.8148 -0.4392  0.4942
14623TIP3   OH265283   0.076   1.234   0.396 -0.0724  0.1618  0.1743
14623TIP3    H165284   0.122   1.218   0.478 -1.1144 -0.1695  0.7215
14623TIP3    H265285   0.103   1.163   0.338 -0.5701 -0.5552  0.7945
14624TIP3   OH265286   2.141   1.155   2.118 -0.5440  0.7799  0.4402
14624TIP3    H165287   2.098   1.071   2.135 -0.7445  1.2673  2.7502
14624TIP3    H265288   2.225   1.132   2.079  0.1630 -0.6561  2.6534
14625TIP3   OH265289   2.083   2.420   4.670  0.5967  0.2921 -0.2132
14625TIP3    H165290   2.063   2.505   4.629  0.9870  0.3181 -0.3578
14625TIP3    H265291   1.999   2.374   4.672  0.6478  0.0988 -1.4968
14626TIP3   OH265292   0.181   4.927   3.793  0.1426 -0.2980  0.0538
14626TIP3    H165293   0.136   4.971   3.721  1.1058 -0.0539 -0.4226
14626TIP3    H265294   0.257   4.885   3.751 -0.0768 -1.3685  0.7012
14627TIP3   OH265295   0.489   2.359   1.352  0.5738  0.0388 -0.0737
14627TIP3    H165296   0.461   2.444   1.320 -0.0225  0.0881  0.5715
14627TIP3    H265297   0.409   2.317   1.384  1.0463 -0.2524  0.7720
14628TIP3   OH265298   4.553   3.891   4.172  0.3261  0.4863  0.2431
14628TIP3    H165299   4.509   3.901   4.087  0.6528 -1.6048 -0.2267
14628TIP3    H265300   4.550   3.797   4.189 -1.2105  0.9700  3.3792
14629TIP3   OH265301   1.506   1.954  13.571  0.2672  0.4585  0.7773
14629TIP3    H165302   1.462   1.871  13.555 -0.0881  0.5214  1.3658
14629TIP3    H265303   1.594   1.930  13.600  0.7895  0.3412 -0.8094
14630TIP3   OH265304   6.388   5.300   2.546  0.3998  0.3424  0.1600
14630TIP3    H165305   6.319   5.352   2.507  0.3552  0.0215 -0.1994
14630TIP3    H265306   6.469   5.347   2.526  0.3789  0.1625 -0.3515
14631TIP3   OH265307   5.264   4.351   2.208 -0.0028 -0.6235 -0.0240
14631TIP3    H165308   5.354   4.379   2.193 -0.2747  1.1953  1.3965
14631TIP3    H265309   5.270   4.285   2.277  0.1431  1.1183  1.7292
14632TIP3   OH265310   5.710   5.069   3.792 -0.2912  0.0679 -0.3084
14632TIP3    H165311   5.630   5.027   3.824  0.5702 -1.7991 -0.5136
14632TIP3    H265312   5.781   5.009   3.816  1.0292  1.4791 -0.4959
14633TIP3   OH265313   5.693   6.051  10.810  0.2458 -0.1735 -0.6114
14633TIP3    H165314   5.647   5.973  10.780  0.4772  0.0248 -1.5211
14633TIP3    H265315   5.624   6.108  10.843 -0.1274 -0.0832 -1.5007
14634TIP3   OH265316   5.534   3.165  16.553  0.2494 -0.1809 -0.2462
14634TIP3    H165317   5.500   3.095  16.497 -0.8368  1.2718 -1.4783
14634TIP3    H265318   5.618   3.188  16.513  0.3865 -0.4543 -0.1184
14635TIP3   OH265319   4.261   4.048  14.855  0.2660 -0.8483 -0.5732
14635TIP3    H165320   4.348   4.037  14.817  1.1737  1.4461  0.6439
14635TIP3    H265321   4.269   4.017  14.945 -0.4357 -1.4326 -0.7025
14636TIP3   OH265322   3.845   5.763  15.731 -0.0044 -0.2206  0.1181
14636TIP3    H165323   3.867   5.701  15.800 -0.2212  0.2148  0.5845
14636TIP3    H265324   3.771   5.812  15.766 -0.3795 -0.2712 -0.5917
14637TIP3   OH265325   3.928   5.456   0.670 -0.0425 -0.4906 -0.2002
14637TIP3    H165326   3.960   5.544   0.649  0.3705 -0.3912  0.7932
14637TIP3    H265327   3.920   5.412   0.585 -2.6647  1.2849 -0.9915
14638TIP3   OH265328   0.941   6.169  11.908  0.2638  0.0462 -0.1198
14638TIP3    H165329   0.908   6.250  11.869  1.5697  0.3291 -0.6710
14638TIP3    H265330   1.031   6.188  11.933  0.3421 -1.0008  0.4785
14639TIP3   OH265331   2.093   1.035   2.788  0.7178  0.4292 -0.2995
14639TIP3    H165332   2.128   1.007   2.703 -0.3593 -0.5890 -0.4468
14639TIP3    H265333   2.138   1.116   2.808  2.4270 -0.3296 -0.9163
14640TIP3   OH265334   4.436   5.889  15.040 -0.1976  0.3377 -0.1159
14640TIP3    H165335   4.485   5.932  14.970  0.8817  0.4877  0.6860
14640TIP3    H265336   4.451   5.945  15.116  2.4014 -2.0396  1.3282
14641TIP3   OH265337   3.769   5.996   5.587 -0.0084 -0.6497  0.8944
14641TIP3    H165338   3.681   5.966   5.566 -0.2287 -0.0991  1.0187
14641TIP3    H265339   3.776   5.988   5.682  0.1447 -0.8815  0.8638
14642TIP3   OH265340   6.135   4.538  15.676  0.1178  0.3281  0.6066
14642TIP3    H165341   6.219   4.570  15.640 -0.2162  0.7350  0.1740
14642TIP3    H265342   6.101   4.613  15.724 -1.2315  1.0789 -1.3752
14643TIP3   OH265343   4.333   3.334   1.207 -0.8656  0.8547 -0.1905
14643TIP3    H165344   4.267   3.313   1.141 -0.0613  1.3156 -1.1582
14643TIP3    H265345   4.409   3.281   1.184 -0.6420  0.8681  0.4868
14644TIP3   OH265346   0.508   3.200  12.508  0.3035 -0.2060  0.0969
14644TIP3    H165347   0.515   3.117  12.461  0.6148  0.0516 -0.3222
14644TIP3    H265348   0.414   3.217  12.514 -0.0871 -2.5275  3.6788
14645TIP3   OH265349   0.688   3.524   0.262  0.0004 -0.3679 -0.0563
14645TIP3    H165350   0.748   3.452   0.280 -0.2480  0.0247  2.7761
14645TIP3    H265351   0.604   3.495   0.299 -0.2689  1.0413  0.4960
14646TIP3   OH265352   1.891   1.368  11.512 -0.0237 -0.4162  0.1636
14646TIP3    H165353   1.942   1.302  11.465  1.3627 -0.8671  2.1695
14646TIP3    H265354   1.920   1.360  11.603  0.2360  3.0077  0.4914
14647TIP3   OH265355   1.202   3.354   5.682  0.1763  0.2809  0.4260
14647TIP3    H165356   1.185   3.400   5.764 -0.0108 -0.9727  1.1126
14647TIP3    H265357   1.165   3.267   5.695  1.2180 -0.3330 -0.5459
14648TIP3   OH265358   3.144   5.774  15.738  0.4937 -0.6164 -0.1068
14648TIP3    H165359   3.218   5.713  15.750  1.1486  0.4677  1.9144
14648TIP3    H265360   3.085   5.754  15.811  0.8399  1.2681  0.7452
14649TIP3   OH265361   1.397   3.301   4.258 -0.3524 -0.2157 -0.1713
14649TIP3    H165362   1.380   3.214   4.294  0.9868 -0.1066  0.8195
14649TIP3    H265363   1.311   3.342   4.252 -0.9495 -1.4146 -0.1595
14650TIP3   OH265364   1.796   4.203   1.657  0.2130  0.2693 -0.0135
14650TIP3    H165365   1.841   4.249   1.586 -0.1977 -0.0451 -0.4900
14650TIP3    H265366   1.706   4.237   1.654 -0.7677 -2.1502 -1.8960
14651TIP3   OH265367   5.052   3.372  12.267  0.3014  0.0257  0.3632
14651TIP3    H165368   5.044   3.281  12.297 -2.2296  0.2178  0.4750
14651TIP3    H265369   4.982   3.382  12.203  1.1430  1.6686 -0.3626
14652TIP3   OH265370   3.338   5.062  11.215 -0.0017 -0.2852  0.4513
14652TIP3    H165371   3.320   4.969  11.227  1.1044 -0.5356  0.2608
14652TIP3    H265372   3.282   5.089  11.142 -0.9833 -0.5779  1.0741
14653TIP3   OH265373   5.212   3.308   2.725  0.3760 -0.2083  0.1168
14653TIP3    H165374   5.287   3.271   2.678 -0.0355 -0.5161 -0.3153
14653TIP3    H265375   5.154   3.233   2.739 -0.2495  0.1802 -0.3348
14654TIP3   OH265376   2.738   2.213   1.177  0.3577 -0.3553 -0.1636
14654TIP3    H165377   2.781   2.132   1.151  0.5420 -1.5844  3.4313
14654TIP3    H265378   2.807   2.279   1.175  1.2097 -1.1994  0.7435
14655TIP3   OH265379   4.374   0.446  14.169 -0.3791  0.6873 -0.6161
14655TIP3    H165380   4.279   0.458  14.168 -0.1988  2.4490 -0.1372
14655TIP3    H265381   4.395   0.422  14.259 -0.2167  2.1175 -0.2448
14656TIP3   OH265382   0.078   0.747  17.028 -0.1398  0.3799  0.3636
14656TIP3    H165383   0.044   0.748  17.117 -1.3645  0.1126 -0.0666
14656TIP3    H265384   0.039   0.824  16.986  1.9048  1.5737  0.5390
14657TIP3   OH265385   6.062   3.145  15.249 -0.1957  0.1186  0.3683
14657TIP3    H165386   6.014   3.171  15.328 -0.4740  0.3625  0.1211
14657TIP3    H265387   6.088   3.228  15.208 -1.1458  0.0212 -0.4632
14658TIP3   OH265388   0.092   4.482  12.692 -0.0341  0.5599  0.0063
14658TIP3    H165389   0.115   4.409  12.636  1.6339  0.4505  0.7854
14658TIP3    H265390  -0.001   4.498  12.674  0.2899  0.1459 -2.2805
14659TIP3   OH265391   3.041   6.756   0.138  0.4465 -0.1764 -0.1231
14659TIP3    H165392   3.067   6.771   0.047  2.1544 -1.3236  0.1402
14659TIP3    H265393   2.979   6.683   0.133 -2.0729  1.8405 -0.6305
14660TIP3   OH265394   1.857   3.153  13.283  0.7716  0.2731  0.2558
14660TIP3    H165395   1.917   3.189  13.217  2.2613 -3.2227 -0.5335
14660TIP3    H265396   1.896   3.177  13.367  2.1683 -0.1292 -0.2471
14661TIP3   OH265397   0.813   1.822  11.267  0.3949  0.0169  0.1304
14661TIP3    H165398   0.908   1.827  11.282  0.3800 -1.4314  0.8816
14661TIP3    H265399   0.775   1.820  11.355 -0.0300 -3.6746  0.0038
14662TIP3   OH265400   1.799   4.323   1.121 -0.2548 -0.0128  0.2608
14662TIP3    H165401   1.837   4.330   1.033  0.1992 -1.0692  0.3528
14662TIP3    H265402   1.712   4.361   1.113 -0.0733  0.2488 -0.5571
14663TIP3   OH265403   6.006   6.083   4.304  0.3816  0.3608  0.1233
14663TIP3    H165404   5.915   6.051   4.299  0.1836  0.6483  1.5969
14663TIP3    H265405   6.001   6.173   4.271  0.8543 -0.7960 -3.5417
14664TIP3   OH265406   5.990   3.785  12.581  0.4131  0.6154 -0.3886
14664TIP3    H165407   5.921   3.842  12.613 -0.6142 -1.3452  1.0721
14664TIP3    H265408   6.071   3.822  12.618 -0.2206  1.1163  0.5347
14665TIP3   OH265409   4.701   0.503   1.237 -0.1431  0.0071 -0.4190
14665TIP3    H165410   4.672   0.459   1.317  1.0144 -0.4052 -0.2144
14665TIP3    H265411   4.795   0.487   1.234  0.0260  1.0902 -1.2039
14666TIP3   OH265412   4.126   5.827  15.646  0.5306  0.0058  0.0898
14666TIP3    H165413   4.126   5.922  15.635 -0.4323  0.0569  0.3613
14666TIP3    H265414   4.042   5.808  15.690  0.7597 -0.9526  0.1500
14667TIP3   OH265415   0.352   1.838  11.986  0.4674 -0.1843 -0.0957
14667TIP3    H165416   0.386   1.774  11.925 -0.2037  2.3619 -3.4186
14667TIP3    H265417   0.258   1.840  11.969  0.1567  0.1765  1.4948
14668TIP3   OH265418   2.299   1.646   5.359 -0.4246 -0.5922 -0.0565
14668TIP3    H165419   2.353   1.654   5.438  0.7458 -0.6122 -0.8323
14668TIP3    H265420   2.334   1.569   5.314  1.5674  1.5838 -2.5334
14669TIP3   OH265421   6.443   5.762  16.983  0.3460 -0.2282  0.0067
14669TIP3    H165422   6.383   5.710  16.929 -0.0026  0.1869 -0.0168
14669TIP3    H265423   6.390   5.788  17.059  0.2655  0.7381 -0.3579
14670TIP3   OH265424   5.873   4.645   3.187 -0.2028  0.3086 -0.2046
14670TIP3    H165425   5.802   4.704   3.212  0.0714  1.8589 -2.7710
14670TIP3    H265426   5.830   4.575   3.138 -0.1434  0.2915 -0.2323
14671TIP3   OH265427   4.207   0.512  15.058  0.2432  0.2225  0.1260
14671TIP3    H165428   4.230   0.584  15.117 -0.6386  1.6501 -1.1846
14671TIP3    H265429   4.128   0.473  15.096  0.1656  0.5877  0.3437
14672TIP3   OH265430   3.212   0.966   2.119 -0.0771 -0.3290  0.0566
14672TIP3    H165431   3.137   0.977   2.178  0.1940  0.8974  0.2110
14672TIP3    H265432   3.175   0.977   2.032 -0.1076  0.1777  0.1275
14673TIP3   OH265433   4.232   2.639  12.121  0.1705 -0.1994  0.7562
14673TIP3    H165434   4.136   2.641  12.119  0.1864  0.8664  0.8459
14673TIP3    H265435   4.258   2.627  12.029 -0.0016  3.9360 -0.0294
14674TIP3   OH265436   1.244   4.694  15.793 -0.0172  0.4944  0.6718
14674TIP3    H165437   1.178   4.626  15.782  0.7545 -0.3172  0.9012
14674TIP3    H265438   1.215   4.766  15.737  0.2367 -0.8417 -1.2489
14675TIP3   OH265439   0.832   1.355   1.534  0.5118  0.1879  0.3128
14675TIP3    H165440   0.835   1.357   1.438 -0.2371 -0.1614  0.2803
14675TIP3    H265441   0.760   1.296   1.555  0.0530  1.0069  1.0868
14676TIP3   OH265442   4.791   6.610   4.506 -0.2955 -0.0867 -0.0038
14676TIP3    H165443   4.874   6.586   4.547 -1.3935 -1.0677  1.7641
14676TIP3    H265444   4.816   6.669   4.434  1.9044 -0.3624  0.4564
14677TIP3   OH265445   2.918   0.637  12.180  0.2012  0.1243  0.3543
14677TIP3    H165446   2.997   0.585  12.194  1.0981  1.5234  0.6280
14677TIP3    H265447   2.861   0.615  12.254 -1.4162 -3.8271 -1.7469
14678TIP3   OH265448   1.156   3.014  14.488 -0.5553 -0.2676  0.6891
14678TIP3    H165449   1.226   2.949  14.478 -2.8017 -3.0667  1.4936
14678TIP3    H265450   1.083   2.964  14.525 -3.2919  2.2399 -0.8918
14679TIP3   OH265451   0.361   5.644  16.477  0.2394 -0.1874  0.0209
14679TIP3    H165452   0.365   5.559  16.435 -1.2208  0.1440 -0.8606
14679TIP3    H265453   0.392   5.628  16.566 -1.5591 -2.0241  0.4045
14680TIP3   OH265454   3.083   1.899  13.119  0.3085 -0.6210 -0.2103
14680TIP3    H165455   3.007   1.841  13.123  0.6705 -1.0957 -0.1770
14680TIP3    H265456   3.151   1.853  13.167  0.4777  0.0236  0.1807
14681TIP3   OH265457   4.064   4.352  12.069 -0.0039  0.6180  0.4305
14681TIP3    H165458   4.113   4.279  12.107 -0.3529 -0.2226 -0.7029
14681TIP3    H265459   4.040   4.323  11.982 -2.5900  0.9789  0.9421
14682TIP3   OH265460   5.591   5.835  16.956  0.0705  0.2224 -0.3522
14682TIP3    H165461   5.528   5.877  16.897 -0.3570 -0.4412 -0.3830
14682TIP3    H265462   5.568   5.742  16.953 -1.1657  0.3563  2.2605
14683TIP3   OH265463   2.143   4.197  16.559 -0.3165 -0.4558  0.2050
14683TIP3    H165464   2.163   4.186  16.466 -2.2561  2.2847 -0.6593
14683TIP3    H265465   2.201   4.268  16.588 -1.1709  0.1486  0.4875
14684TIP3   OH265466   3.112   6.246  16.202 -0.2183 -0.1773  0.0442
14684TIP3    H165467   3.032   6.277  16.159  0.3695  0.2958 -0.7312
14684TIP3    H265468   3.123   6.304  16.277  1.0858  1.8372 -1.6093
14685TIP3   OH265469   1.496   6.215  11.406 -0.3872  0.2147  0.0038
14685TIP3    H165470   1.420   6.232  11.350 -1.0546  1.9391  1.3353
14685TIP3    H265471   1.470   6.248  11.492  0.9813 -1.4464  1.1058
14686TIP3   OH265472   1.172   1.333   0.507 -0.1289  0.3248  0.2854
14686TIP3    H165473   1.138   1.279   0.578  0.8819 -0.1660  0.4302
14686TIP3    H265474   1.158   1.423   0.535 -0.1239  0.1337  0.9249
14687TIP3   OH265475   2.957   3.141   6.384 -0.1811  0.2702  0.1085
14687TIP3    H165476   2.930   3.147   6.475  0.5905 -0.5329  0.4040
14687TIP3    H265477   3.025   3.207   6.375 -1.5561  1.6847 -0.4101
14688TIP3   OH265478   5.344   3.397   4.412  0.1005 -1.1884  0.0428
14688TIP3    H165479   5.260   3.384   4.456  0.4627 -0.9428  0.8193
14688TIP3    H265480   5.407   3.406   4.483  0.5889 -0.0383 -0.5164
14689TIP3   OH265481   6.765   4.180   1.296  0.9050 -0.0788 -0.5033
14689TIP3    H165482   6.800   4.167   1.384  2.1776 -2.4133 -1.2671
14689TIP3    H265483   6.670   4.182   1.308  1.0831  0.6468  0.9991
14690TIP3   OH265484   2.864   3.987   5.091  0.8072 -0.5266  0.6021
14690TIP3    H165485   2.795   3.964   5.154  0.0856 -1.3465 -0.4535
14690TIP3    H265486   2.912   4.058   5.134  0.8587 -1.5954  2.4383
14691TIP3   OH265487   0.268   3.131   3.941  0.0110  0.3472 -0.4768
14691TIP3    H165488   0.335   3.065   3.958 -0.9940 -0.0218  2.6399
14691TIP3    H265489   0.186   3.090   3.966 -1.0460  1.8014 -1.3561
14692TIP3   OH265490   4.037   3.317   0.774  0.0056 -0.3022 -0.4944
14692TIP3    H165491   3.980   3.239   0.773 -0.9509  0.3070  1.2741
14692TIP3    H265492   3.989   3.382   0.723 -1.2202  0.3696  1.4038
14693TIP3   OH265493   3.558   4.082  14.499 -0.0516 -0.6133 -0.5646
14693TIP3    H165494   3.651   4.058  14.498  0.0982 -0.0341 -1.5092
14693TIP3    H265495   3.534   4.082  14.592  0.8122 -1.0623 -0.3330
14694TIP3   OH265496   1.317   2.580  13.345  0.0307 -0.0432  0.2065
14694TIP3    H165497   1.409   2.604  13.333 -0.2844  1.8114  1.0354
14694TIP3    H265498   1.284   2.565  13.257  0.9876 -0.1340 -0.1422
14695TIP3   OH265499   2.359   5.648  13.600 -0.0061  0.4213 -0.0718
14695TIP3    H165500   2.403   5.600  13.671 -1.3884  0.1314  0.6143
14695TIP3    H265501   2.414   5.633  13.524  3.4746  3.4567  1.5018
14696TIP3   OH265502   0.913   4.025   3.179  0.4148  0.2166  0.4166
14696TIP3    H165503   0.986   3.994   3.233  1.0753 -0.3173 -0.7413
14696TIP3    H265504   0.943   4.109   3.145  0.7033 -0.2255 -0.4435
14697TIP3   OH265505   2.344   6.068   3.603  0.0988  0.4476 -0.4316
14697TIP3    H165506   2.262   6.078   3.651  0.2422  1.9278 -0.4548
14697TIP3    H265507   2.382   6.156   3.600  0.9474  0.0753 -1.7430
14698TIP3   OH265508   5.836   0.806   1.541 -0.1530  0.5091 -0.9920
14698TIP3    H165509   5.773   0.826   1.610 -0.8097  1.8341 -1.9417
14698TIP3    H265510   5.815   0.716   1.516 -0.0299  0.0720  0.3817
14699TIP3   OH265511   2.755   4.995   2.411  0.7136  0.1477 -0.2089
14699TIP3    H165512   2.686   5.010   2.345 -0.0135  0.2397  0.5559
14699TIP3    H265513   2.818   4.938   2.367  0.4363  0.5077 -1.1133
14700TIP3   OH265514   2.176   1.324  13.754 -0.2391 -0.2206 -0.3039
14700TIP3    H165515   2.225   1.244  13.778  0.5266  0.6729  1.2717
14700TIP3    H265516   2.102   1.292  13.703  0.1968 -1.9264  0.0580
14701TIP3   OH265517   1.937   5.567   3.387  0.1956 -0.0684  0.0357
14701TIP3    H165518   1.867   5.633   3.384  0.9251  0.7918  1.1553
14701TIP3    H265519   1.995   5.592   3.314 -0.1411 -0.1953 -0.2816
14702TIP3   OH265520   0.091   2.514  13.910 -0.3842  0.3792 -0.3073
14702TIP3    H165521   0.114   2.596  13.868  0.6438  0.7431  0.9051
14702TIP3    H265522   0.047   2.540  13.991  0.3496 -0.2386  0.3088
14703TIP3   OH265523   0.694   3.176  11.291 -0.4014  0.4685 -0.4966
14703TIP3    H165524   0.773   3.202  11.243 -0.3739  0.5044 -0.4317
14703TIP3    H265525   0.637   3.253  11.286 -0.0384  0.7971  0.3022
14704TIP3   OH265526   1.118   6.486  13.659  0.3949  0.3308 -0.2329
14704TIP3    H165527   1.098   6.399  13.692  0.2390  0.1405 -0.8362
14704TIP3    H265528   1.034   6.521  13.630  0.8551 -0.3927 -2.5754
14705TIP3   OH265529   4.222   5.586   2.754  0.0503  0.0283  0.3469
14705TIP3    H165530   4.142   5.546   2.788  0.0823 -2.1898 -1.9090
14705TIP3    H265531   4.288   5.566   2.821 -0.9115  0.4700  1.4685
14706TIP3   OH265532   6.350   2.397  13.568 -0.0082  0.7066  0.1638
14706TIP3    H165533   6.422   2.337  13.551  0.7583  1.0709  1.8694
14706TIP3    H265534   6.323   2.428  13.481  1.0286 -0.4080 -0.5861
14707TIP3   OH265535   4.991   2.436   0.467  0.2489  0.1382  0.2734
14707TIP3    H165536   4.937   2.369   0.508  0.2323 -0.5382 -0.8134
14707TIP3    H265537   4.947   2.454   0.383  1.2198  0.2109 -0.2349
14708TIP3   OH265538   4.829   1.563   2.685  0.5077 -0.4508 -0.4034
14708TIP3    H165539   4.761   1.599   2.741  0.9807 -0.2475  0.0510
14708TIP3    H265540   4.819   1.609   2.602  0.7485  0.3378 -0.0096
14709TIP3   OH265541   2.031   5.429   0.768 -0.1774 -0.5899  0.1036
14709TIP3    H165542   2.113   5.470   0.739 -1.4342  1.8604 -0.2761
14709TIP3    H265543   1.979   5.421   0.689 -0.9510 -0.4908  0.5915
14710TIP3   OH265544   4.086   5.537  13.729 -0.8897 -0.6183 -0.3103
14710TIP3    H165545   4.052   5.609  13.676 -0.5456  0.4963  0.9207
14710TIP3    H265546   4.049   5.552  13.816  1.4901 -0.2219  0.7096
14711TIP3   OH265547   5.346   1.927   1.093 -0.4865 -0.6039  0.7196
14711TIP3    H165548   5.432   1.891   1.072  0.3326  1.1606  0.8931
14711TIP3    H265549   5.336   1.911   1.187  0.9903  1.6762  1.3659
14712TIP3   OH265550   0.288   1.372  14.066 -0.2445 -0.1931  0.2915
14712TIP3    H165551   0.342   1.294  14.080 -0.9558 -0.7325  0.0931
14712TIP3    H265552   0.260   1.398  14.154  0.1058 -0.0749  0.3702
14713TIP3   OH265553   2.129   2.557  16.651 -0.0119 -0.4589  0.2369
14713TIP3    H165554   2.219   2.588  16.653  1.1279 -3.3730 -0.5508
14713TIP3    H265555   2.129   2.479  16.706 -2.2525 -0.1735  0.7474
14714TIP3   OH265556   0.554   2.287   5.769 -0.1374  0.2190  0.4882
14714TIP3    H165557   0.636   2.269   5.723  0.0631 -0.1753  0.9936
14714TIP3    H265558   0.555   2.382   5.783  0.7738  0.0913  1.4759
14715TIP3   OH265559   5.789   2.745  12.649 -0.3399 -0.0825  0.2641
14715TIP3    H165560   5.828   2.702  12.573 -0.3336  0.8326 -0.2622
14715TIP3    H265561   5.724   2.683  12.681  0.6966 -1.1299  0.4392
14716TIP3   OH265562   1.871   4.402  10.881 -0.0778 -0.0747 -0.0191
14716TIP3    H165563   1.861   4.370  10.971 -1.3466  1.6267  0.4775
14716TIP3    H265564   1.784   4.394  10.842  0.4650 -0.8464 -1.1565
14717TIP3   OH265565   6.183   4.803   6.919 -0.3023  0.2532  0.3018
14717TIP3    H165566   6.191   4.874   6.983  3.6706  0.7939 -0.4867
14717TIP3    H265567   6.158   4.846   6.838 -0.8730  0.2745  0.4875
14718TIP3   OH265568   4.873   3.721   2.162 -0.2728 -0.2095  0.3941
14718TIP3    H165569   4.927   3.692   2.235  2.1517  2.1429 -0.3119
14718TIP3    H265570   4.836   3.804   2.191 -0.1322  0.2343 -0.6472
14719TIP3   OH265571   1.921   3.639  15.834  0.1005  0.1266 -0.4323
14719TIP3    H165572   1.855   3.660  15.768 -0.1492  1.1188  0.1088
14719TIP3    H265573   1.935   3.721  15.881  0.5436 -0.4682  0.5095
14720TIP3   OH265574   5.713   1.923  13.047 -0.1617  0.5177 -0.4844
14720TIP3    H165575   5.727   1.996  13.107  0.2365 -1.2995  1.7668
14720TIP3    H265576   5.622   1.933  13.017 -0.8387  0.7551  1.5373
14721TIP3   OH265577   4.623   1.134  10.391  0.5103  0.0330  0.2051
14721TIP3    H165578   4.665   1.064  10.440  0.4291  0.3027  0.6617
14721TIP3    H265579   4.680   1.210  10.403  1.1972 -0.2283 -1.2145
14722TIP3   OH265580   1.231   6.099  16.630 -0.3730  0.4106 -0.1053
14722TIP3    H165581   1.257   6.181  16.588  0.5920 -0.1556 -0.6516
14722TIP3    H265582   1.313   6.060  16.660 -0.9777  0.5352  1.8730
14723TIP3   OH265583   4.988   5.548  14.143 -0.4215 -0.0269  0.1791
14723TIP3    H165584   4.948   5.469  14.107 -1.5608 -0.3980  2.0989
14723TIP3    H265585   4.956   5.619  14.087 -0.4725 -0.7697 -0.7513
14724TIP3   OH265586   5.361   0.794   4.766  0.0150  0.2184  0.2303
14724TIP3    H165587   5.441   0.760   4.806  0.2628 -0.1733 -0.5738
14724TIP3    H265588   5.295   0.726   4.781 -0.5532  1.1303  2.0923
14725TIP3   OH265589   5.272   3.742   5.520  0.0612 -0.1968  0.3404
14725TIP3    H165590   5.284   3.799   5.596  0.0580 -1.2687  1.1673
14725TIP3    H265591   5.212   3.674   5.550 -0.5162 -0.2380 -0.8529
14726TIP3   OH265592   1.920   4.181  11.680  0.6852 -0.5952  0.5192
14726TIP3    H165593   1.910   4.159  11.588  1.6548  1.6874 -0.1847
14726TIP3    H265594   1.831   4.183  11.714  0.3631 -2.2947 -0.0962
14727TIP3   OH265595   2.279   3.256   3.014  0.6380  0.2481  0.2250
14727TIP3    H165596   2.215   3.283   3.081  0.4460 -1.4158  0.7438
14727TIP3    H265597   2.233   3.190   2.962 -0.3316  3.4505 -3.5520
14728TIP3   OH265598   2.453   5.106  11.477 -0.7334 -0.0591  0.7377
14728TIP3    H165599   2.465   5.053  11.555 -1.8314 -3.5910 -1.2347
14728TIP3    H265600   2.358   5.121  11.473 -0.8167 -0.7427 -0.3231
14729TIP3   OH265601   2.720   2.403   4.255 -0.6404  0.0756  0.1634
14729TIP3    H165602   2.633   2.424   4.289 -0.1691  0.1923  1.3480
14729TIP3    H265603   2.765   2.487   4.252  0.4888 -0.3470  2.7112
14730TIP3   OH265604   0.431   4.350   0.522 -1.0108 -0.2325 -0.6634
14730TIP3    H165605   0.449   4.312   0.608 -1.1348  1.9982  0.4027
14730TIP3    H265606   0.342   4.321   0.502 -1.4220  0.1753  0.5064
14731TIP3   OH265607   6.731   1.769   1.234 -0.1559 -0.1779  0.0885
14731TIP3    H165608   6.742   1.674   1.232 -1.4790 -0.3971  1.2934
14731TIP3    H265609   6.817   1.804   1.209  0.7262 -1.6778  0.8613
14732TIP3   OH265610   5.467   1.374   5.335  0.2135  0.1785  0.1926
14732TIP3    H165611   5.489   1.368   5.242  1.0116  0.8241  0.3288
14732TIP3    H265612   5.509   1.455   5.364 -0.0231 -0.0254  1.1169
14733TIP3   OH265613   2.609   0.085   6.199 -0.1517 -0.4525  0.2716
14733TIP3    H165614   2.703   0.090   6.219 -0.2276  2.8518  0.3957
14733TIP3    H265615   2.603   0.017   6.132  2.7267  0.6773 -1.3583
14734TIP3   OH265616   3.054   1.087  17.043  0.4747 -0.2933  0.4709
14734TIP3    H165617   2.969   1.068  17.083 -0.0582 -0.6150 -0.7693
14734TIP3    H265618   3.074   1.176  17.071 -0.5192 -0.0272  0.3676
14735TIP3   OH265619   5.252   5.446   0.140 -0.1107  0.1206  0.2125
14735TIP3    H165620   5.161   5.440   0.170 -0.8402 -1.8662 -2.0599
14735TIP3    H265621   5.302   5.396   0.205 -1.2819 -2.1271 -0.5107
14736TIP3   OH265622   0.680   3.034  16.604 -0.3582  0.4680 -0.4739
14736TIP3    H165623   0.624   3.099  16.645  0.4339 -0.3279  2.0559
14736TIP3    H265624   0.767   3.050  16.639  0.1697 -0.9549 -1.0180
14737TIP3   OH265625   5.959   1.767  13.808  0.4492  0.5762  0.6637
14737TIP3    H165626   5.958   1.684  13.760  3.0516  0.0477  1.3966
14737TIP3    H265627   5.940   1.743  13.899 -1.5455  1.2056  0.4701
14738TIP3   OH265628   0.625   1.309  15.396  0.0372 -0.6219 -0.2399
14738TIP3    H165629   0.576   1.384  15.431 -1.1127 -0.4627 -2.0515
14738TIP3    H265630   0.562   1.237  15.398  0.3329 -0.9013 -0.8236
14739TIP3   OH265631   5.381   5.932   5.291  0.2147 -0.7889  0.3354
14739TIP3    H165632   5.452   5.993   5.305 -0.4969  0.0714  0.2649
14739TIP3    H265633   5.363   5.937   5.197 -0.0765 -0.8478  0.3862
14740TIP3   OH265634   0.143   4.525   3.826  0.4927 -0.5802  0.2558
14740TIP3    H165635   0.154   4.549   3.734  0.0084 -0.3668  0.2483
14740TIP3    H265636   0.229   4.492   3.853  0.6481 -0.6075 -0.2606
14741TIP3   OH265637   6.278   2.209   4.165  0.2773 -0.2015  0.3974
14741TIP3    H165638   6.363   2.187   4.127 -0.3092 -0.5633 -0.7410
14741TIP3    H265639   6.214   2.176   4.102 -0.7004  0.8513  0.7987
14742TIP3   OH265640   2.279   2.197   5.384 -0.0955  0.0765  0.6509
14742TIP3    H165641   2.311   2.258   5.318 -0.0715 -1.3371 -0.7172
14742TIP3    H265642   2.183   2.202   5.377 -0.0932 -0.0445  0.5092
14743TIP3   OH265643   2.544   0.289   2.774 -0.4512  0.2155 -0.3552
14743TIP3    H165644   2.561   0.339   2.854  0.8401 -1.8915  0.7858
14743TIP3    H265645   2.614   0.315   2.714  0.0452 -0.0092  0.1198
14744TIP3   OH265646   3.001   1.653  17.083 -0.2172  0.5134 -0.0833
14744TIP3    H165647   3.041   1.739  17.093 -0.3543  0.3760  2.1250
14744TIP3    H265648   3.075   1.592  17.078 -0.1070  0.5307  1.0810
14745TIP3   OH265649   0.406   1.021  14.255  0.0473  1.0232  0.0508
14745TIP3    H165650   0.498   1.023  14.283 -0.0086  0.3752  0.2883
14745TIP3    H265651   0.357   1.032  14.337 -0.1262 -1.2695  0.3119
14746TIP3   OH265652   1.637   1.839   3.242  0.8774  0.2325  0.0774
14746TIP3    H165653   1.677   1.808   3.161 -0.0491  0.8074 -0.6258
14746TIP3    H265654   1.546   1.813   3.235  0.5682  1.1541  0.4661
14747TIP3   OH265655   4.379   0.559  14.585 -0.8521 -0.3383  0.1183
14747TIP3    H165656   4.396   0.634  14.642 -1.3847 -0.3095  0.2499
14747TIP3    H265657   4.338   0.597  14.507  0.6328 -0.2775 -0.6724
14748TIP3   OH265658   0.563   3.893   5.912  0.2167  0.1951 -0.0862
14748TIP3    H165659   0.639   3.950   5.902 -1.5752  2.4222 -2.8730
14748TIP3    H265660   0.495   3.950   5.949 -1.3961 -0.2134 -2.1796
14749TIP3   OH265661   3.945   6.060   0.678  0.4875 -0.3002 -0.1815
14749TIP3    H165662   3.888   6.064   0.601  0.6801 -0.6430 -0.3420
14749TIP3    H265663   3.893   6.099   0.748 -0.5478 -1.9898  0.0414
14750TIP3   OH265664   1.222   5.442  12.581  0.4032 -0.8351 -0.2833
14750TIP3    H165665   1.246   5.498  12.655  1.1493 -0.0206 -1.1122
14750TIP3    H265666   1.130   5.462  12.565  0.2165 -1.0685  0.4536
14751TIP3   OH265667   3.481   2.251  16.868  0.4251 -0.2695  0.2526
14751TIP3    H165668   3.555   2.302  16.900  0.9746 -1.1410  0.4068
14751TIP3    H265669   3.488   2.256  16.773 -0.7908  1.7231  0.2129
14752TIP3   OH265670   4.120   0.124   3.562 -0.1669  0.5679 -0.8354
14752TIP3    H165671   4.119   0.188   3.490  1.3680 -0.0337 -1.4344
14752TIP3    H265672   4.187   0.061   3.537  1.1912  0.9303  1.6306
14753TIP3   OH265673   5.731   4.220   1.347 -0.1781 -0.0430  0.6106
14753TIP3    H165674   5.652   4.250   1.393  0.0212  0.2498  0.7645
14753TIP3    H265675   5.789   4.190   1.417 -0.6215 -1.4137  0.4276
14754TIP3   OH265676   6.058   3.243   3.333  0.0040 -0.4470 -0.1652
14754TIP3    H165677   6.066   3.249   3.238  0.8715  0.8956 -0.0323
14754TIP3    H265678   6.127   3.300   3.367 -1.6183  0.7717  1.2606
14755TIP3   OH265679   1.133   4.510   6.639 -0.5305  0.1805  0.1092
14755TIP3    H165680   1.117   4.420   6.609 -1.7527  0.4689 -0.1259
14755TIP3    H265681   1.063   4.527   6.702 -0.2016  0.9234  0.2859
14756TIP3   OH265682   1.847   5.408   1.954 -0.1676  1.1189  0.3357
14756TIP3    H165683   1.804   5.357   1.885  1.4374 -0.1695  0.2259
14756TIP3    H265684   1.910   5.463   1.907  0.8439  0.3284  0.7225
14757TIP3   OH265685   1.109   1.416   1.555  0.0403 -0.1506  0.5913
14757TIP3    H165686   1.015   1.402   1.542  0.0390 -0.0809  0.5275
14757TIP3    H265687   1.119   1.511   1.557  0.4876 -0.0655 -2.1380
14758TIP3   OH265688   5.964   0.818  14.498  0.7347 -0.7105  0.0927
14758TIP3    H165689   6.030   0.885  14.482  0.6619  0.2796  3.2393
14758TIP3    H265690   5.887   0.848  14.449  1.7403 -0.3820 -1.3218
14759TIP3   OH265691   3.912   4.384  12.322  0.0072  0.3344  0.4188
14759TIP3    H165692   3.991   4.430  12.296 -0.4252  1.0792  0.3718
14759TIP3    H265693   3.886   4.426  12.404 -0.6375  0.4769  0.1492
14760TIP3   OH265694   1.105   6.063   3.261  0.0607 -0.4544  0.2737
14760TIP3    H165695   1.045   6.068   3.335  2.3103  0.3394  2.1712
14760TIP3    H265696   1.101   6.150   3.221 -2.2961 -1.3178 -1.6366
14761TIP3   OH265697   3.606   3.292   0.558  0.1577  0.2102  0.5753
14761TIP3    H165698   3.674   3.247   0.509  0.6852  2.7796 -1.2498
14761TIP3    H265699   3.526   3.242   0.540  0.8260 -0.4408 -0.7287
14762TIP3   OH265700   4.751   3.909  12.248 -0.2308  0.8370  0.2988
14762TIP3    H165701   4.706   3.868  12.173  0.8168 -0.8057  0.5211
14762TIP3    H265702   4.800   3.837  12.288  0.0103  1.9063  1.9929
14763TIP3   OH265703   1.295   0.453  15.543  0.3344  0.0701  0.3774
14763TIP3    H165704   1.301   0.359  15.527  1.7633  0.0743  0.7081
14763TIP3    H265705   1.243   0.487  15.470 -1.5690 -1.1542  1.0991
14764TIP3   OH265706   4.432   6.554  17.209 -0.6304  0.0767 -0.8867
14764TIP3    H165707   4.490   6.514  17.144  1.3757  0.2224  0.7217
14764TIP3    H265708   4.396   6.481  17.258 -1.4119  0.0171 -1.5240
14765TIP3   OH265709   6.321   2.468  11.168 -0.4451  0.4558  0.4584
14765TIP3    H165710   6.262   2.542  11.168  0.9058  1.5959 -0.5247
14765TIP3    H265711   6.406   2.504  11.141  0.1295 -1.5247 -0.6711
14766TIP3   OH265712   3.120   2.688  15.088  0.5054  0.5979 -0.0031
14766TIP3    H165713   3.203   2.674  15.042  0.0596 -0.4777 -0.5214
14766TIP3    H265714   3.080   2.762  15.043  0.1003 -0.4043 -1.3649
14767TIP3   OH265715   2.875   0.454  16.233 -0.7856 -0.3525  0.3119
14767TIP3    H165716   2.934   0.511  16.182 -0.7183  0.2804  1.0745
14767TIP3    H265717   2.933   0.403  16.288 -0.9390  0.5216  1.3197
14768TIP3   OH265718   2.035   0.735   2.798 -0.4550 -0.1494  0.1856
14768TIP3    H165719   1.979   0.733   2.720 -1.3081  1.0520  0.7334
14768TIP3    H265720   2.068   0.825   2.801 -0.1643 -0.2758  1.0141
14769TIP3   OH265721   2.476   6.401  13.706 -0.1046 -0.1569  0.3546
14769TIP3    H165722   2.427   6.319  13.696 -0.4125  0.0715 -0.0067
14769TIP3    H265723   2.418   6.469  13.672  0.2494  0.1865  0.4222
14770TIP3   OH265724   4.435   6.768  13.667  1.0620 -0.1714  0.1701
14770TIP3    H165725   4.408   6.677  13.659  1.0348 -0.0980 -0.6610
14770TIP3    H265726   4.453   6.780  13.760  0.9671 -0.9958  0.2981
14771TIP3   OH265727   2.639   2.325  10.593  0.3926  0.0624 -0.0751
14771TIP3    H165728   2.594   2.408  10.606  2.8153  1.6702 -1.1803
14771TIP3    H265729   2.589   2.281  10.524 -0.2751  1.1400 -0.3103
14772TIP3   OH265730   0.862   6.131  15.450 -0.2667  0.3285  0.9102
14772TIP3    H165731   0.795   6.111  15.516 -1.3098  2.1505  0.4655
14772TIP3    H265732   0.838   6.078  15.374 -1.1719  0.8880  0.7930
14773TIP3   OH265733   2.007   6.324  13.983  0.2296  0.4402 -0.1364
14773TIP3    H165734   1.962   6.307  13.900 -2.6951  1.9529  1.0133
14773TIP3    H265735   1.938   6.324  14.049  2.0168  2.1221  1.9104
14774TIP3   OH265736   1.384   4.895   2.374  0.0396 -0.2431  0.1750
14774TIP3    H165737   1.389   4.801   2.360 -0.9855 -0.2546 -0.2057
14774TIP3    H265738   1.345   4.929   2.293  2.0285  0.7331 -0.4476
14775TIP3   OH265739   6.231   2.956  12.452 -0.1886  0.0062  0.5440
14775TIP3    H165740   6.244   3.050  12.468  0.2948 -0.2726  1.8963
14775TIP3    H265741   6.300   2.933  12.390 -0.0502  0.4588  0.5206
14776TIP3   OH265742   5.585   4.091  16.115  0.1890  0.1615 -0.0636
14776TIP3    H165743   5.660   4.037  16.092  0.2735 -0.3204  1.2772
14776TIP3    H265744   5.615   4.181  16.101  0.7912 -0.0531 -0.1883
14777TIP3   OH265745   6.383   4.574  16.183 -0.2534 -0.2291  0.1215
14777TIP3    H165746   6.463   4.586  16.132 -1.2666  0.3352 -1.4033
14777TIP3    H265747   6.326   4.521  16.127 -1.5387  0.7179  0.4747
14778TIP3   OH265748   0.236   4.773   2.732 -0.1112  0.1956 -0.0941
14778TIP3    H165749   0.265   4.707   2.669 -1.1168 -0.8276  0.4686
14778TIP3    H265750   0.231   4.725   2.815 -2.6327  0.4815 -0.0261
14779TIP3   OH265751   6.565   5.122   5.952 -0.8138 -0.1252  0.0850
14779TIP3    H165752   6.598   5.035   5.971  0.2663  0.5260  1.4016
14779TIP3    H265753   6.593   5.175   6.027 -1.6268  1.3022 -0.5764
14780TIP3   OH265754   4.414   1.878  11.290 -0.0450  0.3977 -0.0915
14780TIP3    H165755   4.401   1.973  11.284  0.5710  0.4072 -2.8592
14780TIP3    H265756   4.509   1.867  11.291 -0.1150 -0.1882  1.0895
14781TIP3   OH265757   3.756   4.682   6.250  0.3196  0.3430  0.9793
14781TIP3    H165758   3.851   4.668   6.248  0.2635 -0.0560 -1.1274
14781TIP3    H265759   3.745   4.771   6.214 -0.1800 -0.5632 -1.3018
14782TIP3   OH265760   2.794   1.133   6.199  0.2223  0.1125 -0.2660
14782TIP3    H165761   2.770   1.199   6.134 -1.3223 -0.7213 -0.6139
14782TIP3    H265762   2.889   1.136   6.203  0.2081  1.9961 -0.6284
14783TIP3   OH265763   3.281   5.159   2.705  0.1192  0.3249  0.1489
14783TIP3    H165764   3.310   5.162   2.796  1.1027  1.0053 -0.1582
14783TIP3    H265765   3.343   5.217   2.659  1.3541 -2.0598 -1.4064
14784TIP3   OH265766   6.527   5.791   2.293 -0.0979 -0.3705 -0.2859
14784TIP3    H165767   6.531   5.887   2.294  1.7304 -0.3731 -1.8102
14784TIP3    H265768   6.526   5.767   2.386  1.1379  1.1007  0.1650
14785TIP3   OH265769   2.476   2.370  13.267 -0.2964 -0.7600  0.0299
14785TIP3    H165770   2.512   2.444  13.219 -1.5549  0.6808  1.2214
14785TIP3    H265771   2.518   2.293  13.227  4.3435  0.6755  1.4582
14786TIP3   OH265772   6.410   0.030   1.894 -0.5428 -0.0571  0.0795
14786TIP3    H165773   6.367   0.105   1.852 -0.5576  0.5413  1.1223
14786TIP3    H265774   6.402  -0.041   1.830 -2.7943  0.1035  0.0928
14787TIP3   OH265775   3.099   4.656  12.282 -0.5138  0.0837  0.0837
14787TIP3    H165776   3.164   4.588  12.266 -0.4355  0.4422 -1.2974
14787TIP3    H265777   3.150   4.733  12.307 -0.3958  0.2777 -0.6983
14788TIP3   OH265778   0.895   4.054  12.815 -0.0750 -0.0171  0.0126
14788TIP3    H165779   0.957   4.110  12.769 -0.9240 -0.5940 -1.9372
14788TIP3    H265780   0.844   4.114  12.869  1.0720  0.6614  0.3665
14789TIP3   OH265781   2.521   0.138  12.565  0.2806 -0.2782 -0.7230
14789TIP3    H165782   2.575   0.168  12.492 -0.1001  0.1150 -0.8510
14789TIP3    H265783   2.563   0.058  12.596  0.4151 -0.4799 -1.4079
14790TIP3   OH265784   3.463   0.206   3.594 -0.1045  0.1059 -0.4432
14790TIP3    H165785   3.531   0.209   3.528 -1.4182  2.7760 -1.8503
14790TIP3    H265786   3.508   0.222   3.677  0.9815  2.3310 -1.3940
14791TIP3   OH265787   6.157   2.870   1.978  0.3970  0.5784  0.2120
14791TIP3    H165788   6.197   2.913   1.902 -1.4781 -1.1493 -1.9022
14791TIP3    H265789   6.084   2.820   1.941  0.5539 -1.8856  2.9223
14792TIP3   OH265790   4.755   2.593  14.789 -1.0478  0.1717  1.1504
14792TIP3    H165791   4.664   2.620  14.796 -1.1494  1.2641 -2.3711
14792TIP3    H265792   4.803   2.673  14.769  0.5943 -0.5299  2.0287
14793TIP3   OH265793   3.931   4.507   2.331 -0.2588  0.4062 -0.2797
14793TIP3    H165794   3.938   4.425   2.379 -1.4073 -0.1657 -1.0429
14793TIP3    H265795   3.852   4.549   2.367 -0.0935  0.8307 -0.4030
14794TIP3   OH265796   6.190   6.751   0.855 -0.5150 -0.1122 -0.2812
14794TIP3    H165797   6.110   6.782   0.897 -1.6317 -1.7806 -1.0901
14794TIP3    H265798   6.211   6.820   0.792 -1.0576  0.5477  0.2369
14795TIP3   OH265799   6.358   0.975   4.585  0.4503 -0.3333 -0.5233
14795TIP3    H165800   6.377   0.919   4.661 -1.2130  0.5743  0.6151
14795TIP3    H265801   6.316   0.916   4.522  0.1027 -0.6975  0.0414
14796TIP3   OH265802   3.972   3.670  13.371 -0.0094  0.4941  0.0866
14796TIP3    H165803   3.919   3.728  13.317 -0.0849 -0.0401 -0.4275
14796TIP3    H265804   3.912   3.640  13.440 -1.1822 -1.9901 -1.8234
14797TIP3   OH265805   5.040   2.510  14.109 -0.5164  0.2553 -0.2306
14797TIP3    H165806   5.003   2.458  14.180  1.0049  0.0217  0.4193
14797TIP3    H265807   5.124   2.540  14.142 -0.5598  1.6347 -1.2770
14798TIP3   OH265808   0.787   0.835   2.015 -0.8559  0.5212  0.1088
14798TIP3    H165809   0.789   0.740   1.998  1.0032  0.7715 -1.3873
14798TIP3    H265810   0.802   0.843   2.109  3.8013 -0.6377 -0.3020
14799TIP3   OH265811   2.444   1.852  16.544 -0.0613 -0.4894  0.5678
14799TIP3    H165812   2.408   1.941  16.549 -0.6200 -0.6670 -0.1373
14799TIP3    H265813   2.538   1.864  16.532 -0.1067  0.0008  0.6896
14800TIP3   OH265814   1.719   1.888  14.415 -0.1765 -0.2887  0.4735
14800TIP3    H165815   1.627   1.886  14.441 -1.1406  2.1319 -2.1711
14800TIP3    H265816   1.767   1.876  14.497 -2.8017 -0.7086  2.0949
14801TIP3   OH265817   4.976   3.311   0.767  0.3184  0.5771 -0.0832
14801TIP3    H165818   5.009   3.222   0.770 -0.5678  0.2540  0.4461
14801TIP3    H265819   5.036   3.361   0.823 -0.1106 -0.0174  0.9356
14802TIP3   OH265820   1.720   3.257   2.210  0.3184  0.2830  0.2474
14802TIP3    H165821   1.777   3.333   2.212  0.3227  0.2550  1.2840
14802TIP3    H265822   1.681   3.259   2.122 -0.6573  2.2037  0.6591
14803TIP3   OH265823   0.015   6.352   5.142  0.2543 -0.0116  0.1982
14803TIP3    H165824   0.089   6.400   5.181  1.2442 -0.3682 -1.1821
14803TIP3    H265825   0.028   6.261   5.171  2.2573 -0.7391 -2.5720
14804TIP3   OH265826   0.305   3.229  11.438  0.3748  0.1378  0.0446
14804TIP3    H165827   0.303   3.145  11.482  0.9690  0.3224  0.4371
14804TIP3    H265828   0.213   3.257  11.435  0.4642  0.9512  2.7756
14805TIP3   OH265829   3.277   5.240  14.601  0.1637 -0.0336 -0.0840
14805TIP3    H165830   3.343   5.297  14.641  0.0247 -0.3090  0.5498
14805TIP3    H265831   3.283   5.259  14.508  0.0295  1.1195  0.1315
14806TIP3   OH265832   2.339   1.990   1.638  0.0372 -0.1120 -0.3472
14806TIP3    H165833   2.249   1.974   1.612 -0.4479  2.5378 -0.5383
14806TIP3    H265834   2.384   1.907   1.622 -2.1830 -1.2495 -0.9814
14807TIP3   OH265835   3.446   2.807  11.985 -0.3144 -0.2213 -0.2832
14807TIP3    H165836   3.517   2.860  12.022  0.0051 -0.9096  0.0986
14807TIP3    H265837   3.482   2.772  11.903 -0.4864  0.0542 -0.4789
14808TIP3   OH265838   1.854   5.648   4.677 -0.5207 -0.1051 -1.3294
14808TIP3    H165839   1.906   5.583   4.629 -1.5107 -1.2510 -0.8963
14808TIP3    H265840   1.763   5.618   4.667 -0.7788 -0.3729  1.1822
14809TIP3   OH265841   5.374   4.058   2.951 -0.3793 -0.3229 -0.9514
14809TIP3    H165842   5.410   4.103   3.028 -0.2283 -2.4688  0.3409
14809TIP3    H265843   5.307   4.000   2.987 -0.8551 -0.8253 -2.5676
14810TIP3   OH265844   6.680   2.056  11.980  0.2742 -0.2204 -0.7740
14810TIP3    H165845   6.596   2.012  11.985  0.8231 -1.3036 -0.8556
14810TIP3    H265846   6.660   2.149  11.996 -0.8207 -0.5668 -0.0674
14811TIP3   OH265847   5.801   1.288   1.880 -0.5361 -0.1745  0.5257
14811TIP3    H165848   5.805   1.344   1.958 -0.8401  0.7301 -0.0894
14811TIP3    H265849   5.806   1.349   1.806 -1.7719 -0.8810 -0.1724
14812TIP3   OH265850   4.617   3.861   2.818 -0.1644 -0.5766 -0.2042
14812TIP3    H165851   4.676   3.806   2.870  1.2121  0.0749 -1.0162
14812TIP3    H265852   4.610   3.815   2.735  1.4848  0.6906 -1.1117
14813TIP3   OH265853   5.482   3.607   0.552 -0.3776 -0.3881 -0.0034
14813TIP3    H165854   5.555   3.546   0.541 -0.5264 -0.5996  0.1714
14813TIP3    H265855   5.520   3.685   0.592  0.3571  0.7334 -2.6494
14814TIP3   OH265856   5.166   3.784   0.925 -0.3001 -0.0809 -0.1182
14814TIP3    H165857   5.229   3.717   0.902 -0.4520 -0.1613 -0.3072
14814TIP3    H265858   5.180   3.854   0.861  0.8626  0.7269  0.9700
14815TIP3   OH265859   2.458   0.747   2.960  0.2338  0.3264 -0.2970
14815TIP3    H165860   2.508   0.802   3.020 -0.9281  0.2203  0.8083
14815TIP3    H265861   2.396   0.807   2.919  1.4963  0.5446 -1.9905
14816TIP3   OH265862   1.012   6.438  15.110  0.1676  0.1150  0.4209
14816TIP3    H165863   0.971   6.512  15.066  0.1443  0.7951  1.5491
14816TIP3    H265864   0.988   6.362  15.057 -1.4325  0.6625  0.3200
14817TIP3   OH265865   2.951   5.170  11.446 -0.3382 -0.2807 -0.0834
14817TIP3    H165866   2.994   5.198  11.366  1.3598 -4.1752 -0.7734
14817TIP3    H265867   2.868   5.217  11.447  1.7986  3.9899 -1.1930
14818TIP3   OH265868   0.870   6.363   1.503  0.0586 -0.1217 -0.3345
14818TIP3    H165869   0.780   6.390   1.518  0.3254  1.2709 -1.1062
14818TIP3    H265870   0.914   6.441   1.470  1.8330 -0.4293  1.0825
14819TIP3   OH265871   0.635   1.471   5.786  0.2924 -0.1233  0.2026
14819TIP3    H165872   0.652   1.507   5.873  1.2476 -0.6539  0.2530
14819TIP3    H265873   0.660   1.379   5.793 -1.1625 -0.5809 -0.1901
14820TIP3   OH265874   5.385   5.449   1.457 -0.6965  0.3906 -0.3246
14820TIP3    H165875   5.428   5.364   1.469 -1.5879  0.1903  1.8169
14820TIP3    H265876   5.293   5.427   1.442 -1.0828  0.9690  1.0739
14821TIP3   OH265877   2.758   3.936  11.840 -0.2918 -0.5625 -0.0679
14821TIP3    H165878   2.736   3.913  11.931 -0.6318 -1.3211 -0.3274
14821TIP3    H265879   2.845   3.900  11.826  0.4929  1.0417  0.4652
14822TIP3   OH265880   3.748   4.434   1.821  0.2032 -0.3885 -0.6053
14822TIP3    H165881   3.726   4.357   1.875  3.5643 -0.4592  0.9262
14822TIP3    H265882   3.826   4.407   1.772  0.8259  1.6683 -0.8494
14823TIP3   OH265883   1.866   3.935   4.380  0.2077  0.4013  0.4278
14823TIP3    H165884   1.798   3.918   4.315 -2.3856  1.7617  2.5883
14823TIP3    H265885   1.819   3.939   4.464  2.8499  2.1175  1.9758
14824TIP3   OH265886   1.368   0.096  12.384  0.0429  0.3762 -0.6697
14824TIP3    H165887   1.277   0.066  12.377  0.0834 -0.4568  1.4792
14824TIP3    H265888   1.419   0.025  12.346 -0.1033 -0.4693  0.6186
14825TIP3   OH265889   6.367   4.325  14.777  0.3350  0.1887  0.8754
14825TIP3    H165890   6.378   4.390  14.708  1.8036 -0.2962  0.6246
14825TIP3    H265891   6.281   4.286  14.761 -0.8085  2.3622  1.3158
14826TIP3   OH265892   3.474   4.970   1.835  0.2794  0.5340  0.2914
14826TIP3    H165893   3.417   5.044   1.816 -1.3806 -0.7683 -0.0090
14826TIP3    H265894   3.458   4.950   1.927  1.7523  1.3744  0.7546
14827TIP3   OH265895   0.908   2.319  13.660 -0.4872  0.4589  0.3337
14827TIP3    H165896   0.993   2.349  13.627 -1.1371  2.2450  0.1657
14827TIP3    H265897   0.911   2.224  13.653  1.2341  0.5336 -0.3045
14828TIP3   OH265898   0.831   0.995  11.537 -0.1014  0.8662 -0.0259
14828TIP3    H165899   0.835   1.058  11.465  3.6272  3.0636  1.8175
14828TIP3    H265900   0.838   1.049  11.616  2.0308 -1.7544  1.7200
14829TIP3   OH265901   6.003   2.306   0.196 -1.0501  0.1392 -0.2287
14829TIP3    H165902   5.916   2.343   0.183 -1.1516 -0.0944 -0.2040
14829TIP3    H265903   5.990   2.211   0.196 -0.9835  0.1070  1.0148
14830TIP3   OH265904   1.637   0.821   5.460 -0.4755  0.0249 -0.0471
14830TIP3    H165905   1.579   0.745   5.473 -0.0052 -0.3289 -0.0120
14830TIP3    H265906   1.656   0.821   5.366 -2.0731  1.2781 -0.4335
14831TIP3   OH265907   3.394   2.877   2.966  0.0058 -0.1982 -0.0554
14831TIP3    H165908   3.409   2.812   3.034  0.0237  0.4374  0.5626
14831TIP3    H265909   3.461   2.944   2.981  0.3778 -0.3323 -1.0600
14832TIP3   OH265910   2.445   2.700  14.417  0.0716 -0.5856 -0.4836
14832TIP3    H165911   2.514   2.735  14.473  0.2870 -0.8369 -0.5904
14832TIP3    H265912   2.441   2.760  14.342 -0.2827 -0.1947 -0.1571
14833TIP3   OH265913   4.754   1.994  13.056 -0.3426  0.0510 -0.0072
14833TIP3    H165914   4.763   1.932  13.128  1.3054  0.0842 -0.1392
14833TIP3    H265915   4.739   1.940  12.979  3.1250 -0.4458 -0.4783
14834TIP3   OH265916   0.429   2.427  17.055  0.7032 -0.1247 -0.5082
14834TIP3    H165917   0.432   2.509  17.006  0.5163 -0.1677 -0.5914
14834TIP3    H265918   0.360   2.440  17.120  1.5333  0.2557  0.3247
14835TIP3   OH265919   3.894   3.570   4.619 -0.1290 -0.1208  0.0600
14835TIP3    H165920   3.804   3.553   4.593 -0.1979  0.3345 -0.0114
14835TIP3    H265921   3.930   3.621   4.547  0.5674 -1.3639 -0.5012
14836TIP3   OH265922   2.854   6.414  14.603 -0.1626 -0.2722 -0.7387
14836TIP3    H165923   2.789   6.485  14.603  0.7522  0.6372  0.8803
14836TIP3    H265924   2.803   6.334  14.600 -1.2430  0.4261 -2.3234
14837TIP3   OH265925   6.079   3.036  10.591 -0.0776  0.3888  0.1675
14837TIP3    H165926   6.158   3.090  10.599  0.1232  0.2122 -0.5091
14837TIP3    H265927   6.019   3.089  10.538 -1.1164  1.2695  2.1460
14838TIP3   OH265928   1.903   5.204  15.440  0.2115 -0.2246 -0.2019
14838TIP3    H165929   1.842   5.214  15.367 -1.4286 -1.4736  0.9006
14838TIP3    H265930   1.964   5.136  15.411 -0.2767 -0.5332 -0.5210
14839TIP3   OH265931   3.217   2.189  14.393  0.4589 -0.8127  0.0310
14839TIP3    H165932   3.305   2.222  14.376  0.2702 -0.4860 -0.3483
14839TIP3    H265933   3.173   2.261  14.438  0.0993 -0.5989 -0.6430
14840TIP3   OH265934   2.320   4.812  12.836 -0.4359 -0.3285  0.4911
14840TIP3    H165935   2.270   4.864  12.773  0.2339  0.8317  0.8787
14840TIP3    H265936   2.358   4.877  12.896  0.9428 -1.2147  0.6219
14841TIP3   OH265937   1.861   4.501   5.468  0.0735 -0.4067 -0.2200
14841TIP3    H165938   1.786   4.501   5.408 -0.4177  0.2128  0.3666
14841TIP3    H265939   1.839   4.435   5.534 -0.4742  0.4856  0.5346
14842TIP3   OH265940   4.627   4.046   4.652 -0.2396  0.5217  0.3381
14842TIP3    H165941   4.669   4.062   4.567  1.8165 -0.5791  1.0856
14842TIP3    H265942   4.565   3.975   4.635  0.7545 -0.2677 -0.1058
14843TIP3   OH265943   4.856   2.078   0.834 -0.4068  0.1631  0.7619
14843TIP3    H165944   4.764   2.073   0.810 -0.1743  1.0174 -0.4154
14843TIP3    H265945   4.881   1.987   0.850 -1.2925 -0.1495  0.4500
14844TIP3   OH265946   1.485   1.988  11.030  0.7673 -0.5721 -0.4943
14844TIP3    H165947   1.448   2.075  11.014  1.4578 -0.1441  0.1593
14844TIP3    H265948   1.570   2.005  11.070  0.2928 -1.5385  1.0284
14845TIP3   OH265949   0.841   5.214  16.915 -0.4476 -0.9993  0.6043
14845TIP3    H165950   0.872   5.148  16.853  0.3144 -1.1202  1.1015
14845TIP3    H265951   0.908   5.282  16.913 -0.2581 -1.1411  1.4982
14846TIP3   OH265952   0.253   3.524  12.109 -0.8319  0.5004  0.2767
14846TIP3    H165953   0.171   3.555  12.147 -1.4428  0.7186 -1.1707
14846TIP3    H265954   0.227   3.472  12.033  0.3554  0.0754  0.1338
14847TIP3   OH265955   3.349   3.392   4.128 -0.6219 -0.5506  0.2680
14847TIP3    H165956   3.374   3.428   4.042  0.5272  0.3923  0.9654
14847TIP3    H265957   3.266   3.348   4.112 -0.2165 -0.7757 -1.4296
14848TIP3   OH265958   1.826   0.034  11.182  0.3166 -0.0675 -0.1793
14848TIP3    H165959   1.890   0.098  11.214 -0.4407  0.7810 -0.3142
14848TIP3    H265960   1.743   0.063  11.220 -0.7875  1.4590 -3.4363
14849TIP3   OH265961   5.184   3.286   0.012 -0.0319  0.2935 -0.4872
14849TIP3    H165962   5.117   3.351  -0.008  0.8519  0.7508 -2.1852
14849TIP3    H265963   5.170   3.263   0.104  0.4147  3.8487  0.6214
14850TIP3   OH265964   4.781   1.699   3.713 -0.0250  0.0735  0.0430
14850TIP3    H165965   4.757   1.704   3.620 -1.1162  0.1079  0.3139
14850TIP3    H265966   4.855   1.640   3.715  0.0476  0.1131 -0.8625
14851TIP3   OH265967   2.197   3.119  12.127  0.3879 -0.4836 -0.0789
14851TIP3    H165968   2.255   3.189  12.156 -0.0639  1.2669 -3.0195
14851TIP3    H265969   2.112   3.139  12.166  1.1050 -1.7699  2.3552
14852TIP3   OH265970   3.577   0.481   4.121  0.1030  0.2574  0.6695
14852TIP3    H165971   3.542   0.440   4.200 -0.2892 -0.2920  0.2163
14852TIP3    H265972   3.661   0.437   4.105 -0.7031 -0.9808 -0.2878
14853TIP3   OH265973   0.650   6.428  16.839 -0.5417 -0.1088  0.1124
14853TIP3    H165974   0.563   6.400  16.867 -0.4798  0.6176  1.0665
14853TIP3    H265975   0.697   6.346  16.822 -1.1450 -0.5234  0.4161
14854TIP3   OH265976   5.781   3.228  16.442  0.2306 -0.0537 -0.0401
14854TIP3    H165977   5.836   3.168  16.492  0.9760 -0.1846 -0.9948
14854TIP3    H265978   5.755   3.179  16.364 -0.3275  0.3886 -0.1497
14855TIP3   OH265979   0.704   4.690  14.720 -0.4345  0.0861 -0.2646
14855TIP3    H165980   0.798   4.696  14.704 -0.5566  0.2912 -0.9357
14855TIP3    H265981   0.691   4.734  14.805  0.0049  0.5376 -0.4257
14856TIP3   OH265982   4.670   6.231  12.995  0.2194 -0.0233  0.5164
14856TIP3    H165983   4.615   6.212  13.071 -0.2430 -1.1045 -0.0672
14856TIP3    H265984   4.722   6.307  13.021 -1.3681  0.8863  1.1758
14857TIP3   OH265985   0.105   0.585   2.599  0.4171  0.6525 -0.2491
14857TIP3    H165986   0.100   0.591   2.504 -0.0429  0.8888 -0.2136
14857TIP3    H265987   0.163   0.657   2.625  1.0886  0.1719 -0.3959
14858TIP3   OH265988   0.252   1.142   3.247  0.0221  0.1802 -0.3642
14858TIP3    H165989   0.203   1.197   3.309  0.9818 -0.1385  0.7179
14858TIP3    H265990   0.322   1.198   3.216  0.7133 -0.2570  0.3709
14859TIP3   OH265991   1.138   6.220   4.845 -0.2551 -0.7300 -0.0816
14859TIP3    H165992   1.143   6.166   4.767 -0.3911 -1.8442  0.6585
14859TIP3    H265993   1.224   6.212   4.886 -1.1343 -2.7455  1.5255
14860TIP3   OH265994   0.436   1.002   2.695  0.1823  0.0769 -0.1338
14860TIP3    H165995   0.415   0.995   2.788  0.4828  0.4497 -0.0329
14860TIP3    H265996   0.418   0.916   2.659  0.7920 -0.2861  0.4191
14861TIP3   OH265997   5.909   0.426   5.185 -0.3767 -0.0524  0.2051
14861TIP3    H165998   5.882   0.429   5.277 -0.6167 -0.5115  0.1534
14861TIP3    H265999   5.969   0.351   5.179  1.0867  1.0539  0.3525
14862TIP3   OH266000   5.859   4.396  10.871 -0.0654  0.1009  0.5381
14862TIP3    H166001   5.883   4.323  10.814  2.2646  1.0042  0.2603
14862TIP3    H266002   5.809   4.455  10.815 -0.9247 -0.6944  0.4456
14863TIP3   OH266003   4.526   2.914   5.072  0.2870  0.2656  0.3598
14863TIP3    H166004   4.493   2.877   4.991 -1.3986  1.3399  0.5055
14863TIP3    H266005   4.582   2.987   5.044  1.7354 -0.8942  0.1367
14864TIP3   OH266006   0.923   5.084   6.323  0.5550  0.0089  0.3830
14864TIP3    H166007   0.922   5.152   6.255 -1.0678 -1.5343 -1.2473
14864TIP3    H266008   0.965   5.126   6.398  2.3149  1.8589 -1.5016
14865TIP3   OH266009   3.098   1.743  12.586  0.1412  0.0940 -0.2323
14865TIP3    H166010   3.148   1.683  12.531  0.6311  1.7613 -1.6995
14865TIP3    H266011   3.161   1.810  12.612 -0.1199 -0.5500  2.2908
14866TIP3   OH266012   1.698   2.541  10.897  0.4272 -0.4425 -0.1121
14866TIP3    H166013   1.730   2.517  10.810 -2.4341  0.4053 -1.5398
14866TIP3    H266014   1.674   2.458  10.937 -0.3940 -0.7095 -1.1095
14867TIP3   OH266015   2.129   3.545  13.149  0.2519  0.8750  0.5025
14867TIP3    H166016   2.189   3.580  13.082  1.3853 -0.9448  0.5180
14867TIP3    H266017   2.182   3.539  13.228  0.2164 -1.1558  0.4146
14868TIP3   OH266018   2.136   1.018   0.502 -0.5720  0.0333 -0.0737
14868TIP3    H166019   2.160   0.939   0.550 -1.0352  1.0207  1.9150
14868TIP3    H266020   2.219   1.065   0.490 -0.6385  0.6611  1.5428
14869TIP3   OH266021   0.419   3.890   3.755  0.4543 -0.4731 -0.2302
14869TIP3    H166022   0.444   3.837   3.830 -1.1332 -0.6092  0.2375
14869TIP3    H266023   0.323   3.889   3.756  0.3974  1.1309 -1.1047
14870TIP3   OH266024   4.721   4.324   0.133 -0.8698 -0.0611  0.4464
14870TIP3    H166025   4.792   4.263   0.152 -0.2535  0.1249 -1.1076
14870TIP3    H266026   4.756   4.410   0.159 -0.5915 -0.0023 -0.0965
14871TIP3   OH266027   3.544   0.076   1.800  0.3792  0.4251  0.3790
14871TIP3    H166028   3.534   0.012   1.871 -0.8757  0.0333 -0.1146
14871TIP3    H266029   3.630   0.056   1.763  0.6394 -0.0018  1.1689
14872TIP3   OH266030   5.760   5.058  13.100  0.2864  0.2787  0.3927
14872TIP3    H166031   5.698   5.008  13.047  1.0899 -0.1979 -0.1200
14872TIP3    H266032   5.786   5.131  13.044  1.5907 -0.5529 -0.1291
14873TIP3   OH266033   4.629   3.777  12.031  0.7718  0.5479  0.0451
14873TIP3    H166034   4.589   3.829  11.962  2.4942  1.4744 -0.3059
14873TIP3    H266035   4.668   3.702  11.985 -2.5773 -1.7992  0.6415
14874TIP3   OH266036   4.883   5.641  15.728 -0.2315  0.0045 -0.1619
14874TIP3    H166037   4.930   5.699  15.788 -1.1513 -1.5708  2.2377
14874TIP3    H266038   4.833   5.700  15.671 -0.4949  1.5899  1.6320
14875TIP3   OH266039   1.224   2.691  10.984 -0.0365  0.3410  0.2475
14875TIP3    H166040   1.208   2.727  11.072  0.7871 -1.2313  1.0768
14875TIP3    H266041   1.138   2.657  10.957 -0.3378  1.0043  0.3479
14876TIP3   OH266042   2.376   1.176   1.050 -0.2675 -0.5434 -0.2955
14876TIP3    H166043   2.437   1.129   1.107 -1.2553 -1.0100  0.3886
14876TIP3    H266044   2.406   1.267   1.053  0.2869 -0.7377  0.1709
14877TIP3   OH266045   1.659   2.387  15.841  0.1023 -0.0366  0.3104
14877TIP3    H166046   1.589   2.325  15.822 -0.0749  0.3055 -0.1914
14877TIP3    H266047   1.646   2.458  15.777  2.2295 -1.0107 -1.3221
14878TIP3   OH266048   4.498   5.872  15.703 -0.0018  0.6091  0.1039
14878TIP3    H166049   4.513   5.887  15.797  1.2582 -1.0600  0.2169
14878TIP3    H266050   4.548   5.942  15.660  2.3897 -0.6565  0.6603
14879TIP3   OH266051   3.572   0.817   2.491 -0.0108  0.1006 -0.5206
14879TIP3    H166052   3.622   0.822   2.572 -0.7949  2.5131 -0.0958
14879TIP3    H266053   3.637   0.800   2.423  0.6594 -1.9619  0.5480
14880TIP3   OH266054   3.232   6.276  14.105  0.3984 -0.1219  0.2974
14880TIP3    H166055   3.195   6.203  14.154  0.7787 -1.4531 -1.2951
14880TIP3    H266056   3.324   6.278  14.130  0.1367  0.6365  1.2644
14881TIP3   OH266057   3.102   5.859   4.848 -0.1201 -0.7547 -0.4877
14881TIP3    H166058   3.165   5.877   4.918 -2.2227 -0.1554  1.3748
14881TIP3    H266059   3.049   5.787   4.882 -0.5903 -1.1078 -1.9157
14882TIP3   OH266060   2.438   5.454   5.086 -0.1206  0.4725 -0.1383
14882TIP3    H166061   2.378   5.402   5.033 -1.1672 -1.1586  2.4507
14882TIP3    H266062   2.517   5.401   5.093 -0.6338 -0.1791  1.2604
14883TIP3   OH266063   1.348   6.638   1.407 -0.0140 -0.3086  0.4229
14883TIP3    H166064   1.406   6.596   1.344 -1.0495  0.9008 -1.4215
14883TIP3    H266065   1.360   6.732   1.393 -0.8601 -0.0192  1.4787
14884TIP3   OH266066   0.468   4.913  14.986 -0.2526  0.2837 -0.3523
14884TIP3    H166067   0.461   4.993  14.935 -0.6956  0.4877  0.0203
14884TIP3    H266068   0.400   4.921  15.052  0.9413  0.4833  0.9037
14885TIP3   OH266069   5.115   3.703   2.669 -0.7934  0.0965  0.1485
14885TIP3    H166070   5.054   3.765   2.710 -1.2864 -0.4377  0.2290
14885TIP3    H266071   5.150   3.652   2.742  1.0483  1.5021  0.3121
14886TIP3   OH266072   3.216   0.062  15.996  0.0826  0.4722 -0.3698
14886TIP3    H166073   3.132   0.093  15.961  0.2960  1.1163 -0.3275
14886TIP3    H266074   3.203  -0.032  16.010 -0.6404  0.5694 -0.3408
14887TIP3   OH266075   3.505   1.694  11.998 -0.1233  0.4534  0.5638
14887TIP3    H166076   3.601   1.691  12.000 -0.1200  0.6088  0.6431
14887TIP3    H266077   3.485   1.780  11.961 -0.2225 -0.1749 -0.8790
14888TIP3   OH266078   6.036   5.913   4.870 -0.0332 -0.3279 -0.3981
14888TIP3    H166079   5.966   5.848   4.880 -0.2411 -0.2640 -1.3404
14888TIP3    H266080   6.116   5.860   4.868 -0.1070 -0.4593 -0.0308
14889TIP3   OH266081   3.063   4.266   2.218 -0.3005 -0.5137 -0.1503
14889TIP3    H166082   3.094   4.311   2.139  0.7915  0.4876  0.8249
14889TIP3    H266083   2.970   4.251   2.201 -0.3036  0.5560 -1.2370
14890TIP3   OH266084   2.194   4.552  12.930  0.0326  0.4383  0.8338
14890TIP3    H166085   2.228   4.617  12.869 -0.9495  2.0036  1.9027
14890TIP3    H266086   2.103   4.538  12.902 -0.2552  0.7583  1.5915
14891TIP3   OH266087   3.492   1.327   5.494  0.2131  0.0863 -0.4579
14891TIP3    H166088   3.558   1.393   5.469  2.2186 -1.7782 -0.3654
14891TIP3    H266089   3.528   1.286   5.572 -1.8846  0.0653  0.5578
14892TIP3   OH266090   4.403   2.340   3.041 -0.0934  0.7988  0.3592
14892TIP3    H166091   4.364   2.274   2.983  0.6769  0.4561  0.2205
14892TIP3    H266092   4.496   2.340   3.018  0.3624  0.1834  2.0135
14893TIP3   OH266093   1.684   5.431  15.573  0.2932  0.3133 -0.4606
14893TIP3    H166094   1.768   5.476  15.584  0.0495  0.5025  0.7529
14893TIP3    H266095   1.644   5.473  15.497  1.7866 -0.5831 -1.7951
14894TIP3   OH266096   4.207   2.719   4.478  0.4690 -0.0221 -0.4335
14894TIP3    H166097   4.174   2.766   4.554  0.9343 -0.8517  0.3005
14894TIP3    H266098   4.137   2.656   4.456  0.4688  0.0019 -0.5036
14895TIP3   OH266099   3.361   1.208  12.393  0.8520 -0.2543 -0.6226
14895TIP3    H166100   3.334   1.119  12.369  0.7919 -0.3021 -0.3883
14895TIP3    H266101   3.326   1.263  12.323  1.3073 -0.4668 -1.0212
14896TIP3   OH266102   2.960   4.572   5.073 -0.6844 -0.3663  0.3863
14896TIP3    H166103   2.982   4.597   5.163 -1.7349 -2.6056  1.3607
14896TIP3    H266104   3.037   4.525   5.042 -0.2949  0.4661  0.0635
14897TIP3   OH266105   3.283   3.874   3.576 -0.1860  0.0311 -0.0583
14897TIP3    H166106   3.202   3.900   3.532 -2.1132 -1.7252  2.1958
14897TIP3    H266107   3.277   3.779   3.583  2.9448 -0.3594 -1.2948
14898TIP3   OH266108   3.067   0.148   4.206 -0.2609 -0.2166 -0.4080
14898TIP3    H166109   3.104   0.117   4.123  1.1279 -0.5095  0.2981
14898TIP3    H266110   3.064   0.070   4.261 -1.5279 -0.1020 -0.2871
14899TIP3   OH266111   2.640   0.550  15.514 -0.1581  0.7444 -0.2038
14899TIP3    H166112   2.561   0.497  15.514 -0.0386  0.5374  0.7789
14899TIP3    H266113   2.610   0.638  15.491 -0.7606  0.7753  0.6519
14900TIP3   OH266114   3.657   6.264   5.974  0.3211  0.0155 -0.0689
14900TIP3    H166115   3.645   6.343   6.025  1.3320  0.2529 -0.1801
14900TIP3    H266116   3.583   6.208   5.998  0.2035  0.5471  0.8399
14901TIP3   OH266117   2.969   4.058   2.862  0.3180  0.5344 -0.0494
14901TIP3    H166118   2.972   3.963   2.872 -1.6163  0.3218 -1.0687
14901TIP3    H266119   2.997   4.074   2.772 -3.4459  0.4720 -1.3856
14902TIP3   OH266120   3.752   4.088   1.431  0.0061  0.1320  0.4117
14902TIP3    H166121   3.745   4.039   1.349 -0.8350  1.1951 -0.1790
14902TIP3    H266122   3.845   4.089   1.451  0.2987  0.3690 -0.8650
14903TIP3   OH266123   2.990   5.344   1.683  0.4000  0.0975 -0.2720
14903TIP3    H166124   2.965   5.327   1.592 -1.3499 -0.4961  0.2703
14903TIP3    H266125   2.973   5.261   1.728  3.1999 -0.2806  0.2763
14904TIP3   OH266126   1.272   3.182   4.551  0.3838 -0.1204  0.0637
14904TIP3    H166127   1.227   3.250   4.500  0.2966 -0.4665 -0.3257
14904TIP3    H266128   1.202   3.137   4.598  0.2671 -0.9005 -0.8297
14905TIP3   OH266129   4.850   0.700   4.550 -0.0514 -0.0279 -0.2396
14905TIP3    H166130   4.860   0.666   4.461 -0.4056 -0.2998 -0.1779
14905TIP3    H266131   4.848   0.622   4.605  0.3232  0.1478  0.0255
14906TIP3   OH266132   2.323   6.261   5.059 -0.1251 -0.1037  0.1019
14906TIP3    H166133   2.417   6.276   5.071 -0.0401  0.3598 -1.0417
14906TIP3    H266134   2.281   6.329   5.112  0.2010  0.4191 -0.3026
14907TIP3   OH266135   2.889   3.493   3.449 -0.2235 -0.4516  0.0698
14907TIP3    H166136   2.861   3.402   3.449  1.5501 -1.0416  0.6891
14907TIP3    H266137   2.874   3.523   3.539 -0.2975 -0.3072  0.0097
14908TIP3   OH266138   6.353   6.389  15.669  0.2631  0.2833  0.2922
14908TIP3    H166139   6.268   6.363  15.633  0.5534  1.0311 -0.9936
14908TIP3    H266140   6.339   6.478  15.701  0.6751  0.5842 -0.3528
14909TIP3   OH266141   5.638   0.396   4.683  0.7346  0.5175 -0.3375
14909TIP3    H166142   5.607   0.312   4.649  0.8165  0.2466  0.2442
14909TIP3    H266143   5.669   0.376   4.771  2.8978  0.7179 -1.0128
14910TIP3   OH266144   5.401   0.331  13.058 -0.2965  0.0612  0.3586
14910TIP3    H166145   5.381   0.405  13.114 -0.7558  1.6751 -1.8156
14910TIP3    H266146   5.324   0.273  13.067 -0.9041  0.8697  0.4767
14911TIP3   OH266147   5.158   1.111  13.176  0.3530  0.2886  0.4349
14911TIP3    H166148   5.181   1.063  13.097  1.3694  1.1901  0.1598
14911TIP3    H266149   5.064   1.098  13.186  0.0179  0.9721 -1.4871
14912TIP3   OH266150   4.182   1.285  11.786  0.7920 -0.3476 -0.1461
14912TIP3    H166151   4.136   1.265  11.704  0.9838 -1.5640  0.0272
14912TIP3    H266152   4.113   1.299  11.850  0.6412  0.5638 -0.5005
14913TIP3   OH266153   0.525   3.213  11.056  0.1538  0.2044  0.6200
14913TIP3    H166154   0.572   3.137  11.093  1.0018  0.7427  0.6860
14913TIP3    H266155   0.438   3.180  11.036  0.3797 -0.6828  1.0441
14914TIP3   OH266156   0.551   0.921   1.511 -0.2791  0.4609 -0.1038
14914TIP3    H166157   0.507   0.878   1.585 -1.7141 -1.8040 -2.0954
14914TIP3    H266158   0.626   0.865   1.491 -0.2118  0.7419 -0.6784
14915TIP3   OH266159   6.490   0.124   1.176  0.1004 -0.1270 -0.2884
14915TIP3    H166160   6.412   0.070   1.188 -1.7772  2.2382 -1.2207
14915TIP3    H266161   6.501   0.170   1.259  1.2634 -1.2991  0.2479
14916TIP3   OH266162   6.105   1.773  15.624 -0.4415  0.2785  0.0165
14916TIP3    H166163   6.187   1.822  15.628 -1.1460  1.4094  1.3716
14916TIP3    H266164   6.055   1.815  15.554 -0.1492  0.0002 -0.3706
14917TIP3   OH266165   0.291   2.804  16.674  0.0798 -0.4960  0.1929
14917TIP3    H166166   0.214   2.802  16.731  0.1448  0.6724  0.3350
14917TIP3    H266167   0.356   2.752  16.722  0.2132  0.6597  1.3290
14918TIP3   OH266168   0.285   3.752  16.135  0.3692  0.2389 -0.0244
14918TIP3    H166169   0.312   3.709  16.053  0.2771  0.9594 -0.4451
14918TIP3    H266170   0.367   3.771  16.180  0.4234 -0.1109  0.0272
14919TIP3   OH266171   4.195   5.048  13.264  0.3294  0.3799 -0.3095
14919TIP3    H166172   4.202   4.956  13.236 -0.5393  0.4100 -0.6490
14919TIP3    H266173   4.147   5.090  13.193 -0.1946  0.8775  0.3376
14920TIP3   OH266174   2.322   1.221   0.700  0.3741 -0.3553 -0.5846
14920TIP3    H166175   2.365   1.239   0.616 -0.8527  1.8992 -0.7936
14920TIP3    H266176   2.294   1.306   0.732 -0.1959 -1.2923  1.6029
14921TIP3   OH266177   2.469   6.618  14.064  0.5691  0.4606 -0.6651
14921TIP3    H166178   2.543   6.610  14.003  0.9912  1.5678 -0.3168
14921TIP3    H266179   2.415   6.540  14.047  2.7420 -1.3851  0.3305
14922TIP3   OH266180   2.687   4.941  13.050  0.0055  0.0622  0.2850
14922TIP3    H166181   2.598   4.960  13.081 -0.5597  0.9109 -1.6590
14922TIP3    H266182   2.744   4.995  13.105 -0.8876  1.0623  0.2639
14923TIP3   OH266183   4.791   0.132  15.823  0.5263  0.4666  0.3816
14923TIP3    H166184   4.764   0.081  15.747  2.8076 -2.5905  1.4228
14923TIP3    H266185   4.856   0.077  15.867  0.4953  2.7871  3.6793
14924TIP3   OH266186   1.318   4.214   0.364 -0.3247  0.9103 -0.1367
14924TIP3    H166187   1.318   4.298   0.319 -0.4528  1.2654  0.5086
14924TIP3    H266188   1.228   4.182   0.354 -0.4280  1.1224  0.1120
14925TIP3   OH266189   6.123   3.047  15.690  0.2162 -0.2189  0.5660
14925TIP3    H166190   6.206   3.063  15.644 -0.5979 -0.7205 -1.1860
14925TIP3    H266191   6.068   3.005  15.624 -1.7891  1.0569  1.3519
14926TIP3   OH266192   1.090   2.815  17.009 -0.1490  0.0078 -0.3266
14926TIP3    H166193   1.051   2.731  16.985 -0.6418  0.2235 -0.3125
14926TIP3    H266194   1.118   2.854  16.926  2.2261 -1.1649 -0.1492
14927TIP3   OH266195   5.024   0.573   4.258 -0.3444 -0.1989 -0.5979
14927TIP3    H166196   4.960   0.504   4.275  0.6287 -1.3699 -1.4984
14927TIP3    H266197   4.988   0.650   4.301 -1.2413 -1.3687  0.8528
14928TIP3   OH266198   2.225   4.015   1.412 -0.3598 -0.7673 -0.1643
14928TIP3    H166199   2.219   4.082   1.480  1.6853 -1.7084  1.0580
14928TIP3    H266200   2.135   4.004   1.380 -0.9897  1.3953  0.6844
14929TIP3   OH266201   0.334   5.540  14.829 -0.3614 -0.3461 -0.0688
14929TIP3    H166202   0.346   5.587  14.911 -0.9598 -0.2992 -0.0067
14929TIP3    H266203   0.276   5.467  14.851 -0.6861 -0.2190 -0.4881
14930TIP3   OH266204   0.178   4.261  15.947 -0.4746 -0.0996 -0.2335
14930TIP3    H166205   0.157   4.309  15.867 -0.0279 -1.0189 -0.9206
14930TIP3    H266206   0.194   4.171  15.918  1.5826 -0.0713  0.6185
14931TIP3   OH266207   2.808   1.517   3.193 -0.0143  0.0313  0.7842
14931TIP3    H166208   2.754   1.439   3.204  0.0556 -0.1721 -0.2160
14931TIP3    H266209   2.747   1.586   3.168  0.0564  0.0554  0.6760
14932TIP3   OH266210   4.194   4.587   3.225 -0.1170 -0.3795  0.1290
14932TIP3    H166211   4.251   4.561   3.153 -0.9801 -1.2947 -0.2483
14932TIP3    H266212   4.145   4.662   3.191  0.5296  0.1289  0.2997
14933TIP3   OH266213   1.449   6.598  16.713 -0.2540  0.1824  0.1879
14933TIP3    H166214   1.528   6.619  16.762 -0.5944 -0.1879  0.9123
14933TIP3    H266215   1.429   6.677  16.664  1.2962 -0.1254 -1.0401
14934TIP3   OH266216   4.464   6.703   6.189  0.4325 -0.7642  0.0066
14934TIP3    H166217   4.482   6.708   6.283 -0.6828 -0.3798  0.2195
14934TIP3    H266218   4.368   6.701   6.183  0.4932 -1.1252 -1.1078
14935TIP3   OH266219   1.174   0.918   3.523 -0.1505 -0.0877  0.3229
14935TIP3    H166220   1.231   0.841   3.524  0.2499  0.2063  0.6517
14935TIP3    H266221   1.235   0.993   3.521 -0.5324  0.2192 -1.1007
14936TIP3   OH266222   3.953   2.921   1.975  0.1179  0.2798  0.1844
14936TIP3    H166223   3.857   2.918   1.968 -0.0446 -0.6868  2.2488
14936TIP3    H266224   3.971   3.004   2.018  0.2040  0.4086 -0.0993
14937TIP3   OH266225   5.051   5.330  13.196  0.2844 -0.2956  0.0271
14937TIP3    H166226   5.107   5.396  13.154  0.3213 -1.0687 -1.1731
14937TIP3    H266227   5.107   5.253  13.203 -0.4883 -0.9448 -0.8100
14938TIP3   OH266228   4.476   5.036  12.591 -0.0403  0.2192 -0.2337
14938TIP3    H166229   4.567   5.063  12.585  0.1903 -0.4920 -0.0761
14938TIP3    H266230   4.477   4.943  12.568 -0.5485 -0.0852  0.9185
14939TIP3   OH266231   0.371   3.439   5.580  0.2392  0.5113 -0.2417
14939TIP3    H166232   0.363   3.497   5.505  0.4958  0.8497 -0.0146
14939TIP3    H266233   0.284   3.439   5.620 -0.8126 -2.0946 -2.2457
14940TIP3   OH266234   0.246   6.212   3.884 -0.3303 -0.0320  0.1010
14940TIP3    H166235   0.208   6.125   3.872 -2.4372  0.5984  1.5281
14940TIP3    H266236   0.179   6.272   3.850  0.5262  1.0831  0.3089
14941TIP3   OH266237   4.373   2.337   5.983  0.3418  0.3798 -0.1923
14941TIP3    H166238   4.409   2.362   6.068  0.1294 -0.3572  0.1272
14941TIP3    H266239   4.325   2.255   6.001 -3.8485  2.6190  0.0152
14942TIP3   OH266240   1.498   2.580   4.913  0.4500  0.1346  0.5735
14942TIP3    H166241   1.516   2.674   4.914  0.4242  0.1907 -1.2473
14942TIP3    H266242   1.403   2.574   4.927  0.5247  0.3207  1.2357
14943TIP3   OH266243   2.354   3.607  13.872  0.2305 -0.8227  0.0455
14943TIP3    H166244   2.446   3.624  13.887 -0.1640  3.5128 -1.0858
14943TIP3    H266245   2.348   3.589  13.778 -0.1505  1.1477 -0.3726
14944TIP3   OH266246   4.333   2.766  12.344  0.2543 -0.3601 -0.0366
14944TIP3    H166247   4.254   2.792  12.391  0.5872  0.0874  0.2771
14944TIP3    H266248   4.301   2.718  12.268 -0.3960  1.3412 -0.8824
14945TIP3   OH266249   0.659   4.188   0.200  0.5858  0.9476 -0.0536
14945TIP3    H166250   0.650   4.244   0.277 -1.8587  0.1010  0.3653
14945TIP3    H266251   0.717   4.118   0.229 -0.3118  0.6265  1.0599
14946TIP3   OH266252   2.273   1.288  16.797 -0.0188 -0.7226 -0.2451
14946TIP3    H166253   2.217   1.213  16.816 -0.6462 -0.3087 -0.4227
14946TIP3    H266254   2.293   1.281  16.704  0.5889 -1.1066 -0.0899
14947TIP3   OH266255   1.144   3.044  15.725 -0.4773 -0.3561 -0.1226
14947TIP3    H166256   1.143   2.955  15.688  2.4454 -0.7946  0.5905
14947TIP3    H266257   1.198   3.037  15.803  1.2422  2.3366 -0.9375
14948TIP3   OH266258   2.947   1.884  16.841 -1.2419 -0.2961  0.2024
14948TIP3    H166259   2.916   1.952  16.781 -1.5099 -0.2975  0.3372
14948TIP3    H266260   2.882   1.814  16.834 -0.2635 -1.1152 -0.9272
14949TIP3   OH266261   1.198   1.911  12.859 -0.1215 -0.6047 -0.3872
14949TIP3    H166262   1.157   1.958  12.931 -0.2547  0.2860 -1.0326
14949TIP3    H266263   1.287   1.945  12.854 -0.4521  0.1472 -1.3397
14950TIP3   OH266264   2.259   3.129  15.380 -0.0235 -0.0788  0.3944
14950TIP3    H166265   2.203   3.135  15.303 -0.1782  1.7935  0.6003
14950TIP3    H266266   2.337   3.180  15.357  1.3654 -2.1033  0.3495
14951TIP3   OH266267   2.718   6.341  11.081 -0.8194 -0.0077 -0.2303
14951TIP3    H166268   2.744   6.271  11.021  0.9656  3.0380 -3.2799
14951TIP3    H266269   2.792   6.351  11.140 -0.0802  0.8149 -1.2839
14952TIP3   OH266270   3.382   2.105   3.861  0.1419 -0.1854 -0.7294
14952TIP3    H166271   3.310   2.135   3.917  1.4348  2.6213 -0.3682
14952TIP3    H266272   3.420   2.031   3.908 -0.7892  0.0689  0.4723
14953TIP3   OH266273   0.521   6.286   3.920 -0.2470 -0.0918 -0.6841
14953TIP3    H166274   0.530   6.369   3.874  0.1353  0.1731 -0.1415
14953TIP3    H266275   0.430   6.259   3.903 -0.3825  0.4477 -0.8422
14954TIP3   OH266276   4.075   5.827  12.557 -0.0620  0.0093 -0.2843
14954TIP3    H166277   4.065   5.795  12.647 -0.1421  1.0347  0.0905
14954TIP3    H266278   3.986   5.824  12.521  0.0711 -1.0019 -0.5526
14955TIP3   OH266279   4.004   3.525   0.250 -0.6836  0.3906  0.4397
14955TIP3    H166280   4.096   3.534   0.224  0.2321 -1.4123  2.7302
14955TIP3    H266281   3.956   3.526   0.167  1.3069  1.9315 -0.7953
14956TIP3   OH266282   5.458   5.092   0.321 -0.9110  0.4103 -0.0142
14956TIP3    H166283   5.486   5.170   0.370 -1.0976  0.1890  0.4555
14956TIP3    H266284   5.366   5.109   0.301 -0.6976  0.7315 -0.7543
14957TIP3   OH266285   5.481   4.054  13.509  0.1130 -0.3751  0.3735
14957TIP3    H166286   5.450   3.986  13.569 -0.2632  0.4889  1.1881
14957TIP3    H266287   5.529   4.007  13.441 -2.0850 -1.6874 -0.3560
14958TIP3   OH266288   2.507   4.000  12.101 -0.1560  0.0309 -0.0905
14958TIP3    H166289   2.573   4.069  12.109  0.5422 -0.1790 -2.9119
14958TIP3    H266290   2.426   4.046  12.081 -0.3160  0.1583  0.8287
14959TIP3   OH266291   1.341   6.430  12.992 -0.4792 -0.1945  0.0297
14959TIP3    H166292   1.310   6.474  12.913 -0.7573 -1.0050 -0.3283
14959TIP3    H266293   1.323   6.337  12.976  0.6209 -0.5087  0.5120
14960TIP3   OH266294   2.450   5.437   2.219 -0.4325  0.6059 -0.9215
14960TIP3    H166295   2.497   5.406   2.143 -1.0491  1.8287 -1.8425
14960TIP3    H266296   2.441   5.532   2.205 -0.8664  0.7991  0.4878
14961TIP3   OH266297   4.174   4.497  14.961 -0.3021  0.5220 -0.3092
14961TIP3    H166298   4.151   4.466  15.049  1.4493  1.7802  0.6449
14961TIP3    H266299   4.263   4.467  14.948  0.3799  2.5213 -0.5761
14962TIP3   OH266300   1.702   1.979  16.838 -0.0344 -0.1657 -0.3458
14962TIP3    H166301   1.715   1.914  16.907  0.6952  0.9278  0.5959
14962TIP3    H266302   1.613   1.963  16.806 -0.2632 -0.9100  0.6188
14963TIP3   OH266303   1.925   0.290  11.143  0.4042 -0.1636  0.1570
14963TIP3    H166304   2.004   0.324  11.184  0.2474  0.1261  0.2181
14963TIP3    H266305   1.955   0.258  11.058  0.7422 -0.8312  0.5199
14964TIP3   OH266306   3.897   3.043   2.315  0.5437 -0.0410 -0.1565
14964TIP3    H166307   3.970   2.982   2.316  1.2958  0.8334  0.1955
14964TIP3    H266308   3.821   2.990   2.293  1.2090 -1.0530 -0.0657
14965TIP3   OH266309   1.776   2.036  16.319  0.0410 -0.5335 -0.4585
14965TIP3    H166310   1.812   1.980  16.387  1.0934  1.1247  0.4281
14965TIP3    H266311   1.788   2.125  16.352  1.1173  0.3868 -3.0575
14966TIP3   OH266312   0.840   0.252   1.530 -0.0135 -0.2620 -0.3721
14966TIP3    H166313   0.749   0.222   1.538 -0.6456  1.7630  0.9900
14966TIP3    H266314   0.893   0.177   1.556 -1.4935 -0.3990  2.6447
14967TIP3   OH266315   1.913   5.118   2.450  0.2858 -0.1180 -0.0820
14967TIP3    H166316   1.835   5.169   2.425  1.2604  0.3422 -2.4823
14967TIP3    H266317   1.879   5.031   2.469 -0.9055  0.2244 -0.5290
14968TIP3   OH266318   2.997   3.025  11.270 -0.3892 -0.4119 -0.0657
14968TIP3    H166319   3.060   3.005  11.200  0.9166 -0.9284  1.1959
14968TIP3    H266320   2.946   3.098  11.236  1.9530  1.1247 -0.5625
14969TIP3   OH266321   3.096   2.743  13.122 -0.2022  0.3067  0.2766
14969TIP3    H166322   3.086   2.652  13.151  2.5934 -0.6553 -1.3702
14969TIP3    H266323   3.083   2.739  13.027  1.7922  1.2391 -0.0754
14970TIP3   OH266324   1.312   4.978   3.618  0.3581  0.5662 -0.3912
14970TIP3    H166325   1.285   4.895   3.657 -1.9620  1.6793  0.5591
14970TIP3    H266326   1.407   4.978   3.624  0.2703 -0.5912  2.6948
14971TIP3   OH266327   3.287   3.810   3.213  0.3013 -0.3357  0.0504
14971TIP3    H166328   3.279   3.720   3.181  0.1921 -0.9316  1.6638
14971TIP3    H266329   3.333   3.801   3.296  0.0434  1.0893  0.3598
14972TIP3   OH266330   5.599   2.015   0.881 -0.6212  0.1354  0.0941
14972TIP3    H166331   5.603   1.955   0.807  0.3883 -0.1449  0.3568
14972TIP3    H266332   5.538   2.084   0.853  1.5622  1.3708 -1.9953
14973TIP3   OH266333   4.507   3.244   0.146 -0.0700 -0.0729 -0.1786
14973TIP3    H166334   4.533   3.152   0.149  0.0004 -0.0261  1.7546
14973TIP3    H266335   4.564   3.288   0.209 -1.1596  1.0210  0.0924
14974TIP3   OH266336   0.924   1.505  16.975 -1.2717 -0.4615  0.2745
14974TIP3    H166337   0.940   1.468  17.062  1.3028  0.2967  0.1792
14974TIP3    H266338   0.959   1.440  16.915 -0.0574  0.4676 -0.0424
14975TIP3   OH266339   6.700   5.240   1.997  0.3726  0.0356  0.0790
14975TIP3    H166340   6.680   5.146   1.997  0.3971  0.0253 -0.5420
14975TIP3    H266341   6.709   5.262   2.089 -0.5087 -0.3860  0.2770
14976TIP3   OH266342   1.450   6.743   4.873 -1.2760  0.3728 -0.6647
14976TIP3    H166343   1.499   6.678   4.823  0.6966  1.3653 -0.1153
14976TIP3    H266344   1.444   6.819   4.815  1.3041  1.6487  0.5608
14977TIP3   OH266345   0.872   1.598   4.931  0.1388  0.2139  0.0115
14977TIP3    H166346   0.842   1.611   5.021  1.9698  0.5854  0.6024
14977TIP3    H266347   0.946   1.657   4.921  1.2825 -1.3061 -1.0531
14978TIP3   OH266348   3.088   0.851   6.222  0.2114  0.0239  0.3779
14978TIP3    H166349   3.012   0.837   6.167  0.3725 -1.9737  0.5916
14978TIP3    H266350   3.112   0.943   6.207 -1.1827  0.2051 -0.9946
14979TIP3   OH266351   6.275   0.530   2.920  0.2194 -0.9079  0.1321
14979TIP3    H166352   6.317   0.553   3.002 -1.2756  0.7153  0.5016
14979TIP3    H266353   6.184   0.559   2.930 -0.6248 -2.8741 -1.2019
14980TIP3   OH266354   5.022   5.956   3.846  0.4781  0.2036  0.4654
14980TIP3    H166355   4.945   5.932   3.794  0.9097  0.8197 -0.4995
14980TIP3    H266356   5.017   5.901   3.924 -0.5037 -0.3394  0.0375
14981TIP3   OH266357   3.955   3.634  12.066 -0.3255 -0.4842  0.8856
14981TIP3    H166358   3.951   3.728  12.084  1.3300 -0.1345 -0.3279
14981TIP3    H266359   4.041   3.607  12.098  0.0508 -1.1335 -0.5908
14982TIP3   OH266360   4.229   5.564  14.723  0.0925 -0.1812 -0.1258
14982TIP3    H166361   4.276   5.537  14.645 -0.2576 -0.2173 -0.3248
14982TIP3    H266362   4.292   5.553  14.794  0.8611  1.1534 -0.5747
14983TIP3   OH266363   4.596   6.103   3.255 -0.4007  0.4799  0.6282
14983TIP3    H166364   4.595   6.195   3.232 -0.0542  0.5394  0.8476
14983TIP3    H266365   4.536   6.062   3.193  0.2653  0.6818 -0.1737
14984TIP3   OH266366   4.801   4.282  14.140  0.1235 -0.7478 -0.2727
14984TIP3    H166367   4.821   4.343  14.069  0.4360 -2.0607 -1.3500
14984TIP3    H266368   4.735   4.223  14.103  1.6534 -2.6286 -0.1511
14985TIP3   OH266369   4.475   2.823   4.772  0.9223  0.6466  0.1493
14985TIP3    H166370   4.461   2.728   4.778  0.3730  0.7223  0.1041
14985TIP3    H266371   4.447   2.846   4.684 -1.0421  1.1814  0.8679
14986TIP3   OH266372   4.269   2.915   1.152 -0.2653  0.0063 -0.8358
14986TIP3    H166373   4.282   2.981   1.220 -1.3330  1.1488 -1.6868
14986TIP3    H266374   4.246   2.835   1.199  0.9704  0.2412  0.2199
14987TIP3   OH266375   2.950   5.655   4.066 -0.3776  0.6659 -0.2449
14987TIP3    H166376   3.005   5.619   4.136 -1.7026  0.8067  0.9266
14987TIP3    H266377   2.862   5.656   4.104 -1.0577  1.1855 -1.7753
14988TIP3   OH266378   2.343   3.789   5.295 -0.0159  0.4978  0.6210
14988TIP3    H166379   2.301   3.875   5.293  2.9487  2.0743 -1.4876
14988TIP3    H266380   2.337   3.757   5.206  2.9271  0.7859  0.2090
14989TIP3   OH266381   3.336   1.824   4.493 -0.3293 -0.6145  0.2428
14989TIP3    H166382   3.348   1.898   4.433 -0.6599 -0.8868 -0.1614
14989TIP3    H266383   3.248   1.792   4.475 -0.6802 -0.2949  1.3322
14990TIP3   OH266384   1.731   2.979  13.437  0.3991  0.0594 -0.2692
14990TIP3    H166385   1.761   3.046  13.376  1.1585  0.9188  1.0042
14990TIP3    H266386   1.693   3.028  13.510 -0.8486 -0.9546 -0.2037
14991TIP3   OH266387   5.919   5.478   5.083 -0.9462  0.6378  0.2016
14991TIP3    H166388   5.891   5.476   5.175  0.0542 -1.1731  0.5123
14991TIP3    H266389   6.001   5.430   5.082 -0.6102  1.1835 -1.5675
14992TIP3   OH266390   5.222   0.429  12.559  0.2402  0.2559 -0.0777
14992TIP3    H166391   5.163   0.504  12.563 -1.0560 -0.7606  1.9727
14992TIP3    H266392   5.180   0.369  12.498 -2.1323 -1.3114  2.8087
14993TIP3   OH266393   2.009   0.284   0.994 -0.8570  0.2878 -0.3372
14993TIP3    H166394   2.056   0.324   0.921  1.8057  1.9117  2.0795
14993TIP3    H266395   2.051   0.318   1.072 -2.4392 -2.6568  2.0301
14994TIP3   OH266396   3.511   3.584  12.922 -0.5268 -0.7459  0.0702
14994TIP3    H166397   3.602   3.555  12.919 -0.5409 -0.8288  0.3595
14994TIP3    H266398   3.516   3.678  12.939 -0.4463 -0.2313 -2.4850
14995TIP3   OH266399   2.193   6.043  12.825  0.6884 -0.3984  0.0795
14995TIP3    H166400   2.176   5.985  12.900 -1.0661 -0.5648 -0.4232
14995TIP3    H266401   2.253   5.993  12.770  0.5237 -1.0352  0.4673
14996TIP3   OH266402   2.549   3.490  16.452  0.1346 -0.2387  0.1070
14996TIP3    H166403   2.490   3.564  16.464  0.0138 -0.6663  2.8565
14996TIP3    H266404   2.599   3.512  16.373 -2.3359  1.0029 -1.2477
14997TIP3   OH266405   1.400   6.211  13.291  0.2318 -0.1111 -0.3173
14997TIP3    H166406   1.385   6.305  13.296  1.6883  0.2323 -1.7518
14997TIP3    H266407   1.320   6.176  13.252 -0.5670  0.4172  0.7779
14998TIP3   OH266408   3.374   1.996   1.978  0.2536 -0.0017 -0.4054
14998TIP3    H166409   3.464   2.014   2.004 -0.1098  0.5792  0.5200
14998TIP3    H266410   3.325   2.072   2.008 -0.5405 -0.3048 -0.9095
14999TIP3   OH266411   5.425   0.963   0.640  0.2587 -0.2699  0.3303
14999TIP3    H166412   5.347   1.013   0.615 -0.0337 -1.2281 -0.7760
14999TIP3    H266413   5.398   0.912   0.716 -0.0413 -0.2043  0.2703
15000TIP3   OH266414   0.548   2.052   3.224  0.2030  0.3924 -0.2244
15000TIP3    H166415   0.537   2.130   3.169  0.6181  1.1985  0.7951
15000TIP3    H266416   0.641   2.031   3.218 -0.1983 -1.1691 -1.9407
15001TIP3   OH266417   0.121   6.775   3.965 -0.1538  0.8758  0.7679
15001TIP3    H166418   0.041   6.723   3.977 -0.2647  1.0795  0.9217
15001TIP3    H266419   0.094   6.847   3.908  0.0653  0.6184  0.3340
15002TIP3   OH266420   3.968   3.425  16.677  0.1284 -0.0137 -0.0216
15002TIP3    H166421   4.041   3.425  16.739  1.2891  1.8844 -1.2740
15002TIP3    H266422   3.894   3.460  16.727 -0.4441 -3.2487  1.6728
15003TIP3   OH266423   6.492   6.413   1.975 -0.3074 -0.3659 -0.4164
15003TIP3    H166424   6.450   6.457   2.049  0.7343 -0.2805  0.1488
15003TIP3    H266425   6.527   6.485   1.922 -0.3355 -0.4536 -0.5527
15004TIP3   OH266426   4.277   5.860  14.692  0.3587  0.1342  0.3837
15004TIP3    H166427   4.235   5.878  14.608 -0.4613  0.2650  0.8038
15004TIP3    H266428   4.263   5.767  14.707  0.7792  0.0456  0.2313
15005TIP3   OH266429   0.945   6.265   5.045 -0.4431  0.4627  0.1182
15005TIP3    H166430   0.960   6.349   5.088  0.6081  0.8603 -0.9764
15005TIP3    H266431   1.019   6.255   4.986 -0.6715 -1.1394  0.0592
15006TIP3   OH266432   3.137   1.602   2.556  0.6623  0.6471  0.7097
15006TIP3    H166433   3.099   1.535   2.613  0.8439 -0.7706 -0.7610
15006TIP3    H266434   3.089   1.682   2.577 -2.1126 -0.7140 -0.0021
15007TIP3   OH266435   0.617   4.474   4.219 -0.1384  0.2064 -0.2277
15007TIP3    H166436   0.659   4.441   4.140  0.3421  2.0808 -0.8051
15007TIP3    H266437   0.539   4.421   4.229 -0.5411  0.3159 -2.3264
15008TIP3   OH266438   0.070   1.144   0.694  0.0719  0.7977  0.1457
15008TIP3    H166439   0.082   1.070   0.753  0.9455  0.2219 -0.7194
15008TIP3    H266440   0.160   1.169   0.670 -0.2578  1.3886 -0.4796
15009TIP3   OH266441   3.427   4.286   3.429 -0.2499  0.0190 -0.1059
15009TIP3    H166442   3.368   4.242   3.490 -0.6814 -0.5311 -0.9114
15009TIP3    H266443   3.406   4.249   3.344 -0.1427  1.2729 -0.7088
15010TIP3   OH266444   0.603   5.981  13.655 -0.2427 -0.1228 -0.3437
15010TIP3    H166445   0.570   5.898  13.691  1.2777 -1.2673 -1.4247
15010TIP3    H266446   0.605   6.040  13.729 -0.6811 -1.2829  0.6316
15011TIP3   OH266447   0.090   3.730   1.298 -0.3948 -0.3117  0.1503
15011TIP3    H166448   0.044   3.670   1.356  0.7883 -2.2054 -0.7343
15011TIP3    H266449   0.178   3.736   1.334 -0.3745  0.5862 -0.0153
15012TIP3   OH266450   6.520   0.043  13.029 -0.5902  0.2337  0.1308
15012TIP3    H166451   6.463   0.052  13.105 -1.3027  1.1996 -0.4902
15012TIP3    H266452   6.609   0.040  13.065 -0.8241  1.9120  0.9364
15013TIP3   OH266453   3.440   1.114  16.926  0.3554 -0.8403  0.4835
15013TIP3    H166454   3.521   1.157  16.898 -1.2052  0.8421 -1.7707
15013TIP3    H266455   3.422   1.049  16.858 -0.5634 -0.6631  0.5421
15014TIP3   OH266456   2.986   5.250   3.923 -0.4718 -0.5277  0.4716
15014TIP3    H166457   3.012   5.342   3.912 -0.3516 -0.2986  2.4394
15014TIP3    H266458   3.068   5.201   3.916 -0.2653 -0.3037  1.2275
15015TIP3   OH266459   5.230   4.219  13.888 -0.1806 -0.0991  0.4163
15015TIP3    H166460   5.152   4.214  13.833 -0.3828  1.3736  0.5220
15015TIP3    H266461   5.221   4.145  13.948 -0.6287 -0.9419 -0.6482
15016TIP3   OH266462   4.163   1.118  15.238 -0.0164  0.0738  0.2019
15016TIP3    H166463   4.077   1.076  15.228 -0.3353  0.6822  0.3478
15016TIP3    H266464   4.220   1.049  15.271 -0.2697 -0.5300 -0.5972
15017TIP3   OH266465   5.511   2.759   3.640 -0.4327  0.0679  0.0543
15017TIP3    H166466   5.540   2.699   3.570 -0.2544  0.3194 -0.0886
15017TIP3    H266467   5.588   2.770   3.695 -0.9123 -1.1073  0.9991
15018TIP3   OH266468   5.906   3.089   2.402  0.5495 -0.1085 -0.3423
15018TIP3    H166469   5.961   3.030   2.350  0.2232  0.5713 -1.4995
15018TIP3    H266470   5.947   3.175   2.391  0.1380  0.1387  0.0502
15019TIP3   OH266471   5.233   4.172  13.362 -0.1968  0.4832 -0.1317
15019TIP3    H166472   5.295   4.122  13.416  0.6731 -0.5329 -1.9644
15019TIP3    H266473   5.188   4.105  13.310 -0.4519  1.4546 -1.1988
15020TIP3   OH266474   1.117   1.795  14.878  0.2365  0.1413 -0.5032
15020TIP3    H166475   1.105   1.766  14.787  1.8220  0.2534 -0.7862
15020TIP3    H266476   1.159   1.881  14.869 -3.5632  2.2758  0.3113
15021TIP3   OH266477   0.194   4.216   0.470  0.1731 -0.5638 -0.2155
15021TIP3    H166478   0.108   4.204   0.429  0.4117 -1.0480 -0.5895
15021TIP3    H266479   0.255   4.178   0.407  0.6568 -0.2716  0.0740
15022TIP3   OH266480   6.016   5.618   3.626 -0.0224  0.6792  0.8961
15022TIP3    H166481   5.991   5.710   3.617 -2.5487  0.3843  3.3499
15022TIP3    H266482   6.017   5.584   3.537 -0.1601  2.8064  0.0274
15023TIP3   OH266483   0.058   2.939  16.486 -0.1915  0.4409 -0.1560
15023TIP3    H166484   0.021   3.026  16.470  1.4878  1.2801  0.2778
15023TIP3    H266485   0.032   2.918  16.576 -2.9153 -0.7830 -1.1184
15024TIP3   OH266486   0.882   3.370   1.088  0.1409 -0.1972 -0.2092
15024TIP3    H166487   0.854   3.366   1.179 -1.7954 -1.2251 -0.7851
15024TIP3    H266488   0.804   3.400   1.040  0.9718 -0.1283 -1.5802
15025TIP3   OH266489   5.716   1.935  16.269  0.0612 -0.4010 -0.4349
15025TIP3    H166490   5.627   1.910  16.295  0.2112  0.8126  1.4459
15025TIP3    H266491   5.773   1.881  16.324  0.5013 -0.5702 -1.0382
15026TIP3   OH266492   0.550   4.331   1.656  0.4557  0.1545 -0.0208
15026TIP3    H166493   0.537   4.398   1.723  1.2004 -0.7117  1.0327
15026TIP3    H266494   0.641   4.302   1.668  0.4636 -0.3456 -1.1159
15027TIP3   OH266495   5.903   0.427  14.142  0.3909 -0.1467 -0.2238
15027TIP3    H166496   5.954   0.431  14.223  0.1995  0.9159 -0.1516
15027TIP3    H266497   5.960   0.466  14.076 -0.1894  0.7275 -0.2119
15028TIP3   OH266498   0.688   5.424   2.805  0.2606  0.0225 -0.0598
15028TIP3    H166499   0.682   5.503   2.751 -0.1178  0.7142  0.9760
15028TIP3    H266500   0.661   5.452   2.892 -1.0248 -1.4950  0.0781
15029TIP3   OH266501   2.441   1.478   0.346  1.0655 -0.1834 -0.4066
15029TIP3    H166502   2.433   1.536   0.422  3.1227  0.1970 -0.4286
15029TIP3    H266503   2.399   1.526   0.275  3.8263  1.9903 -0.7431
15030TIP3   OH266504   3.230   2.687  16.461 -0.3694  0.0388  0.2426
15030TIP3    H166505   3.297   2.637  16.415 -0.5390 -1.4713  1.5487
15030TIP3    H266506   3.147   2.646  16.434 -0.5635  0.1229  0.7012
15031TIP3   OH266507   3.607   2.946  16.272  0.5987  0.2269 -0.3572
15031TIP3    H166508   3.586   2.936  16.365 -0.7018  0.5733 -0.5886
15031TIP3    H266509   3.561   3.026  16.246  1.1434  0.2589 -1.2404
15032TIP3   OH266510   0.727   2.193   1.903 -0.2737  0.4999 -0.7101
15032TIP3    H166511   0.677   2.209   1.823 -0.2608  1.1203 -0.5952
15032TIP3    H266512   0.728   2.277   1.949  0.7892  0.4708 -0.6620
15033TIP3   OH266513   1.349   4.077  14.464  0.0078 -0.6380  0.2816
15033TIP3    H166514   1.399   4.008  14.508 -1.7409 -1.5036  1.0531
15033TIP3    H266515   1.338   4.145  14.531  1.3780  0.2549 -0.3516
15034TIP3   OH266516   1.195   5.891   3.537 -0.1196  0.1305  0.7523
15034TIP3    H166517   1.156   5.959   3.483  0.6739  0.1093  0.1261
15034TIP3    H266518   1.264   5.853   3.482 -0.1393 -0.7562  1.3179
15035TIP3   OH266519   4.272   5.399   2.550  0.3994 -0.0237 -0.3873
15035TIP3    H166520   4.245   5.432   2.636 -0.0620 -0.2921 -0.4205
15035TIP3    H266521   4.365   5.380   2.560 -0.0011 -1.7238  0.6217
15036TIP3   OH266522   2.844   5.387  17.299 -0.0698  0.1794  0.3294
15036TIP3    H166523   2.915   5.418  17.355 -1.8479  2.4839  1.4696
15036TIP3    H266524   2.851   5.438  17.219  0.3349 -0.5876 -0.1427
15037TIP3   OH266525   4.635   6.314  12.316 -0.4871  0.3245 -0.6628
15037TIP3    H166526   4.545   6.321  12.348  0.2650 -0.0333  1.7044
15037TIP3    H266527   4.628   6.331  12.222 -2.9644  0.6627 -0.4869
15038TIP3   OH266528   5.672   3.729  15.889  0.2577 -0.0976  0.0689
15038TIP3    H166529   5.651   3.648  15.843  0.6270  0.1378 -0.5213
15038TIP3    H266530   5.587   3.762  15.920 -0.5465  1.4808 -3.3375
15039TIP3   OH266531   0.086   6.480   2.787 -0.7163 -0.5163 -0.2708
15039TIP3    H166532   0.031   6.483   2.708 -0.4018  2.2190 -0.4827
15039TIP3    H266533   0.172   6.510   2.758 -0.2571 -0.6733  0.8792
15040TIP3   OH266534   2.103   0.200  11.526  0.2736 -0.5060 -0.0021
15040TIP3    H166535   2.183   0.165  11.566  0.7919  1.1969  0.5454
15040TIP3    H266536   2.049   0.228  11.600  0.5655  1.2458 -0.4156
15041TIP3   OH266537   5.752   5.605  11.814  0.3654  0.4106 -0.2502
15041TIP3    H166538   5.733   5.679  11.871 -0.9924  1.1150 -1.5541
15041TIP3    H266539   5.785   5.644  11.733 -0.8284 -0.3512 -1.1358
15042TIP3   OH266540   4.781   5.160  15.694  0.4958  0.2367 -0.0296
15042TIP3    H166541   4.706   5.112  15.730  2.0459 -2.0106  0.4225
15042TIP3    H266542   4.748   5.198  15.613 -1.0959 -0.7930  0.0865
15043TIP3   OH266543   2.831   3.982   4.373 -0.0807 -0.6468  0.3662
15043TIP3    H166544   2.779   4.007   4.297  0.7969 -1.2701 -0.4663
15043TIP3    H266545   2.770   3.987   4.447 -0.7766  0.6246 -0.2662
15044TIP3   OH266546   4.069   3.064   4.633  0.1627  0.8829  0.0661
15044TIP3    H166547   4.008   3.114   4.687  0.5391  1.7516 -0.2888
15044TIP3    H266548   4.086   3.121   4.557  0.7423  0.2905 -0.2598
15045TIP3   OH266549   0.545   1.396   1.170  0.5445  0.3243 -0.3724
15045TIP3    H166550   0.530   1.474   1.117  0.0251 -1.2083 -2.6272
15045TIP3    H266551   0.458   1.368   1.198  0.6151 -0.0579 -0.5234
15046TIP3   OH266552   4.828   2.801  16.209 -0.1168 -0.3101 -0.4537
15046TIP3    H166553   4.752   2.764  16.163  0.2236  0.2261 -1.4675
15046TIP3    H266554   4.791   2.840  16.288 -0.7700 -0.8656 -0.4735
15047TIP3   OH266555   4.955   1.140   5.048 -0.0020  0.5405  0.5964
15047TIP3    H166556   4.936   1.152   5.142 -0.0904  1.3682  0.4804
15047TIP3    H266557   5.031   1.196   5.032  0.7766 -0.5471  0.4333
15048TIP3   OH266558   3.800   5.742   4.056 -0.0791  0.2254 -0.0352
15048TIP3    H166559   3.825   5.672   4.117  0.1834  0.8722  0.6137
15048TIP3    H266560   3.704   5.740   4.056 -0.0885 -1.0735 -1.1470
15049TIP3   OH266561   2.102   3.891  11.821  0.1766  0.0940 -0.2113
15049TIP3    H166562   2.114   3.985  11.808  0.9290  0.1613  0.8098
15049TIP3    H266563   2.189   3.854  11.802 -0.0913 -0.3868 -0.5155
15050TIP3   OH266564   4.948   2.788  15.501  0.3223 -0.0533  0.3091
15050TIP3    H166565   4.998   2.846  15.444 -0.5193 -0.1255 -0.5171
15050TIP3    H266566   5.004   2.776  15.577  1.6287 -0.2366 -0.6506
15051TIP3   OH266567   6.558   4.766  10.322 -0.4536  0.2685  0.5575
15051TIP3    H166568   6.615   4.699  10.361 -0.7556  1.1106  2.5264
15051TIP3    H266569   6.539   4.827  10.393 -1.5421  1.5621 -0.7713
15052TIP3   OH266570   6.251   6.372  13.802  0.0978  0.5599 -0.0177
15052TIP3    H166571   6.244   6.402  13.892  0.1576  1.6043 -0.3477
15052TIP3    H266572   6.276   6.280  13.809 -1.1682  0.2690  1.0340
15053TIP3   OH266573   5.192   0.406   5.635 -0.5210 -0.1176  0.0878
15053TIP3    H166574   5.125   0.461   5.594  0.2542  0.0254 -1.0441
15053TIP3    H266575   5.154   0.318   5.635 -0.9985  0.0867  0.1241
15054TIP3   OH266576   5.825   3.114   3.390  0.1183 -0.3980  0.3381
15054TIP3    H166577   5.879   3.188   3.417 -0.0118 -0.8906  2.0358
15054TIP3    H266578   5.763   3.152   3.327 -0.2126  1.0521  1.4725
15055TIP3   OH266579   5.144   4.599   2.755 -0.1836  0.2205  0.5917
15055TIP3    H166580   5.160   4.510   2.723 -3.5723 -0.2052 -0.2954
15055TIP3    H266581   5.108   4.646   2.679  2.9578  2.9854  0.5327
15056TIP3   OH266582   4.267   1.208  17.171 -0.1134  0.0077 -0.2435
15056TIP3    H166583   4.271   1.203  17.076  1.0185 -0.4164 -0.1952
15056TIP3    H266584   4.233   1.296  17.190  0.4741  0.4160 -1.0349
15057TIP3   OH266585   6.283   5.584  16.096 -0.0479  0.4914 -0.2935
15057TIP3    H166586   6.248   5.667  16.129  0.5946  0.1610  1.3020
15057TIP3    H266587   6.218   5.519  16.121  1.8843 -0.2724  3.5237
15058TIP3   OH266588   0.669   5.683   5.793  0.3255 -0.2027  0.1017
15058TIP3    H166589   0.753   5.648   5.762 -0.0527  0.3815 -1.7022
15058TIP3    H266590   0.629   5.609   5.840  1.3981 -0.7980  0.1268
15059TIP3   OH266591   2.385   0.787   5.423  0.1759  0.5101 -0.0321
15059TIP3    H166592   2.433   0.823   5.348  0.5670 -0.0052 -0.0358
15059TIP3    H266593   2.319   0.853   5.443 -0.1039  0.5395 -0.9954
15060TIP3   OH266594   1.084   1.393   3.917  0.4373 -0.2731 -0.0769
15060TIP3    H166595   1.158   1.419   3.863 -0.0795  0.6807 -0.3648
15060TIP3    H266596   1.109   1.309   3.955  1.7685  0.1474  0.0380
15061TIP3   OH266597   4.024   1.989   2.120 -0.0374 -0.2078  0.3247
15061TIP3    H166598   4.055   2.080   2.122 -1.5784  0.4263 -1.4287
15061TIP3    H266599   3.993   1.977   2.030  2.7809 -3.4410 -0.4252
15062TIP3   OH266600   1.030   4.670  12.351  0.1062  0.1345 -0.3908
15062TIP3    H166601   1.071   4.654  12.436 -1.5421 -0.0728  0.4078
15062TIP3    H266602   1.014   4.583  12.315  1.6475  0.2232 -1.3873
15063TIP3   OH266603   3.090   4.977  15.602 -0.4375  0.0731  0.1985
15063TIP3    H166604   3.115   4.888  15.624  0.9647  0.6740  1.2099
15063TIP3    H266605   3.133   4.994  15.518 -2.0781 -0.7166 -0.8513
15064TIP3   OH266606   0.525   1.817  12.214  0.2428  0.4854  0.6556
15064TIP3    H166607   0.484   1.868  12.144  0.2924 -0.0629  0.2230
15064TIP3    H266608   0.519   1.873  12.291 -2.2886  0.0228  0.8683
15065TIP3   OH266609   5.751   4.138   4.359 -0.1040  0.7620 -0.9474
15065TIP3    H166610   5.677   4.176   4.313 -1.2593 -0.3133 -0.0692
15065TIP3    H266611   5.713   4.069   4.414  1.6330 -0.3243 -1.0013
15066TIP3   OH266612   5.380   3.110  13.915  0.7554  0.7959 -0.2352
15066TIP3    H166613   5.399   3.204  13.906 -2.8107  1.5848 -1.0272
15066TIP3    H266614   5.317   3.092  13.846  0.6098 -2.0005  0.5252
15067TIP3   OH266615   0.942   1.961  11.551  0.3118  0.0170  0.2750
15067TIP3    H166616   1.004   1.971  11.624  0.8270 -2.2065  0.2045
15067TIP3    H266617   0.970   2.026  11.487  2.3109 -0.6335  0.4266
15068TIP3   OH266618   0.436   5.671  15.543 -0.3740  0.3143 -0.2151
15068TIP3    H166619   0.388   5.746  15.579  0.6537  0.9452 -0.1301
15068TIP3    H266620   0.474   5.628  15.619 -0.4278  0.0683 -0.3246
15069TIP3   OH266621   1.767   3.407   3.489 -0.1808  0.7755 -0.5252
15069TIP3    H166622   1.817   3.453   3.422  1.1953 -0.6112 -0.5037
15069TIP3    H266623   1.832   3.382   3.555 -1.4124  1.6560  1.1257
15070TIP3   OH266624   3.174   5.600   5.546  0.7668 -0.2085 -0.6038
15070TIP3    H166625   3.107   5.607   5.614  1.9884  1.0616  0.5159
15070TIP3    H266626   3.206   5.689   5.534  0.2724 -0.2966 -3.2295
15071TIP3   OH266627   3.732   0.137  16.270  0.0640 -0.3664  0.3082
15071TIP3    H166628   3.725   0.204  16.338 -0.1217  0.5415 -0.5860
15071TIP3    H266629   3.777   0.180  16.198 -0.6132 -1.0061 -0.5258
15072TIP3   OH266630   2.601   0.708   1.750  0.1763 -0.6785 -0.0608
15072TIP3    H166631   2.540   0.693   1.678  0.6526  1.0020 -0.8846
15072TIP3    H266632   2.575   0.794   1.785  1.1960 -0.5714  0.4598
15073TIP3   OH266633   5.885   1.982  11.007  0.2006  0.4457 -0.6897
15073TIP3    H166634   5.848   2.020  11.087  2.4891  1.0197  0.1718
15073TIP3    H266635   5.868   2.047  10.939 -0.1706  0.7788 -0.2786
15074TIP3   OH266636   4.661   0.770  11.972 -0.2083  0.2614 -0.5527
15074TIP3    H166637   4.615   0.686  11.980  0.7509 -0.4099 -1.7344
15074TIP3    H266638   4.641   0.800  11.883 -0.0877  1.0248 -0.3321
15075TIP3   OH266639   0.403   5.321   0.957 -0.5708  0.7727  0.0626
15075TIP3    H166640   0.496   5.312   0.977  0.1015  1.0673 -2.5398
15075TIP3    H266641   0.378   5.238   0.917 -0.2413  2.0117 -3.0536
15076TIP3   OH266642   1.787   1.621  11.493 -0.8502 -0.7178 -0.1872
15076TIP3    H166643   1.817   1.531  11.509 -0.0610 -0.9785 -2.7680
15076TIP3    H266644   1.868   1.673  11.493 -0.9340 -0.5485 -1.8167
15077TIP3   OH266645   4.156   4.132   6.680  0.1393  0.3222 -0.6026
15077TIP3    H166646   4.194   4.219   6.692 -0.5844  0.7920 -1.5765
15077TIP3    H266647   4.230   4.078   6.652  0.2455  1.1142 -1.9891
15078TIP3   OH266648   1.027   5.415  16.898 -0.3198 -0.3481 -0.8939
15078TIP3    H166649   1.104   5.394  16.952 -0.4581 -0.9348 -0.9170
15078TIP3    H266650   1.049   5.498  16.857 -0.4932  0.4891  0.6165
15079TIP3   OH266651   0.888   4.837  12.875 -0.1547  1.2439  0.6098
15079TIP3    H166652   0.848   4.833  12.788  0.3255 -0.9185  0.4194
15079TIP3    H266653   0.970   4.885  12.862  0.5087 -0.1020 -0.4344
15080TIP3   OH266654   5.545   3.501   5.065 -0.3350 -0.1317  0.3450
15080TIP3    H166655   5.600   3.545   5.130  0.0178  2.2251 -1.3847
15080TIP3    H266656   5.604   3.439   5.022  0.1551  0.1940  0.5382
15081TIP3   OH266657   3.885   5.375  12.426 -0.3403 -0.6210 -0.3098
15081TIP3    H166658   3.800   5.416  12.412 -0.8412 -1.1933  0.8915
15081TIP3    H266659   3.869   5.307  12.492  0.8424 -1.4573 -0.8426
15082TIP3   OH266660   2.413   2.121   4.623 -0.0784  0.0229 -0.4530
15082TIP3    H166661   2.444   2.090   4.538  0.4406  1.7257 -0.9332
15082TIP3    H266662   2.423   2.046   4.681  3.0092 -0.1873 -1.0599
15083TIP3   OH266663   6.325   5.093  13.705 -0.0633 -0.6700  0.7148
15083TIP3    H166664   6.354   5.173  13.749  0.9527 -0.2048 -0.7183
15083TIP3    H266665   6.268   5.050  13.769  2.1423 -0.5823  2.9343
15084TIP3   OH266666   3.031   5.506  13.215  0.4683  0.1096  0.4161
15084TIP3    H166667   2.940   5.534  13.210 -0.1721 -1.6491  1.2119
15084TIP3    H266668   3.067   5.554  13.289  0.0718  0.5149  0.3491
15085TIP3   OH266669   5.461   2.486  17.179  0.5007  0.1710 -0.5042
15085TIP3    H166670   5.481   2.579  17.186  0.4721  0.2477 -1.2794
15085TIP3    H266671   5.506   2.446  17.253  1.3042  0.6887 -0.6938
15086TIP3   OH266672   0.503   1.101   2.055 -0.0981 -0.3678  0.6835
15086TIP3    H166673   0.493   1.135   2.144  0.6339  1.8913 -0.0122
15086TIP3    H266674   0.443   1.155   2.003  2.1358  0.8888 -0.7128
15087TIP3   OH266675   3.316   4.251  13.217  0.7083 -0.2011  0.1592
15087TIP3    H166676   3.245   4.314  13.226 -0.5838 -1.7686  1.5154
15087TIP3    H266677   3.393   4.297  13.251 -0.1682  0.7138  0.9656
15088TIP3   OH266678   0.460   4.888  12.435 -0.1873 -0.1525  0.7304
15088TIP3    H166679   0.419   4.814  12.391  1.2281  0.6017 -2.0638
15088TIP3    H266680   0.514   4.847  12.503  0.1879 -1.6871 -0.4225
15089TIP3   OH266681   5.229   3.618   4.313  0.5539  0.2336  0.0702
15089TIP3    H166682   5.275   3.642   4.233  1.0090  0.7462  0.4807
15089TIP3    H266683   5.277   3.543   4.347  0.4847  0.1460 -0.0242
15090TIP3   OH266684   3.186   4.988  14.076  0.6295  0.1401 -0.5691
15090TIP3    H166685   3.157   4.945  13.995  1.8447 -0.4453 -0.7216
15090TIP3    H266686   3.171   4.923  14.144  0.2175  0.3883 -0.4225
15091TIP3   OH266687   5.720   5.534  12.488 -0.2302 -0.2524  0.0440
15091TIP3    H166688   5.772   5.524  12.408 -0.6421 -0.0258 -0.2548
15091TIP3    H266689   5.630   5.539  12.457 -0.3888 -0.1411  0.5244
15092TIP3   OH266690   0.613   4.979   5.830  0.0519  0.5069 -0.1568
15092TIP3    H166691   0.523   4.972   5.861  0.1651  0.4252  0.1577
15092TIP3    H266692   0.666   4.966   5.908  0.3570 -0.4079 -0.5091
15093TIP3   OH266693   3.390   4.683   1.868  0.3846  0.7523 -0.0013
15093TIP3    H166694   3.444   4.743   1.816 -0.9684  1.6530 -0.4334
15093TIP3    H266695   3.301   4.699   1.837 -0.1712 -0.5088  0.8651
15094TIP3   OH266696   2.831   2.293   0.192 -0.3528  0.2031  0.2756
15094TIP3    H166697   2.790   2.378   0.207 -1.8278  0.5421 -4.2617
15094TIP3    H266698   2.771   2.230   0.231 -0.7669  1.0848  1.0890
15095TIP3   OH266699   3.297   5.022  15.411  0.1048  0.3272  0.3900
15095TIP3    H166700   3.389   5.033  15.386  0.4257  0.0464  1.4237
15095TIP3    H266701   3.288   4.929  15.431 -0.4439  0.3297  0.1941
15096TIP3   OH266702   3.253   0.087  12.836 -0.7490 -0.7267 -0.4668
15096TIP3    H166703   3.229   0.135  12.756  0.4180  1.0371  0.1807
15096TIP3    H266704   3.264  -0.003  12.806 -1.1844 -0.2711 -2.1435
15097TIP3   OH266705   4.965   5.593   2.521 -0.2549  0.6973 -0.1314
15097TIP3    H166706   4.983   5.683   2.497  1.3622  0.9532  1.7742
15097TIP3    H266707   5.026   5.574   2.593 -2.4822 -0.9877  1.4743
15098TIP3   OH266708   5.819   3.090  14.315  0.1004 -0.3291 -0.1947
15098TIP3    H166709   5.776   3.004  14.318 -0.8537  0.0581 -1.8286
15098TIP3    H266710   5.912   3.070  14.329 -0.2080 -1.5209  0.3594
15099TIP3   OH266711   4.230   2.760   5.761  0.1850 -0.4325 -0.1009
15099TIP3    H166712   4.173   2.802   5.825  1.1700 -1.2486  1.3659
15099TIP3    H266713   4.253   2.830   5.700 -1.6973  0.0880 -0.2696
15100TIP3   OH266714   2.536   4.653   2.216  0.1974  0.0928 -0.1810
15100TIP3    H166715   2.492   4.696   2.289  0.1367 -0.9440  0.4124
15100TIP3    H266716   2.627   4.645   2.243  0.1853 -0.2446 -0.2247
15101TIP3   OH266717   0.225   0.676   0.685 -0.2014 -0.0544 -0.2063
15101TIP3    H166718   0.217   0.607   0.751  0.7736 -0.1733 -0.1881
15101TIP3    H266719   0.314   0.665   0.650 -0.3070  0.7144 -0.7399
15102TIP3   OH266720   3.000   4.054   1.757  0.1578 -0.2237  0.3756
15102TIP3    H166721   3.067   4.087   1.817 -1.4127 -0.2556  2.2443
15102TIP3    H266722   2.945   4.130   1.739 -0.5655 -0.6777  0.6340
15103TIP3   OH266723   6.156   6.756  12.632  0.0206 -0.0593 -0.0977
15103TIP3    H166724   6.107   6.682  12.668  0.0189 -0.1615 -0.3101
15103TIP3    H266725   6.173   6.812  12.708 -0.1311 -0.1901  0.0350
15104TIP3   OH266726   0.332   1.223   1.547  0.5537  0.2042 -0.1099
15104TIP3    H166727   0.270   1.235   1.618  0.1865  0.5197 -0.4761
15104TIP3    H266728   0.349   1.311   1.515  0.4553  0.0410 -0.6262
15105TIP3   OH266729   1.156   3.098   0.263 -0.1493  0.4071 -0.4185
15105TIP3    H166730   1.097   3.051   0.203  1.0704 -0.2869 -1.1270
15105TIP3    H266731   1.213   3.149   0.205 -0.9182  2.1742  0.3143
15106TIP3   OH266732   5.316   0.527  12.083  0.0155 -0.7629 -0.0109
15106TIP3    H166733   5.379   0.577  12.136  2.7520 -2.7512 -1.1428
15106TIP3    H266734   5.245   0.507  12.143  0.5331  1.3850  1.4303
15107TIP3   OH266735   3.053   2.279   0.669  0.1916 -0.5703  0.1975
15107TIP3    H166736   3.120   2.340   0.700  0.4804 -0.8471  0.1214
15107TIP3    H266737   2.993   2.333   0.617 -0.5466 -0.0109  1.5786
15108TIP3   OH266738   0.182   4.291   5.138  0.0501 -0.4153 -0.6192
15108TIP3    H166739   0.264   4.304   5.186  0.8536 -1.8500 -1.5217
15108TIP3    H266740   0.177   4.196   5.123 -1.2516 -0.2461 -1.4876
15109TIP3   OH266741   4.670   0.887   5.809  0.3785 -0.1263  0.0091
15109TIP3    H166742   4.612   0.921   5.877 -1.5757  1.1592 -2.1607
15109TIP3    H266743   4.735   0.957   5.796  0.9902 -0.5366  0.7639
15110TIP3   OH266744   4.352   5.087   5.171  0.0558 -0.7037 -0.3229
15110TIP3    H166745   4.375   5.004   5.212  2.7527  0.7088  1.3109
15110TIP3    H266746   4.318   5.141   5.242  0.1860  0.2261 -0.9451
15111TIP3   OH266747   1.856   0.563   4.959 -0.2899  0.1921  0.2427
15111TIP3    H166748   1.897   0.528   5.038 -2.6207  2.4104  2.6258
15111TIP3    H266749   1.772   0.596   4.989 -1.2250  1.2890 -3.2028
15112TIP3   OH266750   1.175   1.894   4.105  0.0350  0.1077  0.1783
15112TIP3    H166751   1.163   1.803   4.080 -1.6631  0.7408 -1.5126
15112TIP3    H266752   1.225   1.933   4.033 -3.5327  1.5764 -1.7435
15113TIP3   OH266753   6.009   0.092  15.780  0.1405  0.0901  0.6085
15113TIP3    H166754   6.101   0.106  15.758 -0.0221  0.6757  0.2811
15113TIP3    H266755   5.972   0.181  15.786  0.0448 -0.0370  2.6892
15114TIP3   OH266756   2.594   6.046  11.868 -0.6945  0.4740  0.3941
15114TIP3    H166757   2.683   6.029  11.899 -0.3824 -0.0240 -0.7278
15114TIP3    H266758   2.600   6.042  11.773 -1.8579  0.7669  0.2871
15115TIP3   OH266759   3.791   0.267  15.107  0.2564  0.4055 -0.6473
15115TIP3    H166760   3.705   0.296  15.135  0.2907  0.5883 -0.7341
15115TIP3    H266761   3.820   0.208  15.177  0.2018  0.6021 -0.4587
15116TIP3   OH266762   1.232   5.009  12.157  0.4011 -0.1995  0.2427
15116TIP3    H166763   1.200   5.014  12.247 -0.1252 -1.1355  0.1222
15116TIP3    H266764   1.315   5.056  12.158 -1.5218  3.5586  0.2613
15117TIP3   OH266765   6.049   4.944   1.146 -0.2894  1.1099 -0.0483
15117TIP3    H166766   6.073   4.858   1.181  0.2468  1.0835 -0.4566
15117TIP3    H266767   5.974   4.926   1.089 -0.1493  0.8955 -0.1702
15118TIP3   OH266768   1.257   3.713   0.114  0.4094 -0.3652  0.1189
15118TIP3    H166769   1.187   3.648   0.112  0.5138 -0.4691 -0.3622
15118TIP3    H266770   1.289   3.717   0.024  0.1264  0.6681  0.0515
15119TIP3   OH266771   2.363   4.778   1.376  0.6724 -0.4783  0.9921
15119TIP3    H166772   2.365   4.814   1.287  2.7609 -1.1083  0.7294
15119TIP3    H266773   2.308   4.839   1.425 -0.5184 -0.1093 -0.7093
15120TIP3   OH266774   1.458   6.218  11.669 -0.0034 -0.3564  0.0292
15120TIP3    H166775   1.416   6.132  11.667  1.9547 -1.3832  0.7380
15120TIP3    H266776   1.404   6.269  11.728  0.7496 -2.2533  2.5408
15121TIP3   OH266777   6.059   1.831   1.246 -0.2021  0.1252 -0.1719
15121TIP3    H166778   6.106   1.902   1.290 -0.4501  1.0532 -1.3488
15121TIP3    H266779   6.102   1.822   1.161  1.0523 -2.4530  0.6151
15122TIP3   OH266780   0.066   5.242  13.090 -0.8433  0.1194 -0.0794
15122TIP3    H166781  -0.017   5.243  13.139 -0.6035 -0.5434  0.3531
15122TIP3    H266782   0.040   5.237  12.998 -1.3286  2.3027 -0.1112
15123TIP3   OH266783   3.786   4.837  11.778 -0.4990 -0.1932 -0.0927
15123TIP3    H166784   3.822   4.749  11.790 -0.4025 -0.0535  0.7262
15123TIP3    H266785   3.721   4.845  11.848  1.3325  1.3361  1.5608
15124TIP3   OH266786   2.539   5.646  15.370  0.4265 -0.3179  0.5011
15124TIP3    H166787   2.569   5.623  15.458  0.6512 -1.6286  0.1053
15124TIP3    H266788   2.552   5.566  15.319 -0.3047  0.2281 -0.5693
15125TIP3   OH266789   4.821   6.157   1.380  0.5985  0.1565 -0.0396
15125TIP3    H166790   4.841   6.128   1.291 -0.6508  1.1395 -0.6689
15125TIP3    H266791   4.740   6.112   1.402  2.3882 -2.4635  1.8349
15126TIP3   OH266792   1.757   6.577   1.057 -0.2301 -0.1253  0.3086
15126TIP3    H166793   1.830   6.514   1.052 -0.7101 -0.5673 -1.8631
15126TIP3    H266794   1.800   6.662   1.062  0.4245 -0.5083  2.2023
15127TIP3   OH266795   6.297   5.267  12.729 -0.3407 -0.2318  0.0690
15127TIP3    H166796   6.293   5.321  12.649  0.0482 -2.6199 -1.6628
15127TIP3    H266797   6.387   5.235  12.732 -1.1156 -2.6266 -0.3054
15128TIP3   OH266798   3.117   4.563  11.739 -0.1028 -0.4981  0.1506
15128TIP3    H166799   3.090   4.583  11.829  0.4525  1.4578 -0.0816
15128TIP3    H266800   3.035   4.552  11.691 -0.4719  1.3587  0.3040
15129TIP3   OH266801   5.768   0.276  12.414  0.2855  0.5246  0.0955
15129TIP3    H166802   5.713   0.285  12.492  0.9212 -0.8379  0.7317
15129TIP3    H266803   5.857   0.269  12.448  0.4261 -1.9269 -0.5838
15130TIP3   OH266804   4.806   4.188  11.438  0.5010  0.4741 -0.4838
15130TIP3    H166805   4.877   4.152  11.385  0.1051  0.8197 -1.2610
15130TIP3    H266806   4.815   4.282  11.430  1.0677  0.5692  0.9343
15131TIP3   OH266807   1.038   2.521   4.853  0.3033  0.1579  0.1302
15131TIP3    H166808   0.969   2.579   4.884  2.8112  2.7714  1.3513
15131TIP3    H266809   1.019   2.507   4.761 -3.2545 -1.5533  0.9401
15132TIP3   OH266810   3.397   1.932  16.466  0.3052  0.2325  0.2015
15132TIP3    H166811   3.454   1.997  16.425  0.4648 -0.4299 -0.6542
15132TIP3    H266812   3.338   1.983  16.520 -1.0121  1.3438 -2.1277
15133TIP3   OH266813   5.145   0.549  16.807  0.0529  0.3714  0.4951
15133TIP3    H166814   5.104   0.464  16.790  0.7225 -0.0646  1.0187
15133TIP3    H266815   5.167   0.583  16.721  0.5383 -0.3731  0.3160
15134TIP3   OH266816   2.840   2.906  16.365 -0.0884  0.4866  0.5259
15134TIP3    H166817   2.744   2.911  16.357  0.0239  2.6013 -0.1170
15134TIP3    H266818   2.868   2.863  16.285 -0.5977 -2.4316  1.8076
15135TIP3   OH266819   5.014   5.311   2.326 -0.2475  0.5580  0.0328
15135TIP3    H166820   5.009   5.402   2.294  1.3135  1.2106  1.4575
15135TIP3    H266821   5.080   5.314   2.395 -0.6740 -1.5535  0.6044
15136TIP3   OH266822   3.017   1.433  13.055 -0.1072  0.1403  0.1596
15136TIP3    H166823   3.097   1.483  13.038  0.2502 -0.6296 -0.5323
15136TIP3    H266824   3.003   1.441  13.149 -0.1129  1.6036  0.0526
15137TIP3   OH266825   6.260   0.561   1.568 -0.2203 -0.2377  0.2260
15137TIP3    H166826   6.242   0.503   1.493 -3.5795 -0.0080  0.6704
15137TIP3    H266827   6.267   0.648   1.529  0.4585 -0.4108 -0.0437
15138TIP3   OH266828   0.945   3.107  16.698  0.3468 -0.7419 -0.1942
15138TIP3    H166829   0.984   3.051  16.766 -2.6213 -0.1095  2.2504
15138TIP3    H266830   0.946   3.194  16.737 -2.2763 -0.5148 -0.4715
15139TIP3   OH266831   4.050   4.656  16.852  0.3500 -0.3117  0.1320
15139TIP3    H166832   3.973   4.612  16.887 -0.1308  2.2144  2.6812
15139TIP3    H266833   4.027   4.679  16.762 -1.0394 -1.3890  0.1953
15140TIP3   OH266834   0.468   1.865  10.991  0.3108  0.1358 -0.3321
15140TIP3    H166835   0.482   1.950  11.030  1.1419  0.2965 -0.9430
15140TIP3    H266836   0.385   1.873  10.943  0.3917  0.6041 -0.3932
15141TIP3   OH266837   5.241   2.703   4.839  0.0242 -0.4649 -0.3936
15141TIP3    H166838   5.232   2.677   4.930 -0.6481 -0.7803 -0.5437
15141TIP3    H266839   5.254   2.797   4.841 -1.6585 -0.2083 -0.0497
15142TIP3   OH266840   5.258   4.762   6.530  0.5722  0.2144  0.2463
15142TIP3    H166841   5.211   4.831   6.482 -2.9109 -0.8929  1.6847
15142TIP3    H266842   5.266   4.690   6.468  0.1536  0.3683  0.0077
15143TIP3   OH266843   3.243   1.370   6.228  0.0161 -0.5649  0.7856
15143TIP3    H166844   3.335   1.374   6.202 -0.7233 -0.8050 -2.2176
15143TIP3    H266845   3.212   1.460   6.220 -0.5147 -0.8390 -0.4551
15144TIP3   OH266846   2.035   1.520  14.768 -0.5202  0.0287  0.1197
15144TIP3    H166847   2.047   1.606  14.807  1.0780 -0.9687  2.0143
15144TIP3    H266848   2.069   1.529  14.679  0.7677  1.0638  0.6886
15145TIP3   OH266849   4.466   1.258   4.525  0.2589  0.4597  0.6607
15145TIP3    H166850   4.527   1.288   4.457  0.1835 -0.2038  0.2923
15145TIP3    H266851   4.487   1.312   4.601 -0.3973  1.9801 -0.1999
15146TIP3   OH266852   4.059   3.984  11.352  0.2677 -0.2928 -0.2884
15146TIP3    H166853   4.152   3.989  11.373  0.0151  1.4285  0.5425
15146TIP3    H266854   4.014   4.004  11.433 -0.8190  0.1911 -0.9857
15147TIP3   OH266855   4.725   6.751   2.837 -0.0746  0.3951 -0.2887
15147TIP3    H166856   4.638   6.738   2.798  0.2955  2.8585 -2.2310
15147TIP3    H266857   4.759   6.829   2.793  3.1220 -0.4277  0.4652
15148TIP3   OH266858   3.801   4.205   5.866  1.1878  0.4602 -0.0768
15148TIP3    H166859   3.806   4.198   5.961  0.6712  0.5949 -0.0353
15148TIP3    H266860   3.867   4.143   5.833 -0.6780 -1.8771  0.3228
15149TIP3   OH266861   2.524   3.477   3.174  0.2171 -0.5101  0.2488
15149TIP3    H166862   2.545   3.404   3.232  0.2912 -0.6294  0.0745
15149TIP3    H266863   2.607   3.524   3.165  0.4510 -1.0546 -0.5427
15150TIP3   OH266864   4.368   3.218   4.667 -0.3683 -0.1899  0.2475
15150TIP3    H166865   4.317   3.196   4.744  0.6733 -0.4512  0.8852
15150TIP3    H266866   4.423   3.292   4.694  2.9964 -2.8006  1.1447
15151TIP3   OH266867   4.354   6.775  12.405 -0.9357  0.7385 -0.2788
15151TIP3    H166868   4.266   6.770  12.367 -0.9525  1.2897 -0.3189
15151TIP3    H266869   4.404   6.829  12.344  0.0070 -1.2093 -1.3077
15152TIP3   OH266870   0.723   1.278   0.006  0.1104 -0.5042 -0.6520
15152TIP3    H166871   0.786   1.332  -0.042 -0.0123  0.0501 -0.2115
15152TIP3    H266872   0.659   1.252  -0.060  0.6703 -0.8832 -1.0571
15153TIP3   OH266873   6.005   0.245  12.572  0.6716  0.2579 -0.0643
15153TIP3    H166874   6.004   0.149  12.574  0.8568  0.2648  0.6333
15153TIP3    H266875   5.923   0.271  12.615  0.4842  0.4112 -0.5122
15154TIP3   OH266876   3.954   5.446   4.895 -0.3232 -0.0124 -0.6039
15154TIP3    H166877   3.902   5.495   4.958 -2.7648 -1.2548 -1.5208
15154TIP3    H266878   3.930   5.482   4.810  0.6264 -0.3828 -1.0532
15155TIP3   OH266879   1.907   1.241   2.003 -0.7284  0.1418 -0.2540
15155TIP3    H166880   1.981   1.218   2.059  0.6772  0.9057 -1.7062
15155TIP3    H266881   1.840   1.271   2.063  0.1208 -0.5820  1.1173
15156TIP3   OH266882   5.484   5.092  16.322 -0.3027  1.1163  0.4487
15156TIP3    H166883   5.522   5.048  16.398 -0.2509  1.9485  0.9099
15156TIP3    H266884   5.392   5.105  16.344 -0.4285  0.8125  0.1151
15157TIP3   OH266885   2.010   4.660   1.038 -0.0377 -0.4995 -0.3927
15157TIP3    H166886   1.925   4.656   0.993  0.4282  3.0646 -1.8784
15157TIP3    H266887   1.989   4.651   1.131 -2.1203  0.6846 -0.6964
15158TIP3   OH266888   0.634   6.683  13.821  0.0213 -0.8470  0.2663
15158TIP3    H166889   0.596   6.730  13.747  1.8778 -1.0366 -0.8921
15158TIP3    H266890   0.560   6.664  13.878 -1.1626  1.2430 -0.4424
15159TIP3   OH266891   6.549   3.925   4.931  0.0493 -0.0744 -0.1197
15159TIP3    H166892   6.547   3.855   4.866 -1.2354  0.0379 -0.2411
15159TIP3    H266893   6.588   3.885   5.009 -0.2294 -0.7989 -0.3393
15160TIP3   OH266894   6.669   5.508   4.006 -0.1913 -0.0705 -0.1339
15160TIP3    H166895   6.594   5.559   4.038 -1.5470 -2.0253 -0.0120
15160TIP3    H266896   6.706   5.467   4.084 -0.5246 -1.0386 -0.4698
15161TIP3   OH266897   2.876   4.738  13.024 -0.6909  0.1418 -0.6825
15161TIP3    H166898   2.783   4.724  13.008 -1.0566  0.1417  1.1636
15161TIP3    H266899   2.880   4.823  13.068 -0.2369 -1.2317  2.1354
15162TIP3   OH266900   5.850   0.057   2.102 -0.2846  0.3959 -0.6739
15162TIP3    H166901   5.887  -0.018   2.057 -0.5562 -0.3869  0.3610
15162TIP3    H266902   5.918   0.085   2.163 -0.5188  0.4019 -0.4085
15163TIP3   OH266903   1.661   1.370   5.077 -0.2392 -0.3588 -0.0647
15163TIP3    H166904   1.590   1.431   5.055 -0.7311 -0.5344  0.9588
15163TIP3    H266905   1.703   1.410   5.153  1.3687  0.2108 -1.2089
15164TIP3   OH266906   5.213   3.915   4.484 -0.4293 -0.5730  0.4242
15164TIP3    H166907   5.306   3.923   4.506 -0.0746  1.3299 -1.5163
15164TIP3    H266908   5.202   3.823   4.462  0.5787 -1.1940  2.2803
15165TIP3   OH266909   1.740   4.680  17.296  0.2841  0.6106  0.0704
15165TIP3    H166910   1.813   4.706  17.240  0.3810 -0.1199 -0.1577
15165TIP3    H266911   1.734   4.585  17.285 -0.2730  0.5749  0.6072
15166TIP3   OH266912   5.375   2.730  13.697  0.2120  0.4440 -0.2512
15166TIP3    H166913   5.431   2.693  13.630  0.6244  2.8591 -1.3475
15166TIP3    H266914   5.297   2.761  13.650 -0.2729  0.6557  0.6513
15167TIP3   OH266915   1.622   0.507   1.347  0.1950 -0.3281  0.3314
15167TIP3    H166916   1.570   0.584   1.326 -0.0569 -1.1653 -2.4535
15167TIP3    H266917   1.706   0.542   1.376  0.3749  1.0357 -1.6524
15168TIP3   OH266918   4.985   1.903  13.734  0.4000 -0.1017  0.5628
15168TIP3    H166919   4.984   1.827  13.791 -1.0662  0.1803  0.9799
15168TIP3    H266920   5.045   1.881  13.663 -0.9897 -2.2121 -0.0565
15169TIP3   OH266921   1.329   0.078  16.662 -0.4806 -0.1174 -0.2250
15169TIP3    H166922   1.395   0.124  16.714 -1.2746 -0.0628  0.7618
15169TIP3    H266923   1.262   0.145  16.644 -0.8006 -0.4451 -0.2704
15170TIP3   OH266924   4.566   0.687   5.246  0.2194 -0.4508 -0.3376
15170TIP3    H166925   4.533   0.704   5.158  0.1341  0.0622 -0.2098
15170TIP3    H266926   4.564   0.591   5.255 -0.2701 -0.4754 -0.6979
15171TIP3   OH266927   2.621   1.573  14.736 -0.3247 -0.7221  0.6823
15171TIP3    H166928   2.542   1.626  14.727 -1.3293 -2.3531 -0.6537
15171TIP3    H266929   2.640   1.575  14.830 -2.4870 -1.0214  1.1828
15172TIP3   OH266930   0.444   2.510  14.583 -0.4805  0.1120  0.3916
15172TIP3    H166931   0.424   2.543  14.670 -0.5870 -2.1322  1.2944
15172TIP3    H266932   0.359   2.486  14.545 -0.2533 -1.5400  0.8446
15173TIP3   OH266933   3.014   4.834  13.538  0.1496  0.4308  0.2763
15173TIP3    H166934   2.977   4.864  13.621 -0.0032 -0.8069  0.6788
15173TIP3    H266935   3.094   4.788  13.563  1.3445  1.9887 -0.4804
15174TIP3   OH266936   6.724   1.292  13.458  0.1881 -0.3172  0.0636
15174TIP3    H166937   6.667   1.264  13.530  0.7580 -0.5177  0.4426
15174TIP3    H266938   6.712   1.225  13.391 -1.2956  0.5127 -0.5577
15175TIP3   OH266939   3.424   1.601  16.219 -0.3873 -0.2575 -0.0776
15175TIP3    H166940   3.430   1.506  16.223 -0.3713 -0.2548 -0.0440
15175TIP3    H266941   3.513   1.630  16.195 -0.2238 -0.2060  0.5903
15176TIP3   OH266942   5.415   0.932   5.446  0.3507  0.1076  0.0148
15176TIP3    H166943   5.450   0.983   5.519  2.4115 -0.0180 -0.8161
15176TIP3    H266944   5.434   0.841   5.469 -3.7291 -0.5256  1.7139
15177TIP3   OH266945   1.347   4.055   1.532 -0.4870  0.2997 -0.0048
15177TIP3    H166946   1.259   4.052   1.492 -0.1051  0.9328 -0.9282
15177TIP3    H266947   1.402   4.005   1.471 -0.2773 -0.4592  0.7886
15178TIP3   OH266948   0.236   2.626  14.763  0.1955 -0.1348  0.0456
15178TIP3    H166949   0.196   2.689  14.703 -1.0270  1.4366  2.3421
15178TIP3    H266950   0.174   2.554  14.767  1.4420 -1.4877 -2.3331
15179TIP3   OH266951   4.990   0.768  13.265 -0.3973  0.0517 -0.2687
15179TIP3    H166952   5.007   0.704  13.197  1.7833  0.7029 -0.4197
15179TIP3    H266953   4.982   0.716  13.345 -0.7720 -0.5457 -0.6821
15180TIP3   OH266954   1.290   1.977   3.467  0.5121  0.4093 -0.5084
15180TIP3    H166955   1.372   2.001   3.511 -0.0979  0.5364  0.6093
15180TIP3    H266956   1.317   1.941   3.383  1.7981 -0.7047  0.3390
15181TIP3   OH266957   4.676   3.699   3.280  0.3598 -0.6659 -0.1245
15181TIP3    H166958   4.607   3.695   3.214 -0.8009 -2.2522  1.1050
15181TIP3    H266959   4.676   3.612   3.320  0.0678  0.6014  2.8853
15182TIP3   OH266960   5.558   0.192   2.076 -1.0634 -0.0125 -0.4567
15182TIP3    H166961   5.577   0.112   2.126 -0.4316 -0.4377 -1.3399
15182TIP3    H266962   5.481   0.169   2.024 -1.0202  0.0401 -0.5423
15183TIP3   OH266963   2.818   5.036  12.831  0.1839  0.1356  0.0359
15183TIP3    H166964   2.754   5.008  12.896  0.4146  0.9436  0.6216
15183TIP3    H266965   2.764   5.071  12.759 -0.0596 -0.5197 -0.1128
15184TIP3   OH266966   0.635   5.745  11.367  0.1883 -0.3551 -0.3440
15184TIP3    H166967   0.675   5.760  11.453 -0.5086 -0.5766  0.0250
15184TIP3    H266968   0.709   5.747  11.306  0.6683  0.0034  0.2324
15185TIP3   OH266969   5.232   2.274   0.344  0.7508 -0.0235 -0.2058
15185TIP3    H166970   5.261   2.228   0.423  0.5417 -0.0200 -0.1259
15185TIP3    H266971   5.179   2.347   0.378  0.7143  0.0161 -0.3481
15186TIP3   OH266972   1.729   2.021  11.149 -0.4432  0.2792 -0.4112
15186TIP3    H166973   1.817   2.047  11.121 -0.3619 -0.6552 -1.0486
15186TIP3    H266974   1.743   1.979  11.234 -0.6549  2.8291  0.9827
15187TIP3   OH266975   2.046   0.707   0.354 -0.5946 -0.5091 -0.0437
15187TIP3    H166976   2.012   0.705   0.443 -1.2399 -1.3297 -0.2930
15187TIP3    H266977   1.967   0.709   0.299 -0.2040 -0.0293 -0.5981
15188TIP3   OH266978   5.499   4.949   4.906 -0.0301 -0.1486 -0.2275
15188TIP3    H166979   5.474   5.023   4.961 -1.1748 -0.8219  0.1881
15188TIP3    H266980   5.515   4.987   4.819  0.6492  0.7537  0.2822
15189TIP3   OH266981   1.619   0.971   5.977  0.4219 -0.0703  0.1276
15189TIP3    H166982   1.704   1.010   5.994  1.0841 -2.1990  2.1951
15189TIP3    H266983   1.631   0.919   5.898  0.4506  1.1629 -0.7071
15190TIP3   OH266984   5.737   4.513   2.022  0.3421  0.5681 -0.2979
15190TIP3    H166985   5.747   4.454   1.948 -1.6790  0.6357 -0.6886
15190TIP3    H266986   5.680   4.583   1.990 -1.7910 -0.1381  1.6565
15191TIP3   OH266987   5.869   6.012  15.832 -0.2208 -0.0603  0.1227
15191TIP3    H166988   5.801   5.960  15.875 -1.6475  1.1267 -0.6156
15191TIP3    H266989   5.869   5.982  15.741 -0.1640  0.3717 -0.0205
15192TIP3   OH266990   0.903   5.950  14.050 -0.3844  0.0371  0.1625
15192TIP3    H166991   0.832   6.014  14.056 -1.0658 -0.6377 -0.4928
15192TIP3    H266992   0.973   5.986  14.105 -0.7491  1.3380 -0.1981
15193TIP3   OH266993   0.968   6.489  16.042 -0.2490 -0.0501 -0.0269
15193TIP3    H166994   0.914   6.505  15.964  0.3873 -1.1301 -0.7092
15193TIP3    H266995   1.010   6.405  16.025  0.7875  0.2476  0.9895
15194TIP3   OH266996   0.494   1.871   2.268 -0.4049 -0.7749  0.6985
15194TIP3    H166997   0.410   1.877   2.222 -0.3136  3.1187  0.6862
15194TIP3    H266998   0.475   1.898   2.358  0.8549  0.8253  0.5381
15195TIP3   OH266999   4.112   3.935  12.844 -0.1085 -0.1482 -0.0632
15195TIP3    H167000   4.208   3.940  12.841 -0.1765  1.2411 -0.6524
15195TIP3    H267001   4.094   3.848  12.879  1.3732 -0.1299  0.8290
15196TIP3   OH267002   0.535   1.005   3.738  0.6371  0.0404  0.2193
15196TIP3    H167003   0.487   0.922   3.735  1.5137 -0.4819  0.2796
15196TIP3    H267004   0.500   1.056   3.665  0.7355 -0.7467 -0.3892
15197TIP3   OH267005   6.074   3.927  14.179 -0.2122 -0.4486 -0.1464
15197TIP3    H167006   6.036   3.896  14.096 -0.2802 -1.5684  0.2894
15197TIP3    H267007   6.139   3.861  14.202  0.1815  0.1309  0.4308
15198TIP3   OH267008   4.698   2.097   1.919  0.0245 -0.7027  0.5667
15198TIP3    H167009   4.673   2.014   1.878 -1.6416 -0.9555  1.9867
15198TIP3    H267010   4.755   2.072   1.992 -0.2357 -0.5857  0.8120
15199TIP3   OH267011   0.606   2.872  13.330 -0.0300 -0.0979 -0.5447
15199TIP3    H167012   0.659   2.805  13.372 -0.4435  0.0115  0.1651
15199TIP3    H267013   0.516   2.849  13.352 -0.1256  1.4425  0.8866
15200TIP3   OH267014   1.092   2.520  15.270 -0.1516 -0.7277 -1.1491
15200TIP3    H167015   1.011   2.502  15.223 -1.0976 -0.9638  0.4788
15200TIP3    H267016   1.133   2.591  15.221 -1.2710 -0.6916 -2.0856
15201TIP3   OH267017   0.747   0.656   2.542  0.3873  0.9499  0.3268
15201TIP3    H167018   0.660   0.676   2.508 -0.4784 -1.5603  0.8972
15201TIP3    H267019   0.742   0.680   2.634  0.1902  0.4931  0.4350
15202TIP3   OH267020   3.198   3.352   4.977 -0.6377 -0.2988  0.4956
15202TIP3    H167021   3.272   3.291   4.970 -1.3167 -1.1439  0.4308
15202TIP3    H267022   3.165   3.339   5.066  0.1981  1.1783  1.0476
15203TIP3   OH267023   0.406   5.376  12.323 -0.4136 -0.5800  0.5049
15203TIP3    H167024   0.336   5.352  12.384 -0.0594  1.4560  1.7965
15203TIP3    H267025   0.487   5.352  12.367 -0.1530  0.9254  0.9069
15204TIP3   OH267026   5.819   0.763  16.999 -0.3585 -0.3577 -0.3550
15204TIP3    H167027   5.866   0.773  17.082  0.2746 -1.5259 -0.5511
15204TIP3    H267028   5.850   0.835  16.945 -1.0395  0.6281  0.5167
15205TIP3   OH267029   1.163   0.275  16.810 -0.1247 -0.2930  0.2032
15205TIP3    H167030   1.184   0.319  16.728  0.2909  1.3887  1.1712
15205TIP3    H267031   1.068   0.267  16.810 -0.2852  1.2736  0.2959
15206TIP3   OH267032   4.156   5.121   2.431  0.6027 -0.0392 -0.3988
15206TIP3    H167033   4.169   5.216   2.439  0.2001 -0.0509  0.5147
15206TIP3    H267034   4.062   5.109   2.434  0.7000 -0.6208  1.7384
15207TIP3   OH267035   1.565   1.846   0.643  0.2286 -0.9008  0.3208
15207TIP3    H167036   1.576   1.874   0.735  0.6715  0.3051 -0.0765
15207TIP3    H267037   1.633   1.894   0.596 -2.2306  1.3833 -1.1969
15208TIP3   OH267038   1.956   6.754  11.747 -0.2164  0.4059  0.1296
15208TIP3    H167039   2.031   6.810  11.725 -1.6575  2.2663 -0.3223
15208TIP3    H267040   1.932   6.714  11.663  0.0070  0.1182  0.1996
15209TIP3   OH267041   4.847   5.317   5.021  0.4752  0.4686  0.1003
15209TIP3    H167042   4.936   5.294   4.994 -0.0391 -0.6184 -0.7690
15209TIP3    H267043   4.814   5.237   5.063 -0.5659  0.3524 -0.8876
15210TIP3   OH267044   1.538   4.941  15.068 -0.5076  0.6224 -0.4010
15210TIP3    H167045   1.535   4.857  15.022 -0.9737 -0.7625  2.0115
15210TIP3    H267046   1.619   4.982  15.037  2.6996 -3.0585  2.0278
15211TIP3   OH267047   4.140   0.198  14.598 -0.0475 -0.2220 -0.2390
15211TIP3    H167048   4.092   0.243  14.668 -1.9226 -0.6890 -1.1604
15211TIP3    H267049   4.167   0.115  14.637  0.5463  0.2661  0.4493
15212TIP3   OH267050   2.302   3.320   2.544  1.0230  0.0859  0.3533
15212TIP3    H167051   2.280   3.308   2.451 -0.6104  0.6547  0.6289
15212TIP3    H267052   2.325   3.412   2.552 -0.9743  0.5960  0.8526
15213TIP3   OH267053   4.403   5.102   2.288 -0.2980  0.0532 -0.1486
15213TIP3    H167054   4.356   5.092   2.371 -1.1567 -2.7191 -0.8420
15213TIP3    H267055   4.335   5.094   2.221  0.6877 -0.2758 -1.1446
15214TIP3   OH267056   2.295   6.434  14.472  0.1597  0.0669 -0.1457
15214TIP3    H167057   2.287   6.435  14.567  1.4300  1.1389 -0.0171
15214TIP3    H267058   2.217   6.479  14.440 -0.6581 -0.9841  0.3358
15215TIP3   OH267059   5.179   2.842  16.844 -0.3561 -1.0483 -0.1708
15215TIP3    H167060   5.121   2.898  16.792  0.3491  0.9082  1.0414
15215TIP3    H267061   5.218   2.782  16.780 -3.5004 -2.3293 -1.0397
15216TIP3   OH267062   3.667   6.647  12.206  0.4258  0.0091  0.0317
15216TIP3    H167063   3.677   6.672  12.297  0.7755  3.8891 -0.9036
15216TIP3    H267064   3.752   6.665  12.166  0.3819 -1.8890 -1.0617
15217TIP3   OH267065   4.580   5.398   1.307  0.4903 -0.2452  0.1280
15217TIP3    H167066   4.621   5.401   1.220  0.9233 -0.7492  0.3106
15217TIP3    H267067   4.638   5.342   1.359  0.8300  0.9403  1.0609
15218TIP3   OH267068   5.809   1.921   2.068 -0.5686 -0.1507  0.0965
15218TIP3    H167069   5.845   1.833   2.056 -2.0417 -0.5206 -2.3108
15218TIP3    H267070   5.868   1.978   2.018  0.6479  0.3792  2.0246
15219TIP3   OH267071   5.661   5.569   1.723 -0.4498  0.3938  0.4034
15219TIP3    H167072   5.666   5.664   1.714  0.1251  0.3748  0.4631
15219TIP3    H267073   5.719   5.536   1.655 -1.2444  0.0588 -0.1209
15220TIP3   OH267074   6.713   0.250  14.574 -0.1498 -0.2268 -0.7839
15220TIP3    H167075   6.679   0.339  14.583 -0.1826 -0.1641 -1.5079
15220TIP3    H267076   6.808   0.260  14.578 -0.1677 -0.2306 -0.2771
15221TIP3   OH267077   2.856   3.847  15.835  0.0355 -0.2868 -0.3212
15221TIP3    H167078   2.891   3.806  15.756 -2.4053 -0.8648 -1.2108
15221TIP3    H267079   2.895   3.797  15.907 -2.3306 -4.0501 -1.3368
15222TIP3   OH267080   3.552   6.392  14.539  0.1115 -0.0318  0.1358
15222TIP3    H167081   3.595   6.450  14.602  1.0221  0.4778 -0.9333
15222TIP3    H267082   3.459   6.401  14.560  0.3451  0.6170  0.9964
15223TIP3   OH267083   1.543   0.277  15.483 -0.2643  0.0172 -0.6840
15223TIP3    H167084   1.627   0.232  15.474 -0.3207 -0.1712 -0.2993
15223TIP3    H267085   1.567   0.370  15.485 -0.0069 -0.0508 -0.0783
15224TIP3   OH267086   6.526   5.263   5.122 -0.0058  0.2286  1.2744
15224TIP3    H167087   6.476   5.323   5.067  3.4393  3.0548  0.8859
15224TIP3    H267088   6.514   5.296   5.211  1.8408  1.6184  1.0671
15225TIP3   OH267089   2.769   6.077   3.648 -0.2677 -0.3075 -0.6970
15225TIP3    H167090   2.843   6.100   3.704 -1.3083  2.1715 -0.2280
15225TIP3    H267091   2.798   5.998   3.603  1.5614 -1.0096  1.5006
15226TIP3   OH267092   4.755   5.044  16.321 -0.5114  0.1201  0.6567
15226TIP3    H167093   4.720   5.111  16.380  1.0781 -0.3857  2.2515
15226TIP3    H267094   4.796   4.981  16.379  1.1832 -0.3762 -1.0114
15227TIP3   OH267095   5.527   0.811  11.296  0.3019  0.6722  0.6772
15227TIP3    H167096   5.584   0.871  11.344  0.8918 -1.6923  3.1087
15227TIP3    H267097   5.478   0.764  11.363 -1.2624 -0.5427 -1.1862
15228TIP3   OH267098   1.332   3.676  16.156  0.2069 -0.2626 -0.4463
15228TIP3    H167099   1.401   3.613  16.178 -1.9098 -2.4347  0.3489
15228TIP3    H267100   1.255   3.645  16.203 -1.4567  1.8645 -1.5872
15229TIP3   OH267101   5.760   2.941   3.592 -0.0098  0.6516  0.0140
15229TIP3    H167102   5.800   2.854   3.589  0.4610  0.7341  2.1617
15229TIP3    H267103   5.801   2.989   3.520  0.9325 -0.4303 -0.2008
15230TIP3   OH267104   6.328   2.096  16.605 -0.1030 -0.7360 -0.0425
15230TIP3    H167105   6.398   2.134  16.658 -2.1077  1.8446  1.0053
15230TIP3    H267106   6.264   2.064  16.669 -0.9839 -0.7932 -0.9169
15231TIP3   OH267107   1.518   5.055  12.414  0.3394 -0.2785  0.1006
15231TIP3    H167108   1.513   5.063  12.318  1.5151 -0.4531  0.0065
15231TIP3    H267109   1.488   5.139  12.447  0.8637  0.1367 -0.4610
15232TIP3   OH267110   4.992   6.589   0.894 -0.5425  0.3748  0.0626
15232TIP3    H167111   5.075   6.633   0.910 -0.3090 -0.4539  1.2247
15232TIP3    H267112   4.926   6.659   0.899 -0.1257  0.6881  1.3038
15233TIP3   OH267113   2.211   6.738   1.177 -0.2961 -0.1351 -0.1166
15233TIP3    H167114   2.220   6.788   1.096 -1.0505  1.1757  0.5788
15233TIP3    H267115   2.123   6.758   1.208  0.1231 -0.2669  1.2448
15234TIP3   OH267116   5.438   4.005   4.034 -0.8513  0.1438  0.0097
15234TIP3    H167117   5.356   3.960   4.052 -0.3133 -1.1953 -0.6843
15234TIP3    H267118   5.425   4.047   3.949 -0.7593 -0.2524 -0.2038
15235TIP3   OH267119   2.235   6.606   6.258  0.0829 -0.2948  0.5012
15235TIP3    H167120   2.166   6.616   6.325 -0.8327 -1.8944 -0.1432
15235TIP3    H267121   2.315   6.633   6.302 -0.5508 -0.9577  2.1526
15236TIP3   OH267122   3.139   1.007  13.130  0.4325 -0.0647 -0.2861
15236TIP3    H167123   3.221   1.012  13.179 -0.2972 -0.9213  1.1070
15236TIP3    H267124   3.120   0.913  13.125 -0.7680  0.1460 -0.0296
15237TIP3   OH267125   4.467   4.763   1.877  0.0318 -0.2405 -0.3258
15237TIP3    H167126   4.379   4.760   1.915  0.4650 -0.3730  0.6853
15237TIP3    H267127   4.505   4.844   1.910  0.3933 -0.3217 -0.5331
15238TIP3   OH267128   3.269   0.762  11.991  0.4103  0.4545  0.2299
15238TIP3    H167129   3.263   0.853  11.964  1.4789  1.0117  1.6964
15238TIP3    H267130   3.322   0.765  12.071 -0.0825 -1.3828  0.6623
15239TIP3   OH267131   1.159   0.114  13.986 -0.6481  0.1375  0.1568
15239TIP3    H167132   1.187   0.035  13.938 -2.4524 -0.3254 -0.2206
15239TIP3    H267133   1.110   0.165  13.921 -0.2859  1.1427  0.6528
15240TIP3   OH267134   5.407   5.225  12.324  0.1063  0.3467  0.1386
15240TIP3    H167135   5.470   5.241  12.254  0.7646  1.7490  1.0272
15240TIP3    H267136   5.431   5.139  12.358  0.6315  0.2523 -0.4569
15241TIP3   OH267137   2.118   0.584   4.579  0.2172  0.2645 -0.3271
15241TIP3    H167138   2.160   0.537   4.507  1.2338 -0.0866  0.4728
15241TIP3    H267139   2.187   0.638   4.616 -0.6002  1.3736 -0.3652
15242TIP3   OH267140   5.850   3.961   5.097  0.0208 -0.3606 -0.0557
15242TIP3    H167141   5.910   4.032   5.071 -0.2207  0.2737  1.0662
15242TIP3    H267142   5.763   3.995   5.076 -0.0554 -0.5972 -0.1213
15243TIP3   OH267143   3.084   2.151  12.747  0.2324  0.3247 -0.6606
15243TIP3    H167144   3.147   2.081  12.730  0.3432 -0.1979  1.6000
15243TIP3    H267145   3.004   2.123  12.701  0.8525 -0.3271 -1.3598
15244TIP3   OH267146   0.401   4.136   0.293  0.5079  0.3576  0.2290
15244TIP3    H167147   0.420   4.079   0.368  0.5636  3.3185  2.6451
15244TIP3    H267148   0.482   4.135   0.241  1.1283 -0.3796  1.1796
15245TIP3   OH267149   0.984   0.552   0.816 -0.0961  0.0603 -0.4405
15245TIP3    H167150   0.998   0.551   0.911  1.1556 -2.0338 -0.5697
15245TIP3    H267151   0.929   0.475   0.800  1.6247 -0.9973 -1.5887
15246TIP3   OH267152   5.633   6.660  11.957 -0.2642 -0.3889 -0.2887
15246TIP3    H167153   5.639   6.685  12.049 -0.6458 -0.6172 -0.1987
15246TIP3    H267154   5.637   6.565  11.957 -0.1585 -0.3847 -0.5167
15247TIP3   OH267155   1.559   4.521   6.274  0.3067  0.1564 -0.0476
15247TIP3    H167156   1.581   4.555   6.360  0.5878  1.3063 -0.5531
15247TIP3    H267157   1.501   4.447   6.291 -0.7144  1.1807  1.0962
15248TIP3   OH267158   0.579   2.379   2.651 -0.1192  0.0059  0.4227
15248TIP3    H167159   0.508   2.415   2.703 -0.4942 -0.4617  0.2439
15248TIP3    H267160   0.558   2.286   2.643  0.6535 -0.1893  0.5901
15249TIP3   OH267161   3.216   2.745  16.874 -0.1468 -0.4522 -0.3545
15249TIP3    H167162   3.306   2.739  16.842 -0.3948 -0.9188 -0.9879
15249TIP3    H267163   3.170   2.799  16.810  0.0910  1.4151  0.9458
15250TIP3   OH267164   0.408   2.542  12.498  0.0619 -0.3164 -0.0381
15250TIP3    H167165   0.355   2.481  12.550  0.8180  0.3469  1.5577
15250TIP3    H267166   0.490   2.495  12.481 -0.3672 -0.7245 -1.1322
15251TIP3   OH267167   2.452   1.333  11.043 -0.2210 -0.3281 -0.1176
15251TIP3    H167168   2.374   1.386  11.032  0.1558 -0.0683 -1.7366
15251TIP3    H267169   2.427   1.246  11.010 -0.5095 -0.9075  1.5297
15252TIP3   OH267170   0.716   6.682   0.090 -0.0098  0.1060  0.0535
15252TIP3    H167171   0.764   6.762   0.066 -2.0309  0.6605 -2.5974
15252TIP3    H267172   0.680   6.650   0.008 -2.9385 -1.0842  1.6550
15253TIP3   OH267173   1.498   0.235   6.359  0.4507 -0.0226  0.0513
15253TIP3    H167174   1.535   0.317   6.392  3.0387 -1.4216  0.9148
15253TIP3    H267175   1.571   0.192   6.315 -1.1119 -1.4417 -1.3174
15254TIP3   OH267176   1.915   3.127   0.551 -0.2382  0.2638 -0.1782
15254TIP3    H167177   2.009   3.112   0.564 -0.5034  0.1877  2.0105
15254TIP3    H267178   1.903   3.220   0.570 -0.5101  0.4530 -1.2183
15255TIP3   OH267179   0.466   3.412  13.989 -0.1956 -0.5481  0.0057
15255TIP3    H167180   0.417   3.453  13.918 -3.1358  1.5817  2.9862
15255TIP3    H267181   0.414   3.335  14.014  0.1318 -0.5664  0.6588
15256TIP3   OH267182   1.951   6.656   3.641 -0.0165  0.0217 -0.2333
15256TIP3    H167183   1.924   6.619   3.724 -1.4463  1.0016 -0.2185
15256TIP3    H267184   1.922   6.593   3.575 -0.8494  0.2683 -0.1080
15257TIP3   OH267185   3.692   0.479   0.212  0.5253 -0.3104 -0.1688
15257TIP3    H167186   3.611   0.474   0.162 -0.1805 -1.7269  1.0360
15257TIP3    H267187   3.760   0.456   0.149 -0.0673  0.1921 -1.0164
15258TIP3   OH267188   4.901   5.076  10.947 -0.1030 -0.3627  0.5125
15258TIP3    H167189   4.867   5.099  11.033 -0.1652  0.0786  0.3726
15258TIP3    H267190   4.979   5.131  10.936 -0.7746  0.4826 -0.2103
15259TIP3   OH267191   4.851   4.385  16.772 -0.1379 -0.1130  0.7516
15259TIP3    H167192   4.933   4.357  16.731  0.7070  0.1826  2.1562
15259TIP3    H267193   4.851   4.341  16.857 -2.1876 -1.2811  0.1956
15260TIP3   OH267194   3.852   0.128   1.770 -0.0699  0.4883  0.3591
15260TIP3    H167195   3.841   0.187   1.844 -0.4644  0.6457  0.1798
15260TIP3    H267196   3.888   0.182   1.700 -1.0428  0.6812 -0.0108
15261TIP3   OH267197   4.817   4.237  16.192  0.0240 -0.1620 -0.0396
15261TIP3    H167198   4.740   4.269  16.240  0.5978 -0.0254  0.8022
15261TIP3    H267199   4.885   4.302  16.209  0.6864 -0.9048  0.2379
15262TIP3   OH267200   5.734   3.900  14.688  0.0229  0.3480  0.8018
15262TIP3    H167201   5.669   3.832  14.704  0.4089 -0.3593 -0.5083
15262TIP3    H267202   5.696   3.979  14.725 -1.7385  0.0153 -0.2196
15263TIP3   OH267203   1.602   1.555  12.455  0.1518  0.1593 -0.1484
15263TIP3    H167204   1.536   1.532  12.520  0.5686 -1.9382 -0.3778
15263TIP3    H267205   1.553   1.592  12.382 -0.4535  1.2973  0.8109
15264TIP3   OH267206   2.990   4.142  13.329 -0.3089  0.0210 -0.1182
15264TIP3    H167207   3.011   4.132  13.237  0.4581  2.3139 -0.2557
15264TIP3    H267208   2.895   4.127  13.334 -0.3475 -0.1953 -1.2436
15265TIP3   OH267209   3.776   1.535  16.966  0.2691  0.5274 -0.1324
15265TIP3    H167210   3.775   1.628  16.942  0.6359  0.7119  0.5380
15265TIP3    H267211   3.818   1.492  16.891  0.6812  0.9895 -0.1725
15266TIP3   OH267212   6.542   2.492   0.499  0.3658 -0.7861  0.0945
15266TIP3    H167213   6.563   2.581   0.526 -0.2562 -1.0410  1.4938
15266TIP3    H267214   6.469   2.502   0.437 -0.5702 -0.3605  1.2163
15267TIP3   OH267215   5.405   4.760   6.768  0.6309 -0.0139 -0.2605
15267TIP3    H167216   5.349   4.760   6.690 -1.2670 -0.0507  1.0434
15267TIP3    H267217   5.406   4.851   6.797  0.0322 -0.2695  0.5653
15268TIP3   OH267218   5.034   1.823  14.038  0.2860 -0.3587 -0.2391
15268TIP3    H167219   5.126   1.849  14.025  0.2095  0.6140  1.0101
15268TIP3    H267220   5.039   1.745  14.093  0.3526 -0.0051  0.2605
15269TIP3   OH267221   1.279   3.254  14.999  0.0823  0.2850  0.3460
15269TIP3    H167222   1.198   3.300  14.979 -0.1384 -0.3060 -0.1094
15269TIP3    H267223   1.279   3.247  15.095 -0.4704  0.1534  0.3383
15270TIP3   OH267224   5.109   1.096   2.055 -0.8596  0.0186  0.3162
15270TIP3    H167225   5.197   1.133   2.050 -0.7601 -0.1900  0.5132
15270TIP3    H267226   5.122   1.002   2.053 -1.2524 -0.0898 -3.0769
15271TIP3   OH267227   4.170   1.466   3.539  0.2088  0.0628 -0.0363
15271TIP3    H167228   4.156   1.554   3.505  0.2806 -0.0778 -0.4304
15271TIP3    H267229   4.244   1.432   3.489  1.7915  0.6473  1.7604
15272TIP3   OH267230   0.685   4.115   1.014  0.7824  0.0350 -0.0222
15272TIP3    H167231   0.676   4.020   1.006  0.3512  0.1859 -1.8013
15272TIP3    H267232   0.778   4.129   1.031  1.0683 -0.6745 -0.9009
15273TIP3   OH267233   6.199   1.721  13.225 -0.7934 -0.7084 -0.3661
15273TIP3    H167234   6.229   1.631  13.239 -1.1913 -0.9199 -0.8540
15273TIP3    H267235   6.219   1.739  13.133 -1.3222 -0.5303 -0.4488
15274TIP3   OH267236   1.160   2.316  11.202  0.0251  0.3759 -0.1076
15274TIP3    H167237   1.164   2.412  11.209 -0.5762  0.3469  0.7164
15274TIP3    H267238   1.096   2.290  11.268 -1.6369 -0.4027 -1.9445
15275TIP3   OH267239   6.202   1.987  11.044 -0.2501  0.8929  0.5473
15275TIP3    H167240   6.215   1.907  11.095 -0.6600  0.4224 -0.0814
15275TIP3    H267241   6.107   1.997  11.039 -0.3446 -0.5378 -2.3549
15276TIP3   OH267242   4.980   6.429  12.293  0.2789  0.3224 -0.2246
15276TIP3    H167243   4.894   6.403  12.326  0.9654 -0.3329  1.1092
15276TIP3    H267244   5.036   6.353  12.307  0.5539 -0.2027 -3.3979
15277TIP3   OH267245   6.500   5.438  11.731 -0.6013  0.0501 -0.5091
15277TIP3    H167246   6.505   5.429  11.636 -0.3156 -0.7226 -0.4244
15277TIP3    H267247   6.501   5.348  11.764 -0.5449  0.3153  0.2333
15278TIP3   OH267248   3.284   1.778   3.204  0.0265  0.0318  0.0399
15278TIP3    H167249   3.246   1.760   3.118 -0.4162 -0.9016  0.4155
15278TIP3    H267250   3.210   1.780   3.264  0.1335  2.4423  0.1742
15279TIP3   OH267251   5.201   6.655   1.531  0.0131 -0.8113 -0.0573
15279TIP3    H167252   5.121   6.705   1.546  0.3889  0.0773 -0.8690
15279TIP3    H267253   5.219   6.612   1.615 -1.6410 -1.5492 -0.0504
15280TIP3   OH267254   5.518   4.804   3.533  0.1218 -0.2090 -0.5891
15280TIP3    H167255   5.452   4.821   3.601  0.2301  2.3477 -1.0170
15280TIP3    H267256   5.509   4.878   3.473  2.9512 -0.0900 -1.0036
15281TIP3   OH267257   4.272   5.169   0.314  0.3068  0.1786 -0.3546
15281TIP3    H167258   4.285   5.136   0.225 -0.0856  0.5542 -0.5513
15281TIP3    H267259   4.244   5.260   0.303  0.2671  0.2328  0.1540
15282TIP3   OH267260   2.234   6.139   4.546  0.5695  0.3920 -0.2150
15282TIP3    H167261   2.290   6.127   4.469  0.3686 -1.1135 -0.1543
15282TIP3    H267262   2.280   6.094   4.617  0.7483  1.7579  0.5744
15283TIP3   OH267263   0.419   3.580   5.378 -0.1776 -0.1227 -0.0454
15283TIP3    H167264   0.388   3.523   5.308  0.3637  0.4837 -0.7968
15283TIP3    H267265   0.515   3.577   5.371 -0.1328  1.4654 -0.6256
15284TIP3   OH267266   4.723   3.353   4.889  0.0968 -0.4295  0.4874
15284TIP3    H167267   4.668   3.428   4.865 -0.9328 -1.0272  0.9083
15284TIP3    H267268   4.751   3.317   4.805 -1.0743 -0.7526  0.2066
15285TIP3   OH267269   4.874   2.006   3.482  0.2080  0.1653  0.2389
15285TIP3    H167270   4.900   2.097   3.497 -0.1969  0.6025 -1.4782
15285TIP3    H267271   4.956   1.957   3.482  0.6947  0.9246 -1.1848
15286TIP3   OH267272   5.657   1.793  12.729 -0.3683  0.1353  0.2792
15286TIP3    H167273   5.730   1.733  12.747  0.3505  0.3332 -1.7191
15286TIP3    H267274   5.611   1.800  12.813  0.6961 -1.6190  1.0853
15287TIP3   OH267275   0.998   5.171   5.084  0.0414 -0.0924 -0.0851
15287TIP3    H167276   1.042   5.090   5.111 -1.4658 -0.2840  2.0147
15287TIP3    H267277   0.922   5.178   5.142 -0.3703  2.3817 -0.8053
15288TIP3   OH267278   5.969   0.129  13.656 -0.1766  0.3771  0.2374
15288TIP3    H167279   5.999   0.213  13.689 -0.3958  0.1595  1.0040
15288TIP3    H267280   5.995   0.129  13.564 -1.3385  1.8302 -0.1419
15289TIP3   OH267281   5.772   2.266   3.336  0.0019  0.2740 -0.1327
15289TIP3    H167282   5.710   2.203   3.373 -0.6835  1.6271  1.1523
15289TIP3    H267283   5.747   2.275   3.245  1.6799 -3.1205 -1.0973
15290TIP3   OH267284   5.412   5.863  17.307  0.3258  0.0335 -0.1382
15290TIP3    H167285   5.349   5.791  17.306  0.3752 -0.0354 -2.2737
15290TIP3    H267286   5.358   5.942  17.301  0.3489  0.0999  0.4865
15291TIP3   OH267287   5.829   1.505   2.047 -0.0132  0.5131  0.4425
15291TIP3    H167288   5.813   1.473   2.136 -0.8800  2.0017  0.8645
15291TIP3    H267289   5.872   1.589   2.059 -0.8794  1.1226 -0.5070
15292TIP3   OH267290   3.412   0.516   4.377 -0.4863 -0.2409 -0.6874
15292TIP3    H167291   3.418   0.506   4.472 -0.0941 -3.5320 -0.9479
15292TIP3    H267292   3.339   0.460   4.351  0.0948 -0.2551 -2.4297
15293TIP3   OH267293   5.883   6.756   3.843  0.2555 -0.0106  0.2712
15293TIP3    H167294   5.875   6.827   3.779  0.8824  0.6859  0.9444
15293TIP3    H267295   5.807   6.766   3.900  1.0936  1.0504  1.2486
15294TIP3   OH267296   3.103   6.506  11.107 -0.2070  0.4334 -0.1884
15294TIP3    H167297   3.064   6.419  11.094  0.6776  0.1806 -1.2871
15294TIP3    H267298   3.037   6.554  11.157 -0.6377 -0.9220  0.6005
15295TIP3   OH267299   3.344   3.650   0.390  0.5938  0.1731 -0.0095
15295TIP3    H167300   3.404   3.575   0.389  0.3002 -0.1365  1.8745
15295TIP3    H267301   3.261   3.615   0.360  0.4721 -0.2582  0.8137
15296TIP3   OH267302   6.730   5.521   5.701 -0.1911 -0.0953  0.3869
15296TIP3    H167303   6.746   5.471   5.621  0.6675 -2.4038  1.8892
15296TIP3    H267304   6.811   5.513   5.751 -1.0858  0.3136  1.9722
15297TIP3   OH267305   1.903   3.517   6.490  0.1891 -0.1590 -0.0081
15297TIP3    H167306   1.926   3.440   6.437 -0.1231 -0.3379  0.1101
15297TIP3    H267307   1.874   3.480   6.573 -0.7320  0.0390 -0.2308
15298TIP3   OH267308   2.108   4.609   6.457  0.1977  0.1579 -0.3574
15298TIP3    H167309   2.186   4.617   6.403  1.6375  3.0219  1.8312
15298TIP3    H267310   2.141   4.580   6.542 -1.1230  1.1303  0.5325
15299TIP3   OH267311   2.658   4.470  16.583  0.1308  0.9170  0.3907
15299TIP3    H167312   2.712   4.548  16.570  2.0418 -0.3171  0.4100
15299TIP3    H267313   2.666   4.452  16.677 -0.8210  1.0271  0.5037
15300TIP3   OH267314   4.412   1.836   0.797 -0.0180  0.0146 -0.4734
15300TIP3    H167315   4.439   1.770   0.861  2.3213  1.8671  0.6014
15300TIP3    H267316   4.470   1.823   0.722 -2.0370 -1.4443 -1.9095
15301TIP3   OH267317   2.894   5.476  17.047 -0.4609  0.8958  0.4434
15301TIP3    H167318   2.816   5.529  17.031 -0.1016  1.4703  0.5679
15301TIP3    H267319   2.954   5.497  16.975  0.2560  1.7733  1.2664
15302TIP3   OH267320   5.519   4.855  14.535  0.1219 -0.2685  0.4286
15302TIP3    H167321   5.588   4.895  14.482 -0.8313 -0.6238 -1.1606
15302TIP3    H267322   5.496   4.775  14.488 -1.2293 -0.2517  1.0118
15303TIP3   OH267323   4.862   5.225   5.406  0.2543  0.5247  0.2453
15303TIP3    H167324   4.817   5.148   5.440  0.4411  0.1889 -0.2506
15303TIP3    H267325   4.799   5.296   5.416 -0.6585 -0.0602 -1.0107
15304TIP3   OH267326   2.584   3.937   3.768  0.0962 -0.0515  0.4231
15304TIP3    H167327   2.500   3.973   3.796  0.6865  0.1118  2.0700
15304TIP3    H267328   2.580   3.940   3.672 -2.6106 -2.0019  0.3637
15305TIP3   OH267329   0.775   1.664  11.724 -0.4073  0.7124  0.2536
15305TIP3    H167330   0.776   1.753  11.759 -1.4578 -0.1103  2.6009
15305TIP3    H267331   0.806   1.673  11.634 -0.1750  3.3857  0.5210
15306TIP3   OH267332   6.026   6.276   1.896 -0.1704  0.2650 -0.6072
15306TIP3    H167333   5.999   6.367   1.905 -1.0292  0.2923 -2.8488
15306TIP3    H267334   6.064   6.253   1.981  0.6160  2.8693 -0.1839
15307TIP3   OH267335   5.382   4.266   2.752  0.1535 -0.3040 -0.2140
15307TIP3    H167336   5.300   4.291   2.711 -0.4471  2.3673  2.2558
15307TIP3    H267337   5.361   4.186   2.801 -0.6607 -0.3056 -0.5529
15308TIP3   OH267338   4.952   6.067  12.614  0.1898 -0.3068  0.6802
15308TIP3    H167339   4.924   6.014  12.688 -1.3958  1.5866  1.5184
15308TIP3    H267340   4.900   6.147  12.620  1.1480  0.5828 -1.5843
15309TIP3   OH267341   1.140   5.472   4.869 -0.4012  0.1349 -0.3553
15309TIP3    H167342   1.084   5.396   4.853 -0.5972 -0.1768  1.5143
15309TIP3    H267343   1.220   5.453   4.820 -1.4609  0.0219 -2.0941
15310TIP3   OH267344   1.622   2.507  14.385  0.0470  0.4564 -0.0533
15310TIP3    H167345   1.598   2.502  14.292 -1.8496 -3.1591  0.4205
15310TIP3    H267346   1.715   2.531  14.385 -0.3464  2.3874 -2.7202
15311TIP3   OH267347   5.694   0.479  17.281 -0.1217 -0.4360  0.6076
15311TIP3    H167348   5.763   0.473  17.215 -3.0782 -0.1083 -2.7427
15311TIP3    H267349   5.670   0.388  17.299 -0.6099 -0.4782 -0.2450
15312TIP3   OH267350   2.421   3.822   6.264  0.4136 -0.7951  0.6470
15312TIP3    H167351   2.516   3.825   6.255  0.2164 -1.1755 -2.6671
15312TIP3    H267352   2.397   3.910   6.293  1.6981 -0.4428  0.7031
15313TIP3   OH267353   2.309   4.564   6.288 -0.0307 -0.7290  0.0880
15313TIP3    H167354   2.334   4.538   6.199 -0.5175 -0.6778 -0.0642
15313TIP3    H267355   2.378   4.625   6.315  0.1771 -0.8268 -0.2121
15314TIP3   OH267356   5.340   4.807  17.243  0.5479  0.0187 -0.0287
15314TIP3    H167357   5.252   4.845  17.247  0.1275 -0.9531  0.1220
15314TIP3    H267358   5.369   4.806  17.334  0.8364  0.5924 -0.1082
15315TIP3   OH267359   4.940   4.160  13.136 -0.5603  1.0231  0.3194
15315TIP3    H167360   4.973   4.172  13.047  1.0886  2.5366  1.0775
15315TIP3    H267361   4.934   4.065  13.147  1.1557  0.7506 -0.7540
15316TIP3   OH267362   5.840   1.954  11.785 -0.1466  0.2311 -0.4657
15316TIP3    H167363   5.808   2.006  11.711 -0.1379 -2.0504 -2.1807
15316TIP3    H267364   5.760   1.923  11.828 -0.1507  0.5126 -0.2616
15317TIP3   OH267365   5.470   1.320   1.796 -0.1945  0.5869  0.4368
15317TIP3    H167366   5.506   1.247   1.746 -1.1538  0.3943 -0.0038
15317TIP3    H267367   5.537   1.388   1.792 -0.5823  0.9128 -1.9052
15318TIP3   OH267368   4.160   3.515  16.973 -0.0612  0.3160 -0.6679
15318TIP3    H167369   4.170   3.606  16.945  1.6260  1.1589  2.1633
15318TIP3    H267370   4.077   3.514  17.021 -0.7280  0.0037 -1.8061
15319TIP3   OH267371   6.467   1.631  11.295 -0.1724 -0.2904  0.2157
15319TIP3    H167372   6.399   1.611  11.360 -0.4997 -2.2277 -0.6487
15319TIP3    H267373   6.426   1.612  11.211  0.8351  0.3791 -0.4466
15320TIP3   OH267374   3.178   2.279   0.987 -0.2966 -0.4422 -0.2052
15320TIP3    H167375   3.177   2.348   0.920 -2.5116  0.6289  0.8027
15320TIP3    H267376   3.163   2.198   0.938 -2.8222  0.4157 -1.0173
15321TIP3   OH267377   0.237   2.949   5.424  0.1295  0.2636  0.0205
15321TIP3    H167378   0.293   3.020   5.457  0.1403  1.0308 -1.5451
15321TIP3    H267379   0.201   2.909   5.503  1.3407  1.0130  1.0078
15322TIP3   OH267380   6.185   3.400  15.188  0.5027 -0.6126 -0.2587
15322TIP3    H167381   6.150   3.483  15.157 -0.5848 -1.7723 -2.3974
15322TIP3    H267382   6.261   3.382  15.133  1.5654 -0.4464  1.0903
15323TIP3   OH267383   3.023   4.791  16.239  0.1519  0.2081  0.7713
15323TIP3    H167384   3.076   4.712  16.247 -0.0973 -0.1374 -0.6373
15323TIP3    H267385   2.955   4.768  16.176  0.6162  1.8115 -0.3973
15324TIP3   OH267386   0.302   4.941   5.088 -0.0886  0.0803  0.2688
15324TIP3    H167387   0.314   5.018   5.033 -0.1593 -0.3144 -0.3074
15324TIP3    H267388   0.246   4.883   5.037  0.0878 -0.4198  0.6309
15325TIP3   OH267389   3.842   4.661   1.899  0.4131  0.3732 -0.5075
15325TIP3    H167390   3.796   4.731   1.853  0.2176  0.2545 -0.4970
15325TIP3    H267391   3.796   4.581   1.872 -0.9155  0.4595  1.3465
15326TIP3   OH267392   0.876   3.780  16.273  0.1315 -0.1043 -0.1241
15326TIP3    H167393   0.840   3.794  16.186  0.1713  0.6058 -0.0295
15326TIP3    H267394   0.800   3.755  16.326 -0.2181  1.2232  0.0349
15327TIP3   OH267395   6.596   4.635   6.340 -0.3466  0.0373 -0.2263
15327TIP3    H167396   6.522   4.638   6.401  0.3926 -1.3173  0.7892
15327TIP3    H267397   6.672   4.617   6.395  0.7940  1.5079 -1.2336
15328TIP3   OH267398   4.150   4.475  11.161 -0.1821  0.2561 -0.2163
15328TIP3    H167399   4.063   4.514  11.149 -0.1054  1.0783  1.5270
15328TIP3    H267400   4.151   4.401  11.101 -1.5054  1.1264 -1.4027
15329TIP3   OH267401   6.505   1.402   1.048 -0.4622 -0.0479  0.6608
15329TIP3    H167402   6.429   1.459   1.036 -0.5793 -0.2844  0.2501
15329TIP3    H267403   6.510   1.352   0.967  0.2059  0.0522  0.6393
15330TIP3   OH267404   6.354   4.146  11.442  0.0832  0.4227  0.2512
15330TIP3    H167405   6.271   4.147  11.394 -0.3807 -1.8818  0.8588
15330TIP3    H267406   6.420   4.170  11.378 -0.6180 -1.8023 -1.4407
15331TIP3   OH267407   3.120   1.592   0.823  0.1778  0.4079  0.4379
15331TIP3    H167408   3.097   1.557   0.737  1.1567  1.3070 -0.2014
15331TIP3    H267409   3.096   1.521   0.884  1.7482 -1.2643 -0.7709
15332TIP3   OH267410   3.442   3.205  15.423  0.3097  0.1263 -0.0812
15332TIP3    H167411   3.465   3.253  15.502  1.2588 -0.0881 -0.2183
15332TIP3    H267412   3.526   3.182  15.383 -0.1300 -1.1908 -0.2895
15333TIP3   OH267413   1.358   0.632   3.847  0.1054  0.0732  0.3240
15333TIP3    H167414   1.444   0.670   3.862  0.1498  1.4510 -2.5676
15333TIP3    H267415   1.372   0.538   3.851  1.3577  0.2840  1.5420
15334TIP3   OH267416   2.578   1.295  14.636 -0.1282 -0.1850  0.6401
15334TIP3    H167417   2.619   1.311  14.551  0.3113 -3.0937  0.2068
15334TIP3    H267418   2.613   1.363  14.693 -0.3574  1.7805 -1.4238
15335TIP3   OH267419   3.781   0.950   0.689 -0.0743 -0.4017 -0.3182
15335TIP3    H167420   3.861   0.976   0.644 -0.1361 -1.8757 -1.3358
15335TIP3    H267421   3.811   0.893   0.760  0.0411  2.0588  1.7479
15336TIP3   OH267422   6.188   2.740   0.555 -0.0105 -0.1086 -0.0500
15336TIP3    H167423   6.130   2.666   0.570  1.3473 -1.4699 -1.1805
15336TIP3    H267424   6.224   2.760   0.641 -1.5409  0.2694  0.5285
15337TIP3   OH267425   4.954   4.511  12.973 -0.0520 -0.1252 -0.5395
15337TIP3    H167426   4.872   4.466  12.953  0.1533 -1.4985  1.4437
15337TIP3    H267427   5.008   4.497  12.895 -1.1451 -0.5507 -1.2509
15338TIP3   OH267428   4.918   0.796   3.601  0.2326  0.1953  0.0061
15338TIP3    H167429   4.835   0.777   3.555  0.3433  0.9311 -0.5255
15338TIP3    H267430   4.964   0.855   3.541  0.3176  1.3113  1.1401
15339TIP3   OH267431   1.289   3.111  15.513 -0.5517  0.4269  0.1438
15339TIP3    H167432   1.220   3.115  15.446 -0.1277 -0.8456 -0.3959
15339TIP3    H267433   1.246   3.070  15.588 -0.7346  0.8512  0.2734
15340TIP3   OH267434   1.984   0.385   2.664  0.0015 -0.6141  0.5318
15340TIP3    H167435   1.943   0.378   2.578  0.7171  0.3347  0.1026
15340TIP3    H267436   2.054   0.449   2.653  1.0393 -1.5456  1.4698
15341TIP3   OH267437   6.139   0.218  12.030  0.1982  0.5121  0.3007
15341TIP3    H167438   6.094   0.303  12.025 -2.0733 -0.5902  0.8936
15341TIP3    H267439   6.192   0.224  12.110  0.6393  1.6208 -0.0567
15342TIP3   OH267440   5.495   2.626  15.289  0.1018 -0.0808  0.7905
15342TIP3    H167441   5.529   2.671  15.212  1.6344 -0.0758  1.4306
15342TIP3    H267442   5.573   2.606  15.341 -0.5235 -2.9923  0.8077
15343TIP3   OH267443   0.425   2.486  15.943 -0.2338  0.6245  0.3484
15343TIP3    H167444   0.506   2.447  15.976 -0.9898  0.6678  2.3724
15343TIP3    H267445   0.384   2.526  16.020 -1.9562  1.0043 -0.7118
15344TIP3   OH267446   5.581   5.695   2.594  0.2299 -0.0893  0.4930
15344TIP3    H167447   5.646   5.692   2.664  0.3376  1.1136  0.4606
15344TIP3    H267448   5.526   5.618   2.610  1.8780 -1.3606  0.2841
15345TIP3   OH267449   2.919   3.479   4.180 -0.0609 -0.8410 -0.1189
15345TIP3    H167450   3.003   3.435   4.191  0.1773 -0.1617  0.8902
15345TIP3    H267451   2.940   3.573   4.182 -0.6614 -0.6608 -1.3692
15346TIP3   OH267452   3.575   5.789   5.347 -0.2906  0.6866  0.0985
15346TIP3    H167453   3.614   5.807   5.261  1.2919  2.6795  1.1393
15346TIP3    H267454   3.532   5.871   5.371 -0.9653  0.0577  1.1150
15347TIP3   OH267455   4.794   2.811  12.267 -0.4115 -0.1448 -0.3235
15347TIP3    H167456   4.706   2.831  12.235 -0.7458 -0.1242  0.5867
15347TIP3    H267457   4.783   2.797  12.360  0.4965 -0.5329 -0.2665
15348TIP3   OH267458   6.059   3.781  16.999  0.0677  0.0322  0.4879
15348TIP3    H167459   5.985   3.824  16.955  0.5361  0.1301 -0.2196
15348TIP3    H267460   6.067   3.827  17.083  0.0344  0.7842  0.0905
15349TIP3   OH267461   2.138   0.413   1.208 -0.3851  0.1201 -0.2528
15349TIP3    H167462   2.210   0.475   1.194 -0.4775  0.0282 -1.2172
15349TIP3    H267463   2.173   0.351   1.272  0.2790  0.2793 -0.4463
15350TIP3   OH267464   2.153   6.340   1.926  0.1274 -0.1519 -0.0549
15350TIP3    H167465   2.163   6.273   1.858  0.3598  0.6941 -0.8810
15350TIP3    H267466   2.216   6.408   1.902  0.8787 -0.2521  1.5490
15351TIP3   OH267467   0.285   4.446  14.602 -0.3737 -0.3377 -0.3579
15351TIP3    H167468   0.364   4.454  14.548 -0.8393  1.6696 -0.8535
15351TIP3    H267469   0.253   4.358  14.586  0.6921 -0.5149 -1.6852
15352TIP3   OH267470   2.194   4.917   1.561 -0.0040 -0.1361  0.6212
15352TIP3    H167471   2.200   4.990   1.622 -1.8571 -0.1907  0.9050
15352TIP3    H267472   2.191   4.839   1.617 -0.1769 -0.2922  0.3940
15353TIP3   OH267473   5.129   0.647  11.189 -0.2022 -0.1336 -0.1165
15353TIP3    H167474   5.138   0.552  11.202 -1.5866 -0.1853  0.6927
15353TIP3    H267475   5.179   0.686  11.261 -0.8668 -0.2924  0.4446
15354TIP3   OH267476   0.323   3.201  12.109  0.0563 -0.4642 -0.0386
15354TIP3    H167477   0.262   3.132  12.085 -0.9446  0.6499 -0.8831
15354TIP3    H267478   0.329   3.197  12.204 -0.8145 -1.0409  0.0029
15355TIP3   OH267479   4.036   3.988  15.912  0.0862  0.0407  0.0284
15355TIP3    H167480   4.020   4.075  15.949  2.8894  1.6433 -2.0630
15355TIP3    H267481   4.095   3.946  15.975 -0.6069 -0.0544  0.6317
15356TIP3   OH267482   3.316   2.098   2.704 -0.6585 -0.1409 -0.0628
15356TIP3    H167483   3.371   2.117   2.779 -0.6958 -4.0609  1.1586
15356TIP3    H267484   3.358   2.023   2.661 -3.3221 -1.2603 -0.9192
15357TIP3   OH267485   5.574   5.557  17.186 -0.1060  0.0886  0.4235
15357TIP3    H167486   5.490   5.537  17.144  0.3409 -0.3050 -0.3044
15357TIP3    H267487   5.577   5.653  17.190  0.5739  0.2356 -2.0348
15358TIP3   OH267488   0.215   5.813  14.010  0.4291 -0.1952 -0.1456
15358TIP3    H167489   0.179   5.875  13.946  1.6004  1.7175  0.9514
15358TIP3    H267490   0.221   5.730  13.963 -1.2305  0.4984 -1.6719
15359TIP3   OH267491   4.445   0.230  15.434  0.2851  0.1446 -0.0512
15359TIP3    H167492   4.493   0.310  15.413  0.7822 -0.0547  0.2999
15359TIP3    H267493   4.460   0.173  15.358  0.7976  0.0038  0.1449
15360TIP3   OH267494   2.952   3.896   2.333 -0.4221  0.1192 -0.1427
15360TIP3    H167495   2.918   3.958   2.397  1.0680  1.4744 -0.5781
15360TIP3    H267496   2.951   3.945   2.250 -1.3910 -1.2575 -0.9691
15361TIP3   OH267497   5.819   3.879  16.666 -0.0901 -0.0222 -0.0080
15361TIP3    H167498   5.766   3.954  16.693 -1.6102  0.2028 -3.1908
15361TIP3    H267499   5.885   3.917  16.608  0.2343 -0.9527 -0.2553
15362TIP3   OH267500   4.281   2.783  14.303 -0.3902  0.1193 -0.1458
15362TIP3    H167501   4.217   2.792  14.232 -1.3855  1.1195  0.8293
15362TIP3    H267502   4.230   2.799  14.383  0.9391  0.2262  0.7118
15363TIP3   OH267503   6.706   1.037  13.360  0.3230 -0.5149 -0.5142
15363TIP3    H167504   6.647   0.972  13.400  1.2173  0.1950  2.1520
15363TIP3    H267505   6.768   0.984  13.310 -0.6146 -1.4890 -0.7058
15364TIP3   OH267506   0.266   1.059  13.209  0.2770  0.3206 -0.1416
15364TIP3    H167507   0.246   0.988  13.148 -1.1420 -0.1884  0.8823
15364TIP3    H267508   0.355   1.086  13.186  0.6832 -1.5003 -0.8286
15365TIP3   OH267509   2.884   5.924  14.665 -0.2735  0.2172  0.3387
15365TIP3    H167510   2.884   5.994  14.729 -0.1081  0.4614  0.0739
15365TIP3    H267511   2.975   5.916  14.636 -0.4704  0.6443 -0.4356
15366TIP3   OH267512   2.240   3.427  16.806  0.2846 -0.1872  0.1165
15366TIP3    H167513   2.182   3.474  16.865  0.5585 -1.2126  1.2498
15366TIP3    H267514   2.322   3.418  16.855  0.0880 -2.2319  0.1791
15367TIP3   OH267515   6.571   6.555  14.980 -0.1937 -0.0972 -0.2699
15367TIP3    H167516   6.618   6.491  15.035 -0.5673  0.2242  0.4429
15367TIP3    H267517   6.547   6.506  14.902 -0.5461 -0.8697  0.3003
15368TIP3   OH267518   5.431   3.905  12.707  0.0379  0.3338 -0.2573
15368TIP3    H167519   5.358   3.935  12.652 -0.7313  1.7192  1.4186
15368TIP3    H267520   5.403   3.820  12.739  0.0611 -0.0364 -1.1713
15369TIP3   OH267521   6.555   2.058   4.528 -0.5942  0.1411 -0.1659
15369TIP3    H167522   6.525   2.141   4.564  1.3365  1.3359 -1.1302
15369TIP3    H267523   6.581   2.006   4.604 -1.1001  0.7268  0.4126
15370TIP3   OH267524   0.908   1.458  17.257 -0.3448 -0.4760  0.0376
15370TIP3    H167525   0.883   1.488  17.345  0.0909  0.0496 -0.0142
15370TIP3    H267526   0.981   1.515  17.232 -1.0751  0.0228 -1.0487
15371TIP3   OH267527   6.761   0.179  11.240  0.2362  0.2482 -0.1867
15371TIP3    H167528   6.746   0.179  11.145  0.9588  0.3061 -0.3141
15371TIP3    H267529   6.687   0.226  11.277 -0.2209 -0.0694 -0.6970
15372TIP3   OH267530   4.142   0.979  11.658  0.5062  0.1262  0.4064
15372TIP3    H167531   4.103   1.066  11.666  2.7633  1.3270 -0.5396
15372TIP3    H267532   4.145   0.946  11.748 -0.4009  1.0241  0.7823
15373TIP3   OH267533   5.811   4.721   3.588  0.0644  0.4657  1.3617
15373TIP3    H167534   5.760   4.778   3.532 -1.2254 -0.9878  0.9868
15373TIP3    H267535   5.902   4.737   3.563 -0.4832 -0.5944 -1.6932
15374TIP3   OH267536   1.258   5.332  12.103  0.5523 -0.0585  0.3962
15374TIP3    H167537   1.269   5.311  12.011  0.7044  0.6427  0.2492
15374TIP3    H267538   1.347   5.352  12.134  0.1299  3.3626 -0.2352
15375TIP3   OH267539   6.511   1.715  14.262  0.0645 -0.3054  0.1008
15375TIP3    H167540   6.474   1.785  14.317 -0.1170  0.3045 -0.7700
15375TIP3    H267541   6.513   1.753  14.174  2.4073 -0.4657  0.0266
15376TIP3   OH267542   4.661   5.899  16.240  0.2090  0.0841 -0.2639
15376TIP3    H167543   4.651   5.909  16.146 -0.0309  0.3776 -0.2072
15376TIP3    H267544   4.743   5.851  16.250  1.7802  2.5320 -0.5221
15377TIP3   OH267545   1.015   1.550   4.382  0.4055 -0.4259  1.1385
15377TIP3    H167546   1.060   1.611   4.324 -0.1150  0.1390  1.3208
15377TIP3    H267547   1.032   1.584   4.470  0.3624 -0.7197  1.2617
15378TIP3   OH267548   5.736   4.759  16.875 -0.6814  0.2817 -0.0992
15378TIP3    H167549   5.715   4.800  16.791 -2.3554 -0.7751 -0.2456
15378TIP3    H267550   5.652   4.752  16.920 -0.0225 -0.4826  1.0689
15379TIP3   OH267551   5.295   3.250   6.535 -0.3971  0.0773  0.2373
15379TIP3    H167552   5.243   3.177   6.503  0.4121 -1.0228  1.3198
15379TIP3    H267553   5.297   3.238   6.630  0.0045  1.3471  0.4086
15380TIP3   OH267554   4.082   5.582   2.345 -0.2111 -0.1130 -0.1333
15380TIP3    H167555   4.059   5.569   2.253  0.9248 -0.5635 -0.3774
15380TIP3    H267556   4.100   5.675   2.353  1.7733 -0.3671 -0.9215
15381TIP3   OH267557   3.579   5.550   3.293 -0.3346 -0.5152 -0.6492
15381TIP3    H167558   3.591   5.470   3.342 -0.0964 -0.1630 -0.1233
15381TIP3    H267559   3.489   5.547   3.262 -0.9192 -0.1285  0.9287
15382TIP3   OH267560   6.706   0.472   0.228  0.0694 -0.6123 -0.0364
15382TIP3    H167561   6.784   0.513   0.264  0.1087  0.2855 -1.1011
15382TIP3    H267562   6.632   0.516   0.270  0.1274 -0.8950  0.3620
15383TIP3   OH267563   2.882   5.220  16.752  0.3914 -0.5144 -0.1896
15383TIP3    H167564   2.906   5.160  16.823  2.1995  0.9307  0.5164
15383TIP3    H267565   2.965   5.255  16.722 -0.4910  0.2714 -1.8341
15384TIP3   OH267566   3.390   2.269  15.511  0.5580  0.3815  0.6576
15384TIP3    H167567   3.403   2.270  15.416 -1.1507 -0.1946  0.3815
15384TIP3    H267568   3.327   2.198  15.525  0.4573  0.7476  2.1825
15385TIP3   OH267569   3.421   2.551   5.985  0.3957 -0.4344 -0.6870
15385TIP3    H167570   3.418   2.474   6.042 -2.0908 -0.1234 -0.2696
15385TIP3    H267571   3.383   2.621   6.038  3.5098  1.4364 -0.6912
15386TIP3   OH267572   2.938   1.120   3.070  0.2248  0.4360  0.5474
15386TIP3    H167573   2.887   1.174   3.010  0.4271  0.9139  0.8023
15386TIP3    H267574   2.882   1.108   3.146  1.3473  2.9835  1.8822
15387TIP3   OH267575   4.709   2.599   2.857 -0.3926 -0.6180 -0.1925
15387TIP3    H167576   4.650   2.619   2.930 -1.5325 -1.1856 -0.9257
15387TIP3    H267577   4.795   2.625   2.888 -0.9982  0.0752  0.9868
15388TIP3   OH267578   4.648   0.490   4.917  0.4550  0.2919  0.1541
15388TIP3    H167579   4.709   0.491   4.990  0.1164 -0.6189  0.4509
15388TIP3    H267580   4.636   0.398   4.895  0.9011  0.5547 -1.3516
15389TIP3   OH267581   4.104   4.692  13.807 -0.5999 -0.2316  0.0979
15389TIP3    H167582   4.070   4.697  13.717 -0.8095 -0.6771  0.1490
15389TIP3    H267583   4.113   4.598  13.824 -0.4431 -0.1451  0.4995
15390TIP3   OH267584   2.378   0.050  11.450 -0.5439 -0.3628 -0.1573
15390TIP3    H167585   2.360  -0.020  11.387 -0.0645 -0.9443  0.3337
15390TIP3    H267586   2.330   0.126  11.417 -0.0943 -0.5871 -1.3449
15391TIP3   OH267587   3.552   0.797   5.674  0.3909  0.4114  0.2416
15391TIP3    H167588   3.616   0.858   5.711  1.8510 -1.5143  1.0735
15391TIP3    H267589   3.596   0.761   5.597 -1.9259  3.0755 -2.6087
15392TIP3   OH267590   4.297   3.032   1.409  0.0069 -0.1913 -0.1504
15392TIP3    H167591   4.332   3.102   1.465  1.2839 -0.9164 -0.0135
15392TIP3    H267592   4.270   2.964   1.470 -2.5228  0.6632 -0.1892
15393TIP3   OH267593   5.962   5.782   6.477  0.2414 -0.1090 -0.1520
15393TIP3    H167594   5.962   5.873   6.506  0.0581 -0.5001  1.1388
15393TIP3    H267595   5.955   5.731   6.558  1.8643 -1.3105 -0.7064
15394TIP3   OH267596   2.829   1.552   5.211 -0.3586 -0.2382 -0.0409
15394TIP3    H167597   2.839   1.644   5.186 -0.1435 -0.1747  0.2677
15394TIP3    H267598   2.883   1.543   5.290 -0.3665 -0.6338 -0.0802
15395TIP3   OH267599   2.044   5.425   5.967  0.5544  0.2071  0.6113
15395TIP3    H167600   2.018   5.515   5.989  1.2249  0.7255 -0.5913
15395TIP3    H267601   2.078   5.389   6.048  1.2955  1.4240  0.8771
15396TIP3   OH267602   3.654   0.960   6.118  0.3268  0.2985 -0.1431
15396TIP3    H167603   3.691   0.880   6.156  2.2174  1.2653  0.1628
15396TIP3    H267604   3.716   0.984   6.048  0.2252  1.9015  0.2802
15397TIP3   OH267605   4.081   5.028   5.049 -0.7325  0.2305 -0.0145
15397TIP3    H167606   4.142   4.962   5.083 -2.5096 -1.0560  0.8609
15397TIP3    H267607   4.136   5.100   5.021  1.0668  0.1657  3.0048
15398TIP3   OH267608   0.530   3.123   2.956 -0.5155 -0.5719  0.5052
15398TIP3    H167609   0.614   3.160   2.929 -0.6883 -0.1968  0.4613
15398TIP3    H267610   0.537   3.115   3.051 -1.0291  1.0570  0.7142
15399TIP3   OH267611   3.775   1.529  16.278  0.3954  0.1770 -0.4616
15399TIP3    H167612   3.768   1.502  16.370  0.8891 -0.6142 -0.6426
15399TIP3    H267613   3.759   1.623  16.279  1.2570  0.3340  0.5584
15400TIP3   OH267614   4.699   6.406  14.042 -0.1364  0.1783  0.5360
15400TIP3    H167615   4.643   6.427  14.116 -0.3785  0.7750  0.1855
15400TIP3    H267616   4.779   6.457  14.057 -0.6488  1.2419 -0.2128
15401TIP3   OH267617   0.780   0.250  17.083 -0.5925 -0.2619 -0.1692
15401TIP3    H167618   0.748   0.231  16.994 -0.1156  1.8022 -0.8407
15401TIP3    H267619   0.795   0.344  17.083  1.5416 -0.5345  1.4316
15402TIP3   OH267620   2.397   5.073   0.671  0.9518 -0.5836 -0.0501
15402TIP3    H167621   2.387   5.156   0.719  0.3127  0.4738 -1.9014
15402TIP3    H267622   2.324   5.019   0.702  1.1048 -0.2924  0.8410
15403TIP3   OH267623   1.067   3.539  14.570 -0.2062  0.1874  0.4356
15403TIP3    H167624   1.081   3.464  14.627 -1.0119 -1.0947 -0.9576
15403TIP3    H267625   1.029   3.502  14.490 -2.3376  2.2568  0.3552
15404TIP3   OH267626   4.271   3.956  15.481  0.0508  0.4228  0.4134
15404TIP3    H167627   4.284   3.896  15.408  2.1699  0.2132  0.8958
15404TIP3    H267628   4.344   4.017  15.476  0.1143  0.5561  2.2134
15405TIP3   OH267629   6.386   1.099   2.986 -0.0768  0.2124 -0.4478
15405TIP3    H167630   6.355   1.079   2.897  0.4857  2.0578 -1.0953
15405TIP3    H267631   6.374   1.193   2.995  1.8133  0.3868  0.6826
15406TIP3   OH267632   3.838   4.167  14.501  0.1602 -0.3168 -0.0805
15406TIP3    H167633   3.926   4.131  14.514 -0.2091 -1.2123  0.0454
15406TIP3    H267634   3.841   4.208  14.415  1.6682  2.6919  1.2701
15407TIP3   OH267635   6.181   4.962   2.563 -0.1174 -0.8667 -0.4303
15407TIP3    H167636   6.117   4.920   2.620  0.5719 -0.0496  1.0061
15407TIP3    H267637   6.175   5.055   2.584  0.7397 -0.6419 -1.0981
15408TIP3   OH267638   5.678   5.576   4.032 -0.7896  0.0155 -0.3239
15408TIP3    H167639   5.772   5.585   4.017 -0.9482  0.3816 -1.1505
15408TIP3    H267640   5.671   5.515   4.105  0.0585 -0.7480 -0.8671
15409TIP3   OH267641   2.548   4.374  14.572  0.1811  0.5096  0.2613
15409TIP3    H167642   2.475   4.427  14.602  0.7566  2.7411 -1.9213
15409TIP3    H267643   2.621   4.399  14.628 -0.1967 -0.1475  1.0693
15410TIP3   OH267644   3.456   5.997  16.906  0.3777  0.2479  0.2924
15410TIP3    H167645   3.499   6.023  16.825  0.0131 -0.2926 -0.0881
15410TIP3    H267646   3.466   5.902  16.908 -1.5191 -0.0180 -0.2678
15411TIP3   OH267647   2.765   5.377   1.498 -0.2334 -0.2403 -0.3077
15411TIP3    H167648   2.728   5.356   1.584 -1.4703 -3.5676 -1.4683
15411TIP3    H267649   2.832   5.310   1.483 -0.4040 -0.0634 -2.1285
15412TIP3   OH267650   4.698   3.305  15.880  0.5153  0.1531 -0.2364
15412TIP3    H167651   4.722   3.318  15.972  1.9655  1.1417 -0.7306
15412TIP3    H267652   4.681   3.211  15.873 -2.1199  0.3744  1.5771
15413TIP3   OH267653   0.477   5.582   3.346  0.5885 -0.5670 -0.1100
15413TIP3    H167654   0.387   5.568   3.315  0.0969  0.1423  0.9591
15413TIP3    H267655   0.496   5.673   3.324  1.1681 -0.7969 -0.5955
15414TIP3   OH267656   4.777   6.450  15.601  0.2648  0.3355 -0.0662
15414TIP3    H167657   4.688   6.415  15.604  0.3546 -0.0294 -1.1586
15414TIP3    H267658   4.768   6.533  15.555  0.6794 -0.3955 -1.5086
15415TIP3   OH267659   2.745   0.638  17.063 -0.8598 -0.2616  0.0072
15415TIP3    H167660   2.834   0.658  17.095 -0.7464 -0.5211 -0.1437
15415TIP3    H267661   2.728   0.549  17.095 -0.7231 -0.5470 -0.6973
15416TIP3   OH267662   2.880   4.948   1.037  0.3590 -0.1163 -0.4055
15416TIP3    H167663   2.882   5.041   1.058  1.9785 -0.4699  1.2354
15416TIP3    H267664   2.967   4.930   1.000  0.6606 -1.2637  0.7899
15417TIP3   OH267665   3.390   3.579  11.983  0.0109 -0.0306  0.0915
15417TIP3    H167666   3.377   3.527  12.062 -2.0771 -1.0762 -0.8435
15417TIP3    H267667   3.404   3.668  12.015  0.8247 -0.6933  1.6597
15418TIP3   OH267668   5.604   2.142  15.780  0.0504 -0.3176  0.8665
15418TIP3    H167669   5.610   2.107  15.869  1.3947 -0.1151  0.8850
15418TIP3    H267670   5.602   2.064  15.724  0.2774 -0.4480  1.0370
15419TIP3   OH267671   3.483   2.500  16.066 -0.3712  0.3454 -0.4260
15419TIP3    H167672   3.408   2.447  16.096  0.6196 -1.9009 -1.6684
15419TIP3    H267673   3.511   2.547  16.145 -1.7240 -0.4986  0.6154
15420TIP3   OH267674   5.759   1.426  11.292  0.7033 -0.1462 -0.4885
15420TIP3    H167675   5.796   1.355  11.239 -1.5796 -1.7703 -0.0589
15420TIP3    H267676   5.793   1.411  11.380 -0.0367 -0.9566 -0.3268
15421TIP3   OH267677   0.006   2.436   4.311 -0.3243 -0.8626  0.0286
15421TIP3    H167678   0.078   2.430   4.374 -0.3954 -2.9778 -0.0137
15421TIP3    H267679   0.027   2.514   4.259  0.8299 -0.2616  1.3133
15422TIP3   OH267680   4.133   1.119   3.687  0.3084 -0.0562 -0.7233
15422TIP3    H167681   4.171   1.041   3.646  0.3885  0.7197 -2.1881
15422TIP3    H267682   4.082   1.085   3.760  0.3923 -1.4823 -1.2909
15423TIP3   OH267683   4.211   4.830   2.476  0.3853  0.3979 -0.1070
15423TIP3    H167684   4.130   4.808   2.522  0.2925 -1.0378 -0.8939
15423TIP3    H267685   4.200   4.921   2.449 -0.0025  0.9299  1.7319
15424TIP3   OH267686   5.813   3.957  12.717  0.3826  0.2736  0.5926
15424TIP3    H167687   5.760   4.029  12.680  0.4245  0.0028 -0.0002
15424TIP3    H267688   5.854   3.996  12.794  0.7812  1.0310  0.0124
15425TIP3   OH267689   1.845   6.628  10.564  0.9306  0.4309 -0.1514
15425TIP3    H167690   1.797   6.591  10.490  1.0092 -1.2276  0.5905
15425TIP3    H267691   1.796   6.600  10.641  1.0808  1.7913  0.4757
15426TIP3   OH267692   1.317   5.814  16.714 -0.3346 -0.0560 -0.0242
15426TIP3    H167693   1.359   5.898  16.735 -1.7253  0.5624  0.4129
15426TIP3    H267694   1.378   5.771  16.655  0.4990  1.1919 -0.1129
15427TIP3   OH267695   5.021   2.474  11.101  0.1115  0.0429  0.0832
15427TIP3    H167696   5.045   2.396  11.152 -0.3410 -1.9025 -2.4750
15427TIP3    H267697   4.956   2.518  11.155 -3.1901 -3.9045 -0.1490
15428TIP3   OH267698   3.083   2.323  13.992  0.1452  0.2349 -0.1591
15428TIP3    H167699   3.017   2.391  13.980  0.0807  0.1683 -0.1765
15428TIP3    H267700   3.034   2.245  14.019  0.2753  0.3387  0.3729
15429TIP3   OH267701   1.610   3.066  13.658 -0.6885 -0.2710 -0.0341
15429TIP3    H167702   1.566   3.120  13.725 -0.3547 -1.4438  1.1793
15429TIP3    H267703   1.563   2.983  13.661  0.1818 -0.7742 -0.3376
15430TIP3   OH267704   0.472   4.276   4.976  0.1680 -0.2612 -0.0177
15430TIP3    H167705   0.451   4.321   5.059  2.1351  1.3752 -0.3113
15430TIP3    H267706   0.412   4.202   4.973  1.3031 -1.6123  3.8772
15431TIP3   OH267707   0.105   5.365   2.975  0.6486  0.0581  0.2426
15431TIP3    H167708   0.128   5.275   2.997 -0.0262  0.2053  1.6748
15431TIP3    H267709   0.009   5.364   2.967  0.7067  0.4687 -0.6862
15432TIP3   OH267710   6.095   0.756  10.892  0.5136  0.0494  0.0275
15432TIP3    H167711   6.001   0.739  10.893  0.8278 -2.0275 -0.2937
15432TIP3    H267712   6.118   0.762  10.799  1.0740 -2.2200 -0.0325
15433TIP3   OH267713   1.320   0.314   3.336 -0.0506 -0.0822 -0.4718
15433TIP3    H167714   1.258   0.373   3.294 -2.8858 -1.9490  0.7909
15433TIP3    H267715   1.359   0.264   3.263 -0.1724  0.9555 -1.2700
15434TIP3   OH267716   4.017   0.641  15.519 -0.0946  0.2810 -0.5749
15434TIP3    H167717   4.092   0.700  15.517 -0.1488  0.3343 -1.5894
15434TIP3    H267718   4.053   0.557  15.547  0.4249  0.2103 -1.4335
15435TIP3   OH267719   1.153   0.761   4.756 -0.1651  0.0976  0.8163
15435TIP3    H167720   1.161   0.705   4.834  2.5430  0.9236  1.2476
15435TIP3    H267721   1.182   0.847   4.786  2.8864  0.0252 -1.4350
15436TIP3   OH267722   0.169   1.898   1.088  0.1565  0.0688 -0.6926
15436TIP3    H167723   0.219   1.902   1.006  2.2288  3.0801  0.4953
15436TIP3    H267724   0.114   1.976   1.086  0.5054  0.3967  0.8696
15437TIP3   OH267725   2.310   3.121  11.819 -0.5457 -0.0591  0.6051
15437TIP3    H167726   2.259   3.090  11.894  0.6408 -3.0033  0.3167
15437TIP3    H267727   2.395   3.079  11.829  0.5392  1.6384 -0.9956
15438TIP3   OH267728   3.399   1.547   5.740  0.4369  0.3272 -0.8277
15438TIP3    H167729   3.492   1.568   5.739  0.3852  0.5684 -0.7468
15438TIP3    H267730   3.358   1.619   5.693  0.1234  1.0885  0.5598
15439TIP3   OH267731   6.411   5.166  11.761  0.2401  0.2286  0.1851
15439TIP3    H167732   6.352   5.130  11.826 -1.5794  0.7075 -1.1236
15439TIP3    H267733   6.393   5.115  11.682  1.7957  0.2100 -0.1846
15440TIP3   OH267734   0.332   3.484   3.342  0.1886  0.5303  0.0688
15440TIP3    H167735   0.283   3.441   3.272  1.4105  0.8288 -1.0065
15440TIP3    H267736   0.353   3.571   3.307  2.1089  0.1577  0.1779
15441TIP3   OH267737   3.525   5.882  11.571  0.1756 -0.4440  0.1766
15441TIP3    H167738   3.604   5.893  11.518  1.2046 -1.3617  1.4470
15441TIP3    H267739   3.558   5.873  11.661 -1.5629  2.9103  1.3383
15442TIP3   OH267740   2.765   0.180  14.622  0.1434 -0.2582 -0.3489
15442TIP3    H167741   2.851   0.219  14.607  0.8070 -0.7920  1.7400
15442TIP3    H267742   2.713   0.251  14.660  0.1869 -0.3808 -0.0583
15443TIP3   OH267743   1.983   4.791  11.249 -0.5076  0.0775  0.1097
15443TIP3    H167744   2.031   4.711  11.227 -0.5313  0.1062 -0.0491
15443TIP3    H267745   2.017   4.857  11.188 -1.2075 -0.0610 -0.4472
15444TIP3   OH267746   6.668   2.712   6.380 -0.6585 -0.1976 -0.0464
15444TIP3    H167747   6.737   2.778   6.369  0.0137 -1.0185 -1.0340
15444TIP3    H267748   6.640   2.721   6.470 -0.3575  1.2201 -0.0706
15445TIP3   OH267749   2.956   4.310  15.672 -0.4155 -0.0885  0.1864
15445TIP3    H167750   3.016   4.319  15.746 -0.8930  0.2211  0.5401
15445TIP3    H267751   2.913   4.226  15.686 -0.9605  0.2542  0.6041
15446TIP3   OH267752   5.605   1.289  12.782  0.3562 -0.2924 -0.5048
15446TIP3    H167753   5.557   1.262  12.704  1.5669 -4.2275 -0.0946
15446TIP3    H267754   5.589   1.219  12.845  1.4594  1.4963  1.9358
15447TIP3   OH267755   5.981   0.749   4.292 -0.5672 -0.3790  0.1310
15447TIP3    H167756   5.886   0.760   4.297 -0.6816 -1.7741  1.9113
15447TIP3    H267757   6.017   0.828   4.333 -0.9429  0.0845 -0.4159
15448TIP3   OH267758   6.445   5.812  12.797 -0.5443 -0.4307 -0.1403
15448TIP3    H167759   6.361   5.768  12.789 -0.4432 -0.5088 -0.9048
15448TIP3    H267760   6.433   5.895  12.750 -1.1698  1.0445  2.4521
15449TIP3   OH267761   0.888   0.049  14.166  0.7838  0.3461  0.4216
15449TIP3    H167762   0.856   0.139  14.172  0.2552  0.1217  1.0390
15449TIP3    H267763   0.975   0.057  14.128  0.4357  1.0569 -0.2419
15450TIP3   OH267764   3.110   2.479   0.110 -0.1247  0.5952 -0.4068
15450TIP3    H167765   3.197   2.438   0.105  0.0441  0.6375  1.5530
15450TIP3    H267766   3.123   2.556   0.166 -1.2701  1.0726 -0.7660
15451TIP3   OH267767   3.257   6.334   4.370  0.0998  0.1531  0.3225
15451TIP3    H167768   3.232   6.402   4.432 -0.9922  0.5098 -0.4665
15451TIP3    H267769   3.240   6.373   4.284 -0.0776 -0.9307 -0.1511
15452TIP3   OH267770   4.887   2.031   2.510  0.1593 -0.3163  0.4231
15452TIP3    H167771   4.916   2.091   2.578 -0.1038  1.1391 -0.6928
15452TIP3    H267772   4.943   2.050   2.435 -1.8620  0.7460 -0.9278
15453TIP3   OH267773   6.263   2.470  12.238  0.1386  0.1235  0.7089
15453TIP3    H167774   6.279   2.391  12.186  1.3274  1.1273 -0.5426
15453TIP3    H267775   6.188   2.512  12.195 -0.0313  0.0492  0.9296
15454TIP3   OH267776   6.595   2.133   0.728  0.3596 -0.1551 -0.1395
15454TIP3    H167777   6.547   2.113   0.809  0.4093  1.4316  0.3195
15454TIP3    H267778   6.556   2.075   0.662 -1.3491  0.2136  0.4980
15455TIP3   OH267779   4.399   1.228   4.874 -0.1312 -0.6506 -0.2837
15455TIP3    H167780   4.441   1.173   4.940 -0.6582 -0.2419  0.4059
15455TIP3    H267781   4.470   1.281   4.837 -0.0857  0.3336  1.1617
15456TIP3   OH267782   5.801   5.268   1.881 -0.4686 -0.0977  0.1543
15456TIP3    H167783   5.808   5.352   1.927 -1.1048  0.4477 -0.7259
15456TIP3    H267784   5.716   5.272   1.836 -0.6259 -1.3193  0.3069
15457TIP3   OH267785   2.357   6.759  12.368 -0.7447 -0.4778 -0.0202
15457TIP3    H167786   2.264   6.782  12.358 -0.9442 -1.2921 -0.1381
15457TIP3    H267787   2.356   6.679  12.422 -0.0960 -0.3463  0.1920
15458TIP3   OH267788   1.091   3.740  16.611 -0.1022  0.9638  0.3536
15458TIP3    H167789   1.027   3.795  16.656  1.3368  1.2030  2.2102
15458TIP3    H267790   1.087   3.656  16.655  0.6035  0.8735  0.2656
15459TIP3   OH267791   4.953   0.892   1.165  0.0761  0.1064  0.0917
15459TIP3    H167792   4.939   0.901   1.259 -0.7420  0.1790 -0.0276
15459TIP3    H267793   4.958   0.982   1.133  0.6326  0.0809  0.1015
15460TIP3   OH267794   3.491   0.441   3.151  0.4980  0.0496 -0.1626
15460TIP3    H167795   3.557   0.504   3.123  0.9187 -0.2015  0.2366
15460TIP3    H267796   3.536   0.387   3.216 -0.1444 -0.0415  0.2127
15461TIP3   OH267797   4.816   0.150   0.395 -0.5279 -0.4437  0.6712
15461TIP3    H167798   4.817   0.110   0.482 -0.3227  0.9725  1.3428
15461TIP3    H267799   4.908   0.167   0.376 -0.3063 -2.8497 -0.8789
15462TIP3   OH267800   2.887   1.481  14.743  0.0678 -0.3305 -0.3545
15462TIP3    H167801   2.947   1.510  14.674 -0.9706  2.5929 -0.1474
15462TIP3    H267802   2.802   1.518  14.719 -1.0256 -1.8704  0.9190
15463TIP3   OH267803   5.186   3.783  11.081 -0.2953 -0.2410  0.1715
15463TIP3    H167804   5.197   3.780  10.986 -1.3868  1.4319 -0.0584
15463TIP3    H267805   5.153   3.696  11.104  0.7002 -0.9188 -0.8582
15464TIP3   OH267806   5.614   5.941   4.986  0.1496  0.5622 -0.2831
15464TIP3    H167807   5.524   5.940   5.019  0.0464  0.8697 -0.5457
15464TIP3    H267808   5.636   5.848   4.975 -0.2265  0.4905 -0.4572
15465TIP3   OH267809   5.114   6.218   5.200 -0.5262 -0.7659  0.3780
15465TIP3    H167810   5.106   6.242   5.108  0.9741 -1.1689  0.1166
15465TIP3    H267811   5.197   6.172   5.206  0.4043  0.9859  2.3062
15466TIP3   OH267812   4.857   4.859  11.593 -0.0635 -0.1989 -0.1923
15466TIP3    H167813   4.934   4.893  11.640  1.2074 -0.2568 -2.1128
15466TIP3    H267814   4.878   4.767  11.576 -0.8126 -0.3640 -0.2531
15467TIP3   OH267815   3.856   5.793   0.223  0.0687  0.3319  0.2590
15467TIP3    H167816   3.766   5.761   0.230  0.1144 -0.3704 -1.6666
15467TIP3    H267817   3.846   5.883   0.190  0.0549  0.6313  1.0707
15468TIP3   OH267818   4.381   3.792  15.299 -0.0446  0.2031 -0.7597
15468TIP3    H167819   4.342   3.862  15.247  0.4628  0.7375 -0.4282
15468TIP3    H267820   4.350   3.711  15.257 -1.9172  0.5913 -0.2223
15469TIP3   OH267821   4.098   6.473  12.468 -0.7846  0.0387  0.1066
15469TIP3    H167822   4.151   6.495  12.545 -0.7021 -2.2180  0.7556
15469TIP3    H267823   4.021   6.430  12.504  0.2026 -2.9481 -1.0742
15470TIP3   OH267824   6.226   1.994   0.020 -0.0563  0.5573 -0.1375
15470TIP3    H167825   6.134   1.981   0.043 -0.2767  2.0287 -0.0896
15470TIP3    H267826   6.274   1.947   0.087 -0.7669 -0.9484 -0.6384
15471TIP3   OH267827   3.574   3.485  15.454 -0.5303 -0.6444 -0.4339
15471TIP3    H167828   3.630   3.437  15.516 -1.4087 -0.9038  0.1716
15471TIP3    H267829   3.529   3.550  15.508 -0.2397  0.0880 -1.0570
15472TIP3   OH267830   1.834   2.921  14.902 -0.9118  0.0820 -0.2737
15472TIP3    H167831   1.790   2.983  14.843 -1.1146 -0.8773 -1.1627
15472TIP3    H267832   1.925   2.923  14.875 -1.1279 -0.9024 -1.1534
15473TIP3   OH267833   1.734   3.410  15.852 -0.2130  0.2460  0.4932
15473TIP3    H167834   1.716   3.500  15.825 -0.9145  0.4490  1.5325
15473TIP3    H267835   1.783   3.419  15.934  2.2957 -0.3401 -0.8456
15474TIP3   OH267836   6.169   1.059  11.337  0.1942 -0.5642  0.0473
15474TIP3    H167837   6.118   1.032  11.413 -0.7604 -0.8318 -0.6680
15474TIP3    H267838   6.169   0.983  11.279 -2.6000  0.8536 -2.0330
15475TIP3   OH267839   4.108   6.525   2.102  0.6861 -0.8254  0.0748
15475TIP3    H167840   4.167   6.558   2.035  1.3694 -2.1342 -0.0067
15475TIP3    H267841   4.148   6.442   2.130 -1.0327 -1.6752  0.1231
15476TIP3   OH267842   5.836   5.668  15.852  0.3416  0.1879 -0.2512
15476TIP3    H167843   5.839   5.676  15.757 -0.4124 -2.5872 -0.5713
15476TIP3    H267844   5.744   5.681  15.874  0.0853 -1.5547 -0.2005
15477TIP3   OH267845   5.000   0.560  12.560 -0.3623 -0.3344  0.4420
15477TIP3    H167846   4.994   0.641  12.610  0.1778 -0.4418  0.6928
15477TIP3    H267847   4.910   0.540  12.535 -0.3560  1.1789 -0.9928
15478TIP3   OH267848   1.577   1.487   0.405 -0.1451 -0.1549  0.3431
15478TIP3    H167849   1.513   1.416   0.411  0.3300 -0.5174  1.1812
15478TIP3    H267850   1.661   1.446   0.422  0.1590  0.5774  0.6504
15479TIP3   OH267851   5.194   1.911  11.007 -0.0624  0.5586  0.5977
15479TIP3    H167852   5.165   1.917  10.916  0.9876  1.8641  0.3138
15479TIP3    H267853   5.202   1.817  11.024  0.1728  0.3058 -0.8058
15480TIP3   OH267854   6.200   4.702  12.098  0.1598  0.0145  0.5351
15480TIP3    H167855   6.272   4.664  12.047 -1.9939  0.1329 -2.9127
15480TIP3    H267856   6.172   4.632  12.156 -0.0885 -1.8391 -1.6677
15481TIP3   OH267857   4.697   1.754  12.910  0.3130 -0.0571 -0.1741
15481TIP3    H167858   4.717   1.713  12.826  0.8922  0.4890 -0.3105
15481TIP3    H267859   4.727   1.691  12.975  1.3904  0.2301 -0.3834
15482TIP3   OH267860   0.749   3.140  11.629  0.1057  0.0009  0.4542
15482TIP3    H167861   0.813   3.203  11.594 -1.0668  0.3099 -1.2149
15482TIP3    H267862   0.665   3.171  11.597 -0.9160 -0.5099  2.4748
15483TIP3   OH267863   3.901   0.154   2.698  0.6049 -0.0583  0.3341
15483TIP3    H167864   3.959   0.084   2.666  0.7608 -0.0108  0.5147
15483TIP3    H267865   3.855   0.183   2.619 -0.0544 -0.9154  0.3875
15484TIP3   OH267866   5.484   0.196   3.806 -0.4691 -0.3635  0.0725
15484TIP3    H167867   5.418   0.207   3.875  1.2339  2.5634  1.4500
15484TIP3    H267868   5.467   0.269   3.746  1.2425  0.2310  0.2673
15485TIP3   OH267869   2.472   2.250   5.576  0.3924 -0.4744  0.1099
15485TIP3    H167870   2.513   2.164   5.582 -0.4038 -0.7946  3.9739
15485TIP3    H267871   2.411   2.244   5.503  1.6858 -2.5109 -0.8829
15486TIP3   OH267872   2.741   5.043  12.045 -0.3269 -0.3055 -0.1209
15486TIP3    H167873   2.798   4.966  12.049 -0.3448 -0.3524 -0.6249
15486TIP3    H267874   2.691   5.041  12.127 -2.7171 -2.7175 -1.4471
15487TIP3   OH267875   1.636   6.544  16.461 -0.1421  0.1882  0.4392
15487TIP3    H167876   1.609   6.478  16.525  0.2828  1.3143  1.8194
15487TIP3    H267877   1.555   6.590  16.439 -0.3721 -0.5146 -0.2275
15488TIP3   OH267878   5.586   3.530   6.813 -0.1927 -0.2732 -0.0434
15488TIP3    H167879   5.532   3.501   6.739 -0.8345 -0.1231  0.3553
15488TIP3    H267880   5.535   3.506   6.890  0.3307 -0.1506  0.3453
15489TIP3   OH267881   0.920   5.380  15.028  0.5206 -0.3349 -0.3808
15489TIP3    H167882   0.836   5.426  15.030  2.2316  3.0538  0.4265
15489TIP3    H267883   0.938   5.367  14.935  0.3348  1.4460 -0.6998
15490TIP3   OH267884   0.632   5.359   1.979 -0.3301 -0.0149  0.7264
15490TIP3    H167885   0.718   5.399   1.992 -0.1083  0.1740 -1.0573
15490TIP3    H267886   0.649   5.288   1.917 -1.3682 -0.3433  0.8164
15491TIP3   OH267887   6.119   2.170  12.468  0.3643  0.7278  0.1764
15491TIP3    H167888   6.052   2.158  12.535  1.3133 -3.2758  0.6140
15491TIP3    H267889   6.074   2.152  12.386  0.3924  0.4038  0.2341
15492TIP3   OH267890   1.295   0.694   5.197  0.5704 -0.6141 -0.3489
15492TIP3    H167891   1.339   0.776   5.177  1.0355 -0.0329  2.6053
15492TIP3    H267892   1.204   0.719   5.214  0.2883 -1.0212 -1.1641
15493TIP3   OH267893   5.534   0.737   5.609 -0.1615 -0.0074  0.0891
15493TIP3    H167894   5.462   0.790   5.645  0.2155  1.0663 -0.6602
15493TIP3    H267895   5.491   0.660   5.572 -1.2761  1.6748 -2.3917
15494TIP3   OH267896   6.205   0.601   0.116  0.1268 -0.4539  0.4882
15494TIP3    H167897   6.143   0.572   0.182 -1.5302  2.8967  0.6395
15494TIP3    H267898   6.249   0.677   0.155 -0.8451  1.6020 -2.0979
15495TIP3   OH267899   2.210   6.688  16.014  0.0816 -0.1043 -0.1310
15495TIP3    H167900   2.197   6.729  16.099  2.4984 -0.3678  0.4385
15495TIP3    H267901   2.139   6.722  15.959  0.7067  3.1712  0.8838
15496TIP3   OH267902   2.345   3.738  11.927 -0.0858  0.1551  0.1015
15496TIP3    H167903   2.398   3.743  12.007 -0.3502 -1.4531  0.4333
15496TIP3    H267904   2.375   3.810  11.872 -0.8681  2.2029  2.2017
15497TIP3   OH267905   6.242   6.752   2.583 -0.2537 -0.0495  0.1265
15497TIP3    H167906   6.314   6.721   2.637 -0.5873 -1.1087  0.0049
15497TIP3    H267907   6.257   6.845   2.572 -2.5343  1.3970  5.8033
15498TIP3   OH267908   5.944   2.873   4.625 -0.3218  0.0202 -0.0029
15498TIP3    H167909   5.889   2.824   4.687 -2.3295  0.1218 -1.5815
15498TIP3    H267910   6.000   2.807   4.585 -1.6533 -0.7350 -0.7215
15499TIP3   OH267911   3.781   4.472  13.850  0.2954 -0.1356  0.1641
15499TIP3    H167912   3.874   4.450  13.848  0.3419  0.0338 -1.7030
15499TIP3    H267913   3.775   4.542  13.916  1.5850  0.2208 -0.0581
15500TIP3   OH267914   5.105   1.873   5.645  0.3675  1.1520 -0.2276
15500TIP3    H167915   5.167   1.800   5.640 -0.9289  0.0637 -1.2978
15500TIP3    H267916   5.146   1.935   5.705  2.1663  0.1841 -0.3704
15501TIP3   OH267917   5.477   0.679   0.933  0.0623  0.0905 -0.4868
15501TIP3    H167918   5.451   0.687   1.025 -0.6703 -2.9580 -0.3163
15501TIP3    H267919   5.433   0.752   0.890  0.8059  1.8816  1.5940
15502TIP3   OH267920   4.456   3.352  12.918  0.4036 -0.2601  0.0983
15502TIP3    H167921   4.478   3.325  13.007 -1.0622  0.9440  0.8932
15502TIP3    H267922   4.416   3.275  12.879  1.3422 -0.8953  0.3713
15503TIP3   OH267923   0.099   6.535  14.654  0.2324 -0.0773  0.0656
15503TIP3    H167924   0.017   6.490  14.634  0.9122 -0.8762 -1.0509
15503TIP3    H267925   0.077   6.594  14.727 -0.9537 -1.3877  0.8130
15504TIP3   OH267926   1.923   0.451  14.440  0.4866 -0.1102  0.2960
15504TIP3    H167927   1.921   0.420  14.350 -0.7563 -1.8252  0.8511
15504TIP3    H267928   1.846   0.412  14.481  0.7085  1.0815  1.9633
15505TIP3   OH267929   1.078   6.741  15.295 -1.0464  0.4220  0.6558
15505TIP3    H167930   1.063   6.777  15.207  0.3094  1.7381  0.9366
15505TIP3    H267931   0.995   6.698  15.317 -0.9577 -1.2068 -1.8268
15506TIP3   OH267932   0.548   5.178  12.713 -0.4240  0.4293  0.2836
15506TIP3    H167933   0.634   5.155  12.749  0.2114  1.4729 -0.5070
15506TIP3    H267934   0.486   5.152  12.781  0.3205 -2.2263  0.0521
15507TIP3   OH267935   3.160   3.692   1.862 -0.2441  0.2225  0.3838
15507TIP3    H167936   3.190   3.769   1.911 -2.2193  0.5807  1.1102
15507TIP3    H267937   3.208   3.697   1.780  1.6659  0.7199  1.4775
15508TIP3   OH267938   5.646   2.909  10.887  0.9219  0.4166  0.2823
15508TIP3    H167939   5.642   2.964  10.965  0.5968 -1.0181  1.3224
15508TIP3    H267940   5.561   2.866  10.884  0.8028  0.7149 -1.0801
15509TIP3   OH267941   4.827   0.333   3.362  0.0410  0.2714  0.0948
15509TIP3    H167942   4.830   0.259   3.422 -0.2461 -0.2054 -0.4641
15509TIP3    H267943   4.898   0.390   3.390  1.7449 -1.2976 -0.8636
15510TIP3   OH267944   2.431   3.138  15.658 -0.1194 -0.0719  0.0767
15510TIP3    H167945   2.439   3.080  15.733  2.2136  0.7604  0.5563
15510TIP3    H267946   2.341   3.171  15.663 -0.3772 -0.9164  1.8250
15511TIP3   OH267947   4.189   1.284  13.659  0.2945 -0.2870 -0.3314
15511TIP3    H167948   4.277   1.315  13.682  0.2614 -0.1754 -0.3575
15511TIP3    H267949   4.136   1.299  13.737  0.4718 -1.0382 -0.0566
15512TIP3   OH267950   5.839   2.383   4.739 -0.4661  0.1408 -0.3447
15512TIP3    H167951   5.807   2.402   4.651 -0.1518 -0.6069 -0.6293
15512TIP3    H267952   5.922   2.337   4.725 -0.2741  0.2617  0.3484
15513TIP3   OH267953   5.103   1.821  15.310  0.6321  0.6791  0.1946
15513TIP3    H167954   5.197   1.821  15.292  0.5148  1.4040 -0.4743
15513TIP3    H267955   5.096   1.802  15.403  1.4458  0.7698  0.2788
15514TIP3   OH267956   4.079   1.086   0.979 -0.3654  0.1712  0.3617
15514TIP3    H167957   3.989   1.112   1.000 -1.2592 -2.4092  0.0503
15514TIP3    H267958   4.074   1.053   0.890  0.6346 -1.0188  0.7180
15515TIP3   OH267959   0.650   5.529   5.168  0.0876 -0.0445  0.5878
15515TIP3    H167960   0.576   5.469   5.180 -2.1262  2.1041 -1.3630
15515TIP3    H267961   0.693   5.497   5.088  0.3726 -0.4040  0.8801
15516TIP3   OH267962   2.451   6.066  12.091  0.9893  0.3348  0.3377
15516TIP3    H167963   2.391   5.993  12.080 -1.1598  2.0123  0.2309
15516TIP3    H267964   2.500   6.070  12.009 -0.9457  0.7321 -0.8736
15517TIP3   OH267965   3.832   2.659   5.244  0.1917 -0.2229 -0.1679
15517TIP3    H167966   3.913   2.670   5.193  0.8941 -0.5515  0.8290
15517TIP3    H267967   3.863   2.639   5.333 -0.9881 -1.0272  0.0862
15518TIP3   OH267968   0.260   6.228  13.190  0.0144 -0.4457  0.0276
15518TIP3    H167969   0.334   6.244  13.249 -0.6495 -1.0099  1.0293
15518TIP3    H267970   0.280   6.144  13.149  0.9670  0.3972 -1.3640
15519TIP3   OH267971   0.874   1.423   3.669  0.4141  0.1665 -0.0027
15519TIP3    H167972   0.788   1.426   3.626  0.3921  0.5002  0.0598
15519TIP3    H267973   0.906   1.335   3.652 -0.1697 -0.1311  0.4199
15520TIP3   OH267974   2.349   5.035   5.647 -0.0950 -0.1093  0.2180
15520TIP3    H167975   2.392   5.091   5.583  0.4082  0.8216  1.3299
15520TIP3    H267976   2.294   5.094   5.698 -1.4456 -1.0256 -0.1095
15521TIP3   OH267977   2.781   2.995   1.461 -0.6615 -0.4110 -0.3846
15521TIP3    H167978   2.794   3.085   1.489  1.1950 -0.2486 -1.5834
15521TIP3    H267979   2.818   2.991   1.373  0.3189 -2.5830  0.0461
15522TIP3   OH267980   0.829   3.603  12.157  0.2120 -0.1033 -0.1305
15522TIP3    H167981   0.746   3.636  12.122  0.6669  0.6738 -0.4980
15522TIP3    H267982   0.803   3.553  12.234 -0.7706 -1.4337 -1.2557
15523TIP3   OH267983   4.023   0.676   5.922 -0.2060  0.0429 -0.3628
15523TIP3    H167984   4.075   0.610   5.969  2.6833  3.1476  1.2265
15523TIP3    H267985   4.080   0.704   5.850 -0.9387  1.4926 -0.4033
15524TIP3   OH267986   5.686   2.392  14.177  0.1443  0.4032 -0.6331
15524TIP3    H167987   5.604   2.400  14.130  0.6587 -2.3289 -2.1927
15524TIP3    H267988   5.660   2.383  14.269 -1.2393  0.1116 -1.0336
15525TIP3   OH267989   5.835   3.641  11.553  0.2331 -0.0475  0.2622
15525TIP3    H167990   5.914   3.670  11.508  0.5753  1.0531  1.5306
15525TIP3    H267991   5.770   3.631  11.483  1.1567  0.1839 -0.6455
15526TIP3   OH267992   3.329   5.458   5.152 -0.1919  0.2821 -0.7885
15526TIP3    H167993   3.262   5.465   5.220 -1.2734  1.3682 -1.9064
15526TIP3    H267994   3.409   5.490   5.194 -1.0274  1.7894 -0.2595
15527TIP3   OH267995   3.074   2.506   1.879 -0.5317 -0.1867  0.2980
15527TIP3    H167996   3.050   2.532   1.790 -2.5751 -1.3574  0.4455
15527TIP3    H267997   3.168   2.520   1.884 -0.3356 -0.3067 -2.1364
15528TIP3   OH267998   1.896   6.255   4.743 -0.2427  0.1958  0.3145
15528TIP3    H167999   1.822   6.206   4.780  0.4333 -0.4167  0.8904
15528TIP3    H268000   1.863   6.286   4.658 -1.4378  0.6701  0.9250
15529TIP3   OH268001   4.573   4.283  13.802 -0.0174  0.1833  0.0166
15529TIP3    H168002   4.625   4.363  13.790  2.4131 -1.4642 -1.2144
15529TIP3    H268003   4.487   4.305  13.767  0.8335  1.9892 -1.0874
15530TIP3   OH268004   1.818   1.221  15.779  0.1854 -0.0133 -0.4698
15530TIP3    H168005   1.740   1.277  15.776  0.9802  1.3141  1.4297
15530TIP3    H268006   1.873   1.261  15.847  0.3803 -3.6639  1.7841
15531TIP3   OH268007   4.378   6.254   4.387 -0.3046 -0.0179  0.4552
15531TIP3    H168008   4.299   6.242   4.440 -0.6449  0.0283 -0.0343
15531TIP3    H268009   4.445   6.279   4.450 -0.6651 -0.1196  0.8876
15532TIP3   OH268010   4.615   5.333   3.170 -0.3148  0.0168 -0.7267
15532TIP3    H168011   4.644   5.421   3.146  0.0058 -0.1383 -0.9176
15532TIP3    H268012   4.654   5.276   3.104  0.1436 -0.3532 -0.1475
15533TIP3   OH268013   2.640   3.614   5.534 -0.5079 -0.3680  0.4954
15533TIP3    H168014   2.718   3.629   5.481 -1.7213  1.2722 -0.9445
15533TIP3    H268015   2.596   3.540   5.492 -0.7898  0.0767 -0.0046
15534TIP3   OH268016   0.007   0.043   3.642 -0.3836  0.2840 -0.1800
15534TIP3    H168017   0.059  -0.022   3.595  0.9091  0.4269  0.9986
15534TIP3    H268018   0.008   0.120   3.584  1.3152  0.5120  0.1088
15535TIP3   OH268019   4.097   1.819   6.124  0.2504 -0.5274  0.8348
15535TIP3    H168020   4.067   1.907   6.099 -2.4891 -1.7621 -0.7628
15535TIP3    H268021   4.064   1.807   6.213  1.9990  0.5550  1.6815
15536TIP3   OH268022   5.841   6.317   5.894  0.1311 -0.2199 -0.6253
15536TIP3    H168023   5.845   6.305   5.799 -0.3462 -1.3433 -0.5121
15536TIP3    H268024   5.748   6.312   5.915  0.3030 -0.8575  0.0026
15537TIP3   OH268025   4.892   6.705   5.045  0.4312  0.1048 -0.1919
15537TIP3    H168026   4.944   6.664   4.976  0.6236 -1.2319  0.7000
15537TIP3    H268027   4.904   6.648   5.121  0.2297  1.5343  0.9625
15538TIP3   OH268028   2.955   0.977  15.678  0.7020  0.0450 -0.4830
15538TIP3    H168029   2.879   1.022  15.715 -0.7189 -1.3826 -1.5510
15538TIP3    H268030   2.934   0.884  15.684  1.5002 -0.3284 -2.5531
15539TIP3   OH268031   4.327   1.703   4.958  0.6140 -0.1430 -0.5439
15539TIP3    H168032   4.412   1.730   4.925  0.7985  1.1359  0.8628
15539TIP3    H268033   4.343   1.675   5.048 -0.4630  0.2034 -0.2224
15540TIP3   OH268034   1.908   0.085  15.623 -1.2872  0.2846 -0.0995
15540TIP3    H168035   1.998   0.116  15.612 -1.3589 -0.0121 -1.7835
15540TIP3    H268036   1.859   0.164  15.645 -0.4636  0.2611  2.0662
15541TIP3   OH268037   6.238   1.610   4.648 -0.3871 -0.1191  0.0596
15541TIP3    H168038   6.163   1.668   4.646 -0.2934  0.0753  1.3455
15541TIP3    H268039   6.314   1.668   4.653 -0.0884 -0.3001 -1.6688
15542TIP3   OH268040   6.196   1.413  12.328 -0.1598 -0.3480  1.1252
15542TIP3    H168041   6.111   1.435  12.365  0.1182  0.7159  1.1628
15542TIP3    H268042   6.257   1.420  12.401  0.2366  0.7729  0.7010
15543TIP3   OH268043   0.266   2.572  15.684  0.4345  0.0407  0.6709
15543TIP3    H168044   0.244   2.652  15.731 -0.5778 -0.3916  0.9625
15543TIP3    H268045   0.322   2.523  15.744 -0.9941 -0.5915  1.5440
15544TIP3   OH268046   5.765   3.725  14.396  0.4580 -0.5988  0.0529
15544TIP3    H168047   5.706   3.716  14.470  0.6906 -1.9987  0.0789
15544TIP3    H268048   5.722   3.679  14.324  0.5196  0.2270 -0.5317
15545TIP3   OH268049   3.877   2.621   4.210 -0.0557  0.3209 -0.0006
15545TIP3    H168050   3.845   2.700   4.253 -1.4424  1.2942 -2.6065
15545TIP3    H268051   3.798   2.574   4.183  0.7297 -0.5849 -0.8006
15546TIP3   OH268052   0.043   2.896   2.927  0.6664 -0.2711 -0.0458
15546TIP3    H168053   0.042   2.920   2.834  1.1024  0.9920  0.2563
15546TIP3    H268054   0.069   2.976   2.972 -0.1822 -0.6903  1.2315
15547TIP3   OH268055   5.452   2.586  15.570 -0.6879  0.8446  0.5094
15547TIP3    H168056   5.448   2.556  15.479 -2.0198  1.2297  0.4265
15547TIP3    H268057   5.526   2.538  15.608 -1.1721 -0.6032 -0.3128
15548TIP3   OH268058   5.274   1.293  11.613  0.2890  0.1289 -0.3070
15548TIP3    H168059   5.201   1.231  11.609  0.5514 -0.2952  0.9761
15548TIP3    H268060   5.255   1.346  11.691  1.5133 -0.2240  0.2549
15549TIP3   OH268061   1.972   2.627  13.184  0.0020  0.3289 -0.0836
15549TIP3    H168062   1.960   2.535  13.162 -0.8787  0.4271 -0.0601
15549TIP3    H268063   2.067   2.637  13.196  0.2342 -0.3129 -1.2065
15550TIP3   OH268064   3.034   5.812   2.462 -0.0598  0.3866  0.5145
15550TIP3    H168065   3.095   5.880   2.436 -0.1736  0.4595  0.4336
15550TIP3    H268066   3.081   5.759   2.526 -0.0670  0.7028  0.7823
15551TIP3   OH268067   4.751   6.140   0.586  0.3967 -0.4225  0.8634
15551TIP3    H168068   4.716   6.214   0.537  0.5100 -2.1196 -2.0135
15551TIP3    H268069   4.700   6.138   0.667 -0.6565  1.8344  0.3244
15552TIP3   OH268070   0.635   4.412   0.863 -0.0438  0.1060 -0.3969
15552TIP3    H168071   0.652   4.327   0.822 -4.0987 -0.4021 -1.4278
15552TIP3    H268072   0.683   4.474   0.810  2.3881 -1.3873 -0.0889
15553TIP3   OH268073   4.632   5.540  15.111  0.1359 -0.1075  0.7500
15553TIP3    H168074   4.702   5.594  15.074 -2.1417  0.8447 -2.6341
15553TIP3    H268075   4.661   5.450  15.097  0.3129  0.2489 -1.7015
15554TIP3   OH268076   2.202   0.370  17.003  0.5938  0.1562  0.2524
15554TIP3    H168077   2.261   0.446  17.005  0.4072  0.3314  2.4688
15554TIP3    H268078   2.120   0.402  17.042  0.0655 -0.8441 -0.0004
15555TIP3   OH268079   0.802   2.766   1.257 -0.4478  0.8529  0.3199
15555TIP3    H168080   0.835   2.855   1.272  0.1814  0.4207  1.6153
15555TIP3    H268081   0.764   2.739   1.340  0.0494 -0.3713  0.1780
15556TIP3   OH268082   3.845   4.100  16.684  0.9885  0.0958 -0.1246
15556TIP3    H168083   3.886   4.016  16.703  0.0665  0.0765  2.1204
15556TIP3    H268084   3.760   4.077  16.645  1.8414  0.0869 -2.0772
15557TIP3   OH268085   5.684   3.647   2.747 -0.0232 -0.4987  0.1206
15557TIP3    H168086   5.621   3.719   2.753 -0.4597 -0.9991  1.9933
15557TIP3    H268087   5.630   3.568   2.745  0.4525 -0.8423 -1.8484
15558TIP3   OH268088   4.466   3.959   5.978 -0.6322 -0.9193 -0.2492
15558TIP3    H168089   4.494   3.971   5.888  0.0234 -0.0116  0.0579
15558TIP3    H268090   4.389   4.016   5.988  0.2481  0.2282  0.1852
15559TIP3   OH268091   0.731   2.315  16.375  0.4913  0.6282 -0.3235
15559TIP3    H168092   0.766   2.340  16.461 -2.5966 -0.8070  1.5205
15559TIP3    H268093   0.697   2.397  16.338 -0.0712  0.9227  0.8085
15560TIP3   OH268094   0.543   2.658   2.719 -0.8505  0.0210  0.3875
15560TIP3    H168095   0.478   2.705   2.667 -1.3562 -0.5200  0.5332
15560TIP3    H268096   0.594   2.609   2.655 -0.8927  0.0663  0.3195
15561TIP3   OH268097   5.785   0.769  15.219  0.4765 -0.5683 -0.0874
15561TIP3    H168098   5.863   0.714  15.207  0.5171 -0.8524  1.3175
15561TIP3    H268099   5.766   0.803  15.131  2.0778 -0.6227 -0.4870
15562TIP3   OH268100   3.374   6.544   5.657  0.2373 -0.1780  0.3622
15562TIP3    H168101   3.350   6.562   5.747 -0.3056  1.8024 -0.1387
15562TIP3    H268102   3.384   6.630   5.616 -0.1114 -1.0182 -1.6203
15563TIP3   OH268103   4.522   0.031  15.259  0.1056  0.0306 -0.1619
15563TIP3    H168104   4.612   0.010  15.232  0.5559 -0.8126  1.7833
15563TIP3    H268105   4.478  -0.054  15.261 -0.3232  0.2604  0.2468
15564TIP3   OH268106   6.018   0.260   0.227 -0.1806 -0.1986 -0.0453
15564TIP3    H168107   5.982   0.349   0.227 -0.5861 -0.2697 -3.0165
15564TIP3    H268108   5.997   0.226   0.314 -1.3929  2.0627  0.6292
15565TIP3   OH268109   1.597   5.451  13.460 -0.2738  0.7971  0.0184
15565TIP3    H168110   1.593   5.394  13.383  0.6680 -1.2777  1.4094
15565TIP3    H268111   1.621   5.536  13.425  0.1221 -0.0684 -1.9920
15566TIP3   OH268112   1.981   3.061   5.969  0.0969 -0.3382  0.0188
15566TIP3    H168113   2.022   3.114   5.901 -1.5804 -0.3462 -1.0578
15566TIP3    H268114   1.979   3.117   6.047  1.7948 -0.2327  0.0097
15567TIP3   OH268115   6.095   0.187  16.782 -0.5957  0.1704  0.5716
15567TIP3    H168116   6.190   0.202  16.776 -0.9759  2.1569 -2.4626
15567TIP3    H268117   6.083   0.149  16.869  2.9405  0.0390  1.1683
15568TIP3   OH268118   0.395   2.679  13.033  0.2229  0.0872  0.2742
15568TIP3    H168119   0.321   2.645  13.082  0.0414  0.4838  0.2750
15568TIP3    H268120   0.375   2.657  12.942  0.4426 -0.4292  0.3477
15569TIP3   OH268121   6.530   4.980  16.107 -0.3009 -0.1236 -0.3188
15569TIP3    H168122   6.514   4.985  16.012  0.3372 -0.1558 -0.4356
15569TIP3    H268123   6.624   4.998  16.115 -0.7186  2.0563  0.4827
15570TIP3   OH268124   5.217   3.480  14.543 -1.0171  0.1215 -0.4148
15570TIP3    H168125   5.200   3.420  14.616 -0.8059  0.7983  0.2022
15570TIP3    H268126   5.144   3.464  14.483 -2.1154  0.7018  0.7030
15571TIP3   OH268127   4.841   2.779   3.356  0.3279 -0.1738 -0.9957
15571TIP3    H168128   4.916   2.800   3.410 -1.3153  0.8790  1.0455
15571TIP3    H268129   4.844   2.843   3.285 -0.2126  1.9299  0.7536
15572TIP3   OH268130   1.358   3.639   4.252 -0.0056  0.2674  0.3404
15572TIP3    H168131   1.342   3.676   4.339 -0.7214  1.9271 -0.4496
15572TIP3    H268132   1.411   3.561   4.269 -0.8543  0.0538  2.3223
15573TIP3   OH268133   4.185   5.980   0.801  0.0630 -0.2314  0.4906
15573TIP3    H168134   4.108   5.989   0.745  0.0273  1.7851  0.8263
15573TIP3    H268135   4.154   5.931   0.877 -1.0078  0.9133  0.8205
15574TIP3   OH268136   1.813   0.934   4.264 -0.4570 -0.2383 -0.0889
15574TIP3    H168137   1.905   0.951   4.244 -0.5389  1.0388  0.5209
15574TIP3    H268138   1.779   0.894   4.184  0.1947  0.9834 -1.0234
15575TIP3   OH268139   5.737   2.617  17.228  0.4687  0.1120  0.0737
15575TIP3    H168140   5.812   2.677  17.230  0.4152  0.3139 -1.8615
15575TIP3    H268141   5.665   2.669  17.193 -0.6532 -0.0616  1.9837
15576TIP3   OH268142   0.486   0.454   4.905  0.1341  0.8632  0.1670
15576TIP3    H168143   0.577   0.430   4.889  0.5143  1.5841  1.1916
15576TIP3    H268144   0.456   0.491   4.821  1.0151  1.3194  0.0415
15577TIP3   OH268145   6.497   3.411  12.123 -0.0937 -0.2564  0.1891
15577TIP3    H168146   6.536   3.342  12.177 -1.1475 -0.9031  0.1602
15577TIP3    H268147   6.420   3.440  12.174 -0.6744 -0.3566 -0.6113
15578TIP3   OH268148   0.181   2.441  12.057  0.3161  0.1774 -0.0533
15578TIP3    H168149   0.121   2.495  12.006  2.5988  1.5137 -1.5154
15578TIP3    H268150   0.236   2.397  11.992  2.5825  1.0167  1.1703
15579TIP3   OH268151   3.217   1.135  14.068  0.0771  0.1314  0.0459
15579TIP3    H168152   3.221   1.079  14.145 -0.5344  0.5034  0.3565
15579TIP3    H268153   3.305   1.131  14.030  1.2799  2.1474  2.3422
15580TIP3   OH268154   6.418   3.166  13.758  0.0612 -0.1988 -0.1060
15580TIP3    H168155   6.369   3.120  13.690 -0.2059 -0.5648  0.3343
15580TIP3    H268156   6.372   3.146  13.839 -0.4048  1.2961  0.0369
15581TIP3   OH268157   0.871   4.517  13.194 -0.1470 -0.2521  0.1170
15581TIP3    H168158   0.888   4.530  13.101  1.2452  0.0577  0.3835
15581TIP3    H268159   0.805   4.449  13.198  0.8159 -1.3000 -1.0766
15582TIP3   OH268160   1.241   3.691   4.881  0.2125  0.5410 -0.6711
15582TIP3    H168161   1.330   3.719   4.862 -0.1388  0.9200 -1.8697
15582TIP3    H268162   1.187   3.767   4.861 -0.4988 -0.1047 -1.2968
15583TIP3   OH268163   1.935   6.413  12.909 -0.4468  0.0079  0.1945
15583TIP3    H168164   1.841   6.399  12.918 -0.3727  0.3541  1.7817
15583TIP3    H268165   1.945   6.509  12.906 -0.0572  0.0212  1.4599
15584TIP3   OH268166   4.110   6.100  15.647 -0.0602 -0.2898  0.0371
15584TIP3    H168167   4.033   6.127  15.697 -0.4221 -1.7149  0.2815
15584TIP3    H268168   4.183   6.148  15.688 -0.4978 -0.6286  1.2710
15585TIP3   OH268169   0.217   6.208  13.557 -0.2134  0.2674  0.1048
15585TIP3    H168170   0.232   6.115  13.575 -0.6200  0.1775  0.0077
15585TIP3    H268171   0.133   6.209  13.511 -0.4055  0.7192  0.4669
15586TIP3   OH268172   6.549   0.511   1.554 -0.0053  0.0377  0.1927
15586TIP3    H168173   6.455   0.519   1.574 -0.6032 -0.9262 -1.8913
15586TIP3    H268174   6.578   0.601   1.542 -1.7895  0.3186 -3.3967
15587TIP3   OH268175   0.504   5.362  16.662 -0.4819 -0.4269  0.0640
15587TIP3    H168176   0.425   5.340  16.711 -1.1658  0.0412 -0.8120
15587TIP3    H268177   0.534   5.445  16.699 -0.5147 -0.5005  0.2556
15588TIP3   OH268178   5.924   6.211   0.474  0.0649 -0.0934  0.2532
15588TIP3    H168179   5.959   6.127   0.444  1.3206 -0.6474  2.9832
15588TIP3    H268180   5.973   6.277   0.425  0.1434 -0.9063 -0.8079
15589TIP3   OH268181   0.675   1.743  17.324  0.1447  0.0920  0.0016
15589TIP3    H168182   0.755   1.772  17.279  0.5592  1.5862  1.6125
15589TIP3    H268183   0.695   1.753  17.417 -1.5572 -0.5365  0.4636
15590TIP3   OH268184   6.277   1.704  12.309  0.0324 -0.1182  0.0878
15590TIP3    H168185   6.340   1.631  12.304  1.0535  0.7328  0.1608
15590TIP3    H268186   6.276   1.729  12.401 -0.1238  0.1071  0.0246
15591TIP3   OH268187   6.736   3.770  13.837  0.0372  0.0510 -0.4241
15591TIP3    H168188   6.815   3.787  13.785  0.0770  0.1598 -0.3301
15591TIP3    H268189   6.692   3.699  13.791 -0.1792  0.4771 -0.8858
15592TIP3   OH268190   0.189   3.852  13.337 -0.0124  0.1425 -0.1882
15592TIP3    H168191   0.101   3.856  13.374  0.5900 -1.0453  1.4996
15592TIP3    H268192   0.197   3.763  13.302 -0.1873  0.9059 -2.2817
15593TIP3   OH268193   6.266   5.194  13.462 -0.3288 -0.1050  0.6979
15593TIP3    H168194   6.302   5.162  13.545 -0.3901  0.5149  0.9675
15593TIP3    H268195   6.211   5.269  13.487 -0.3753  0.0595  0.1055
15594TIP3   OH268196   3.559   0.871   3.649 -0.2010  0.2494 -0.8327
15594TIP3    H168197   3.637   0.906   3.605  1.4994 -0.8799  1.1232
15594TIP3    H268198   3.497   0.945   3.650  1.7327  1.9532 -0.3435
15595TIP3   OH268199   5.609   5.447  15.731  0.2601  0.1314 -0.4889
15595TIP3    H168200   5.663   5.425  15.655 -0.6890  1.6135 -1.6469
15595TIP3    H268201   5.538   5.499  15.695  0.1335  1.4318  1.5091
15596TIP3   OH268202   1.487   0.208   0.902 -0.0769 -0.1290 -0.3439
15596TIP3    H168203   1.526   0.248   0.980 -1.0000  2.5069 -1.1225
15596TIP3    H268204   1.559   0.204   0.839 -0.1814  1.3591 -0.5930
15597TIP3   OH268205   2.946   2.542  11.120  0.5193 -0.2420  0.5038
15597TIP3    H168206   2.922   2.526  11.211  1.3885 -1.1512  0.5895
15597TIP3    H268207   2.991   2.462  11.093 -0.4446 -0.3230 -0.9773
15598TIP3   OH268208   4.675   1.268   1.367 -0.1435  0.0878  0.6504
15598TIP3    H168209   4.638   1.322   1.297  2.0445 -0.5819 -1.1269
15598TIP3    H268210   4.610   1.200   1.382 -2.0140  1.9301  1.4706
15599TIP3   OH268211   6.707   1.506   1.591 -0.2017  0.5297  0.1393
15599TIP3    H168212   6.716   1.600   1.576 -1.5062  0.7415  0.5550
15599TIP3    H268213   6.644   1.499   1.663 -0.4863 -0.6834 -0.2024
15600TIP3   OH268214   5.549   4.088  12.098 -0.3456 -0.3029 -0.3259
15600TIP3    H168215   5.636   4.082  12.138 -0.6040 -1.2625  0.1336
15600TIP3    H268216   5.499   4.143  12.158 -0.7127 -1.6801  0.7024
15601TIP3   OH268217   3.774   2.361  11.380 -0.1414  0.3463  0.2191
15601TIP3    H168218   3.732   2.364  11.466  1.5528  0.6969  1.0795
15601TIP3    H268219   3.766   2.450  11.346  0.4529  0.5891  0.6844
15602TIP3   OH268220   3.687   5.546  13.257  0.4093 -0.4207 -0.2582
15602TIP3    H168221   3.618   5.484  13.232 -0.9523  1.0315 -0.2321
15602TIP3    H268222   3.748   5.545  13.183 -0.8920  0.0157 -1.3824
15603TIP3   OH268223   0.168   2.951  11.974 -0.4397  0.0636  0.7897
15603TIP3    H168224   0.201   2.869  12.011  2.0810  1.3008  1.5294
15603TIP3    H268225   0.226   2.969  11.899 -1.7946  0.5232 -0.1829
15604TIP3   OH268226   4.887   0.053  10.960 -0.5522 -0.0078 -0.1116
15604TIP3    H168227   4.954  -0.015  10.951 -0.1420  0.2153  1.0765
15604TIP3    H268228   4.807   0.004  10.980 -0.1414 -0.1392  1.3193
15605TIP3   OH268229   3.992   2.014   0.003  0.2208 -0.0475 -0.0631
15605TIP3    H168230   3.981   1.995  -0.090 -1.0236 -0.2776  0.1149
15605TIP3    H268231   3.992   2.110   0.008 -3.3826  0.0814  0.0122
15606TIP3   OH268232   5.111   0.449  14.239  0.6378 -0.9243  0.0107
15606TIP3    H168233   5.205   0.467  14.237  0.3846  0.4282 -0.8103
15606TIP3    H268234   5.093   0.410  14.153  0.3438 -0.6163 -0.0658
15607TIP3   OH268235   5.343   0.050  16.658 -0.0609 -0.5948 -0.3979
15607TIP3    H168236   5.389   0.062  16.575  0.3766  1.5390  0.1002
15607TIP3    H268237   5.412   0.037  16.723 -0.2842  0.0358 -0.0290
15608TIP3   OH268238   2.083   1.561  12.563 -0.3361 -0.2055  0.0481
15608TIP3    H168239   2.020   1.601  12.623 -0.4986 -0.7772  0.2760
15608TIP3    H268240   2.029   1.511  12.502 -0.0849 -1.8886  1.1214
15609TIP3   OH268241   5.351   4.056  14.534  0.4525  0.0750 -0.1235
15609TIP3    H168242   5.395   4.046  14.450  1.0227 -0.7463  0.2583
15609TIP3    H268243   5.259   4.037  14.516  0.0967  2.3871 -1.0484
15610TIP3   OH268244   5.388   2.544  13.359 -0.2648  0.1111  1.0165
15610TIP3    H168245   5.423   2.493  13.432 -0.5984 -1.7764 -0.0618
15610TIP3    H268246   5.294   2.550  13.376 -0.2427  0.2646  1.0854
15611TIP3   OH268247   0.284   5.203   4.989  0.5087  0.5448 -0.0830
15611TIP3    H168248   0.190   5.211   5.007  0.3812 -1.5193  0.3405
15611TIP3    H268249   0.288   5.190   4.894  0.5027  1.9230 -0.3017
15612TIP3   OH268250   4.794   5.009  16.933  0.1475 -0.3587 -0.4787
15612TIP3    H168251   4.840   5.093  16.937 -1.7317  0.8557 -2.3123
15612TIP3    H268252   4.818   4.972  16.848 -0.5381 -0.7526 -0.5090
15613TIP3   OH268253   6.608   5.923   0.463  0.3779 -0.0453  0.5659
15613TIP3    H168254   6.681   5.979   0.490  1.1637 -0.7668 -0.0442
15613TIP3    H268255   6.611   5.849   0.523  1.4889 -1.1379 -0.7831
15614TIP3   OH268256   2.719   4.736   4.014 -0.6355  0.2937 -0.1494
15614TIP3    H168257   2.728   4.821   3.972  0.4032 -0.6969 -2.0972
15614TIP3    H268258   2.791   4.731   4.076 -1.1520  1.0941  0.5426
15615TIP3   OH268259   0.175   3.084  16.085 -0.1111 -0.1536 -0.3142
15615TIP3    H168260   0.170   2.990  16.099 -0.2596 -0.0529  0.3590
15615TIP3    H268261   0.218   3.117  16.164 -0.0741  0.3422 -0.5408
15616TIP3   OH268262   5.167   3.075  14.546 -0.0729 -0.1429  0.1811
15616TIP3    H168263   5.149   2.995  14.597  1.4109  0.2425  1.3786
15616TIP3    H268264   5.204   3.043  14.464  0.4679 -0.6953  0.6298
15617TIP3   OH268265   0.488   0.691  12.702  0.2740  0.5821 -0.4863
15617TIP3    H168266   0.572   0.704  12.657  0.6434  1.8127  0.5081
15617TIP3    H268267   0.426   0.674  12.631  1.5302 -1.4952 -1.1832
15618TIP3   OH268268   3.250   4.383   2.902  0.2533  0.6245  0.4410
15618TIP3    H168269   3.159   4.395   2.872 -0.4185 -0.2883  2.0209
15618TIP3    H268270   3.253   4.293   2.934  2.0809  0.2428 -0.7119
15619TIP3   OH268271   4.544   4.835   2.806 -0.2651  0.5808  0.6155
15619TIP3    H168272   4.540   4.852   2.712  0.8591  1.0300  0.6348
15619TIP3    H268273   4.612   4.894   2.839 -0.3428  0.1299  1.6411
15620TIP3   OH268274   1.678   0.693   0.436 -0.3754 -0.2262  0.0082
15620TIP3    H168275   1.608   0.628   0.428 -0.3011 -0.2436 -0.4881
15620TIP3    H268276   1.753   0.644   0.469 -0.8396 -0.0448  1.4469
15621TIP3   OH268277   6.501   0.416  14.031  0.4486  0.2362 -0.0016
15621TIP3    H168278   6.435   0.355  14.064 -0.7713  1.6319  0.2514
15621TIP3    H268279   6.515   0.389  13.940  1.6396 -1.7919  0.7178
15622TIP3   OH268280   5.579   6.628   1.207 -0.4651 -0.5798 -0.3420
15622TIP3    H168281   5.498   6.642   1.257  1.1013 -0.1130  2.2467
15622TIP3    H268282   5.599   6.536   1.220  0.9037 -0.0728  1.5811
15623TIP3   OH268283   1.240   3.312  12.180 -0.2937  0.1984  0.0346
15623TIP3    H168284   1.254   3.394  12.132 -0.0389  0.5283  0.6678
15623TIP3    H268285   1.160   3.327  12.230 -0.2687  0.0400  0.1212
15624TIP3   OH268286   0.684   6.397  14.885 -0.3733  0.0649  0.4345
15624TIP3    H168287   0.611   6.440  14.841  0.4591  1.0526 -0.0213
15624TIP3    H268288   0.645   6.321  14.927 -2.1094  1.7103  2.0351
15625TIP3   OH268289   2.358   2.889  13.442 -0.6773  0.1988 -0.5788
15625TIP3    H168290   2.449   2.910  13.459 -1.1366  1.2459  0.7645
15625TIP3    H268291   2.347   2.800  13.474 -0.2323  0.2092 -0.3936
15626TIP3   OH268292   2.112   0.718   4.034 -0.0446  0.2760  0.0930
15626TIP3    H168293   2.020   0.744   4.035  0.5139  2.3924  0.9617
15626TIP3    H268294   2.134   0.706   4.126  0.1456 -1.9659 -0.1843
15627TIP3   OH268295   5.546   0.890  10.831  0.0432  0.5129 -0.3770
15627TIP3    H168296   5.500   0.864  10.911  1.0785  1.1059  0.4306
15627TIP3    H268297   5.476   0.913  10.770 -0.7620  1.6171  0.8908
15628TIP3   OH268298   4.925   2.008  16.158 -0.1012  0.0357  0.2529
15628TIP3    H168299   4.856   1.942  16.164  2.7537 -3.0900  1.5913
15628TIP3    H268300   4.942   2.018  16.065 -0.6310 -1.0782  0.0274
15629TIP3   OH268301   0.362   0.305  15.942  0.1074 -0.0685  0.2992
15629TIP3    H168302   0.278   0.288  15.899 -0.1347  1.2994  0.2024
15629TIP3    H268303   0.426   0.304  15.872  0.1091 -0.6245  0.3048
15630TIP3   OH268304   4.894   1.066  17.077  0.1279  0.5611 -0.1581
15630TIP3    H168305   4.841   0.999  17.035 -0.3876  0.2893  0.8956
15630TIP3    H268306   4.919   1.028  17.161 -1.6038  2.2653  1.2357
15631TIP3   OH268307   4.478   3.302   2.761  0.2875 -0.6253 -0.0483
15631TIP3    H168308   4.493   3.278   2.853 -1.9990 -0.6467  0.3825
15631TIP3    H268309   4.468   3.219   2.715 -0.2957 -0.6119  0.0403
15632TIP3   OH268310   0.424   0.489  14.078 -0.2869 -0.2464 -0.1502
15632TIP3    H168311   0.465   0.565  14.120 -2.5403  1.5137 -0.9021
15632TIP3    H268312   0.428   0.420  14.143  1.5608  0.5755  0.6889
15633TIP3   OH268313   4.519   2.888   3.847 -0.3292  0.5702 -0.2245
15633TIP3    H168314   4.579   2.837   3.792  0.1424  0.8047  0.0565
15633TIP3    H268315   4.436   2.842   3.842 -0.2742  0.5403 -1.0667
15634TIP3   OH268316   4.786   5.698  14.274 -0.3403 -0.7380 -0.4777
15634TIP3    H168317   4.794   5.605  14.250 -1.5169 -0.6218 -1.4149
15634TIP3    H268318   4.876   5.730  14.277  0.1994 -2.2115  1.2007
15635TIP3   OH268319   4.306   5.572   1.686  0.1276  0.2317  0.4334
15635TIP3    H168320   4.347   5.485   1.682 -0.2597 -0.0051  1.3926
15635TIP3    H268321   4.326   5.612   1.601 -0.6139 -1.2050 -0.4605
15636TIP3   OH268322   6.047   3.071  13.208  0.2080  0.3390  0.0066
15636TIP3    H168323   6.142   3.076  13.218  0.0644  2.0334  0.8108
15636TIP3    H268324   6.030   3.112  13.123  0.1958 -0.0180 -0.1647
15637TIP3   OH268325   5.919   4.527  16.190  0.1059 -0.2861  0.3059
15637TIP3    H168326   5.963   4.577  16.122 -1.5351  1.0851  0.1830
15637TIP3    H268327   5.920   4.584  16.267 -3.0609  0.7039 -0.2316
15638TIP3   OH268328   4.291   6.584  12.704  0.0707  0.3377 -0.0178
15638TIP3    H168329   4.320   6.497  12.731 -1.1901  0.2102  1.0029
15638TIP3    H268330   4.372   6.630  12.683  0.7352 -1.1895 -0.9800
15639TIP3   OH268331   2.401   2.762  17.143 -0.2444 -0.7010 -0.1167
15639TIP3    H168332   2.381   2.849  17.108  0.4882 -0.5819 -0.2664
15639TIP3    H268333   2.466   2.779  17.211 -0.1810 -1.1205 -0.0743
15640TIP3   OH268334   2.827   4.752  16.066  0.0691  0.7930 -0.2535
15640TIP3    H168335   2.887   4.778  15.996  0.0464  1.5130 -0.0094
15640TIP3    H268336   2.740   4.778  16.034 -0.3341 -1.4874 -1.2189
15641TIP3   OH268337   4.207   5.469  12.771  0.4121  0.2555 -0.2730
15641TIP3    H168338   4.276   5.405  12.751  0.2539 -0.9796  2.6102
15641TIP3    H268339   4.127   5.428  12.739  0.4386 -0.6436  0.7262
15642TIP3   OH268340   4.376   0.397   6.470  0.3662 -0.2173  0.1553
15642TIP3    H168341   4.426   0.317   6.458  0.8033  0.3953 -3.4903
15642TIP3    H268342   4.286   0.373   6.450  0.1393 -0.1893  1.1090
15643TIP3   OH268343   4.465   5.870   2.819 -0.7011  0.3317  0.1723
15643TIP3    H168344   4.535   5.883   2.755 -0.1722 -1.5515  0.3034
15643TIP3    H268345   4.484   5.785   2.859 -1.8897  0.7420  1.7366
15644TIP3   OH268346   4.499   2.672  16.230  0.0090  0.4261 -0.0665
15644TIP3    H168347   4.459   2.585  16.237 -0.4614  0.5320 -1.2211
15644TIP3    H268348   4.435   2.723  16.180  0.8781  1.0562 -0.5507
15645TIP3   OH268349   3.691   3.639  14.635 -0.6111  0.0412  0.1784
15645TIP3    H168350   3.727   3.728  14.631 -1.1943  0.2497 -2.7363
15645TIP3    H268351   3.739   3.597  14.706  2.5826  1.4730 -0.9631
15646TIP3   OH268352   0.748   0.447  15.302  0.8398  0.0114 -0.6333
15646TIP3    H168353   0.811   0.517  15.320  1.8456 -0.7592 -1.0439
15646TIP3    H268354   0.679   0.460  15.367  0.6849  1.7461 -1.0859
15647TIP3   OH268355   5.336   1.911  16.765  0.1320 -0.3132  0.4985
15647TIP3    H168356   5.416   1.913  16.713  1.6190 -2.1435  2.5451
15647TIP3    H268357   5.277   1.855  16.717  1.0166 -0.9635  0.1437
15648TIP3   OH268358   6.207   5.904   5.595  0.0619 -0.1766  0.0356
15648TIP3    H168359   6.135   5.914   5.658  0.0927 -0.5083  0.1235
15648TIP3    H268360   6.273   5.967   5.624  0.1868 -0.5155  0.4902
15649TIP3   OH268361   2.883   3.214  15.072 -0.0703  0.4424 -0.3237
15649TIP3    H168362   2.958   3.252  15.027 -0.0657  0.6638 -0.1302
15649TIP3    H268363   2.879   3.260  15.156  1.0380 -1.2297  0.7019
15650TIP3   OH268364   0.010   6.359   3.857  0.1903  0.6501  0.0070
15650TIP3    H168365  -0.065   6.401   3.815 -0.5519 -0.9897 -0.3695
15650TIP3    H268366   0.019   6.405   3.941 -1.0535  1.0706 -0.0673
15651TIP3   OH268367   6.632   5.171  11.920 -0.0107 -0.3052 -0.3019
15651TIP3    H168368   6.636   5.076  11.913 -0.8491 -0.4846  1.1330
15651TIP3    H268369   6.550   5.194  11.877 -0.5569 -0.4134  0.6523
15652TIP3   OH268370   5.010   1.264  16.896  0.4523  0.0195  0.3088
15652TIP3    H168371   4.953   1.318  16.950  0.2126  0.1052 -0.0249
15652TIP3    H268372   5.009   1.178  16.938  1.5345  0.4850  1.3479
15653TIP3   OH268373   2.290   5.729  14.239  0.0298  0.3986  0.0043
15653TIP3    H168374   2.327   5.658  14.292 -0.2678  0.6600  0.5831
15653TIP3    H268375   2.285   5.803  14.300 -0.4739  0.6610 -0.3519
15654TIP3   OH268376   0.116   5.861  15.945 -0.1887  0.4247 -0.3899
15654TIP3    H168377   0.100   5.873  16.038  0.4829  1.5873 -0.4142
15654TIP3    H268378   0.095   5.945  15.905  1.1878  0.4825 -1.0521
15655TIP3   OH268379   5.221   2.886  11.306 -0.3525 -0.5421 -0.0695
15655TIP3    H168380   5.255   2.812  11.255  1.3228 -0.3068  0.6331
15655TIP3    H268381   5.261   2.963  11.267  0.8951 -0.3444  1.4769
15656TIP3   OH268382   1.736   4.481  13.635 -0.2412  0.4195 -0.2687
15656TIP3    H168383   1.727   4.510  13.544  1.4184 -0.1641 -0.6605
15656TIP3    H268384   1.682   4.542  13.685 -0.0347  1.6651 -1.5001
15657TIP3   OH268385   0.219   5.379   6.803 -0.0976 -0.0515 -0.1151
15657TIP3    H168386   0.180   5.297   6.772 -0.8231  0.9311 -1.9915
15657TIP3    H268387   0.301   5.387   6.754  1.0731 -0.6315  1.6240
15658TIP3   OH268388   4.604   1.957  11.533  0.1976  0.8196  0.7737
15658TIP3    H168389   4.692   1.921  11.524 -0.7126 -1.2423 -0.8107
15658TIP3    H268390   4.592   2.011  11.456 -0.7611 -1.0032 -0.4283
15659TIP3   OH268391   4.036   5.435   1.910  0.3734 -0.8416  0.5377
15659TIP3    H168392   3.955   5.437   1.858  1.6658 -0.4791 -1.5714
15659TIP3    H268393   4.093   5.375   1.862  1.5939 -0.6270  1.6720
15660TIP3   OH268394   2.517   5.449   5.476 -0.2605 -0.2567 -0.4792
15660TIP3    H168395   2.555   5.380   5.530  0.9010  1.2230  0.6577
15660TIP3    H268396   2.593   5.495   5.439 -0.8124  2.5211  1.5247
15661TIP3   OH268397   3.266   4.906  15.877  0.4210  0.0719 -0.1558
15661TIP3    H168398   3.196   4.953  15.922 -0.7941 -2.5468  0.9117
15661TIP3    H268399   3.316   4.974  15.833 -1.4785  2.2696  0.8590
15662TIP3   OH268400   4.246   6.276   5.451 -0.3928  0.1286  0.2765
15662TIP3    H168401   4.159   6.241   5.472 -0.6495  0.5246 -0.1045
15662TIP3    H268402   4.228   6.350   5.392  0.2272 -0.0615 -0.1566
15663TIP3   OH268403   2.498   3.495   5.324 -0.4430 -0.5132 -0.1362
15663TIP3    H168404   2.506   3.403   5.347 -2.8372 -1.2552 -1.9347
15663TIP3    H268405   2.405   3.514   5.331 -0.0758  1.6682 -0.2943
15664TIP3   OH268406   1.434   0.048  11.553  0.1048 -0.0350 -0.5117
15664TIP3    H168407   1.504   0.043  11.618  1.8344 -0.2716 -2.2858
15664TIP3    H268408   1.364   0.096  11.596  1.5754  0.7012  1.1726
15665TIP3   OH268409   2.414   3.606  17.323  0.2366 -0.2206 -0.3250
15665TIP3    H168410   2.394   3.693  17.356 -0.4554 -0.6060  0.3129
15665TIP3    H268411   2.331   3.575  17.286 -0.2295 -1.5681  1.6966
15666TIP3   OH268412   4.678   2.634   0.529  0.4464 -0.6572 -0.3865
15666TIP3    H168413   4.690   2.539   0.537  0.4414 -0.7725 -1.5613
15666TIP3    H268414   4.604   2.643   0.470 -0.6219  0.0895  1.0262
15667TIP3   OH268415   5.168   6.414  16.407  0.0222 -0.3074  0.6170
15667TIP3    H168416   5.182   6.508  16.406  1.2250 -0.4723 -0.1190
15667TIP3    H268417   5.167   6.391  16.500 -2.0118  0.6314  0.8819
15668TIP3   OH268418   0.999   3.099  11.096  0.4746 -0.2408 -0.0920
15668TIP3    H168419   0.934   3.029  11.098 -1.1768  1.2336 -0.1528
15668TIP3    H268420   0.949   3.178  11.078  2.2552  1.0208  0.2332
15669TIP3   OH268421   0.897   2.807  16.591  0.5990  0.1555  0.2999
15669TIP3    H168422   0.861   2.752  16.521 -1.1640 -0.2417  1.4508
15669TIP3    H268423   0.873   2.896  16.565  1.1609  0.1389 -0.2819
15670TIP3   OH268424   0.683   6.669   5.614  1.0373 -0.0782  0.3387
15670TIP3    H168425   0.673   6.748   5.667  2.0683  1.6236 -1.8091
15670TIP3    H268426   0.649   6.694   5.528  0.5050 -2.3155 -0.1568
15671TIP3   OH268427   0.412   4.053   4.459  0.2173  0.2683  0.5361
15671TIP3    H168428   0.331   4.083   4.417  0.4814  1.1236  0.6228
15671TIP3    H268429   0.457   4.133   4.485 -0.1567 -0.2104  2.9096
15672TIP3   OH268430   1.159   1.080   2.449 -0.7024  0.0002 -0.0914
15672TIP3    H168431   1.076   1.103   2.491  0.8557  2.1523  2.0403
15672TIP3    H268432   1.219   1.149   2.474  2.1898 -2.2423 -0.3054
15673TIP3   OH268433   0.223   5.432  15.101 -0.2447 -0.2805  0.1211
15673TIP3    H168434   0.179   5.456  15.182 -1.2003  3.2562 -1.2635
15673TIP3    H268435   0.291   5.498  15.090  0.9092 -1.6206 -1.2184
15674TIP3   OH268436   5.296   5.774   1.156  0.0492 -0.5170  0.0099
15674TIP3    H168437   5.227   5.732   1.106 -0.5198  1.0987 -0.6347
15674TIP3    H268438   5.261   5.781   1.245 -0.2962 -0.4220 -0.1344
15675TIP3   OH268439   1.094   2.601  14.540 -0.2583  0.1524 -0.3740
15675TIP3    H168440   1.035   2.582  14.468 -0.7057 -0.7673  0.2093
15675TIP3    H268441   1.107   2.516  14.583 -2.4961  1.0901  2.4967
15676TIP3   OH268442   2.079   2.507   2.023 -0.2527 -0.0081 -0.2858
15676TIP3    H168443   2.133   2.431   2.044  0.5518  0.6118 -0.0750
15676TIP3    H268444   1.997   2.470   1.989 -0.3930 -0.9862  1.0545
15677TIP3   OH268445   4.330   1.373  13.303 -0.2013  0.1896 -0.5125
15677TIP3    H168446   4.400   1.308  13.306  0.8432  1.2379 -1.3548
15677TIP3    H268447   4.258   1.334  13.353  0.7933 -1.1311 -0.0834
15678TIP3   OH268448   6.010   3.334  14.844 -0.6365  0.3437 -0.0719
15678TIP3    H168449   6.050   3.264  14.896  0.5379  0.9856 -0.0954
15678TIP3    H268450   6.074   3.354  14.777 -1.0538  1.2984 -0.1982
15679TIP3   OH268451   3.497   4.085   0.007  0.1825 -0.7719  0.4913
15679TIP3    H168452   3.467   4.175   0.006  0.6202 -0.5921 -1.7183
15679TIP3    H268453   3.417   4.032  -0.002 -0.0311 -0.5931  1.3223
15680TIP3   OH268454   1.975   3.862   3.742  0.0733  0.2598 -0.1919
15680TIP3    H168455   1.984   3.809   3.663 -2.1890  0.5624 -0.6946
15680TIP3    H268456   1.952   3.799   3.810  0.6163  0.1883 -0.0693
15681TIP3   OH268457   4.397   1.080  14.219 -0.0412  0.2731  0.1115
15681TIP3    H168458   4.465   1.051  14.281 -0.7581  1.2768  1.4048
15681TIP3    H268459   4.320   1.095  14.273 -1.0341  0.0899 -1.2085
15682TIP3   OH268460   6.677   5.137   3.206  0.2043 -0.2289  0.1026
15682TIP3    H168461   6.632   5.074   3.262 -1.2300  0.9567  0.3723
15682TIP3    H268462   6.632   5.130   3.122  0.1331  0.2931  0.0918
15683TIP3   OH268463   3.180   6.326  10.880 -0.1352 -0.0904  0.2301
15683TIP3    H168464   3.133   6.385  10.940 -0.8036 -0.0382 -0.3279
15683TIP3    H268465   3.152   6.353  10.793  0.6213 -0.3422 -0.0964
15684TIP3   OH268466   3.183   2.050   2.194 -0.1096  0.8091 -0.2769
15684TIP3    H168467   3.145   1.972   2.155  1.2066  0.0962 -0.2085
15684TIP3    H268468   3.115   2.116   2.187 -0.8581 -0.0353 -1.3519
15685TIP3   OH268469   0.271   1.430  16.436 -0.0456  0.2932 -0.3551
15685TIP3    H168470   0.256   1.335  16.434 -0.1341  0.2013  1.7899
15685TIP3    H268471   0.233   1.458  16.519  0.1721  2.1918 -0.8525
15686TIP3   OH268472   6.365   3.767  11.325 -0.1733 -0.1837 -0.2474
15686TIP3    H168473   6.440   3.813  11.362  1.7942 -2.0614 -1.6521
15686TIP3    H268474   6.324   3.724  11.400  1.7519 -1.2173  0.2843
15687TIP3   OH268475   1.449   4.155  12.307  0.3783 -0.3137 -0.4142
15687TIP3    H168476   1.525   4.143  12.251  0.3784 -1.4635 -0.2031
15687TIP3    H268477   1.430   4.067  12.340 -0.4230  0.1247  0.3368
15688TIP3   OH268478   4.619   3.478   4.553  0.6531  0.0523 -0.8222
15688TIP3    H168479   4.606   3.527   4.634  2.0924 -1.4208  0.3691
15688TIP3    H268480   4.683   3.530   4.504 -0.5835  1.1968 -1.2662
15689TIP3   OH268481   0.129   2.897  12.800  0.0140  0.7072  0.1452
15689TIP3    H168482   0.122   2.915  12.706 -0.9636  0.0657  0.0846
15689TIP3    H268483   0.100   2.978  12.842  1.7038  1.4818 -0.0653
15690TIP3   OH268484   2.046   2.165   3.534 -0.0284  0.4000  0.3108
15690TIP3    H168485   1.966   2.189   3.488  0.3290 -1.7933 -1.6578
15690TIP3    H268486   2.099   2.245   3.534 -1.1674  1.1838 -0.6749
15691TIP3   OH268487   2.512   3.931  14.414  0.5248 -0.5866 -0.2657
15691TIP3    H168488   2.580   3.960  14.476  0.2603  0.0214 -0.2492
15691TIP3    H268489   2.457   4.009  14.401  0.4527 -0.7731 -1.1041
15692TIP3   OH268490   0.885   6.770  17.148 -0.3035  0.0035  0.2027
15692TIP3    H168491   0.889   6.861  17.119 -0.8635  0.1079  0.4328
15692TIP3    H268492   0.793   6.746  17.139 -0.0835 -0.6910 -0.3079
15693TIP3   OH268493   0.549   1.381   4.416  0.0886 -0.0381  0.2029
15693TIP3    H168494   0.635   1.346   4.392 -0.5791 -0.4946 -1.6830
15693TIP3    H268495   0.540   1.460   4.363 -0.4915  0.2347  0.6997
15694TIP3   OH268496   2.579   3.257   5.440 -0.3201 -0.0928 -0.1423
15694TIP3    H168497   2.670   3.274   5.415 -0.1426  1.3449  1.2871
15694TIP3    H268498   2.582   3.247   5.536 -1.8816  2.1050  0.2317
15695TIP3   OH268499   0.678   4.370   4.819  0.3159 -0.0176  0.3452
15695TIP3    H168500   0.617   4.328   4.881 -0.2743 -0.4749 -0.5258
15695TIP3    H268501   0.627   4.441   4.781 -0.5552 -1.8373 -2.1324
15696TIP3   OH268502   6.620   5.134   3.650 -0.2244 -0.2530 -0.7947
15696TIP3    H168503   6.660   5.221   3.654 -0.7435 -0.0049 -0.9778
15696TIP3    H268504   6.534   5.145   3.690 -0.0527 -0.8225 -0.2539
15697TIP3   OH268505   2.126   6.277   4.188  0.0551 -0.0456  0.8311
15697TIP3    H168506   2.105   6.326   4.268 -0.2254 -1.3761  1.6067
15697TIP3    H268507   2.046   6.229   4.167 -0.0924  0.7790 -0.6646
15698TIP3   OH268508   6.066   2.510  12.040  0.1798 -0.2004 -0.4534
15698TIP3    H168509   6.089   2.601  12.023  0.3833 -0.0682  0.4801
15698TIP3    H268510   5.985   2.496  11.991 -0.7201  0.9597  0.6276
15699TIP3   OH268511   5.397   2.239   6.118 -0.3002  1.0076 -0.3661
15699TIP3    H168512   5.420   2.232   6.210 -0.0252  0.0365 -0.4964
15699TIP3    H268513   5.457   2.179   6.074 -1.3405  0.4055 -1.0138
15700TIP3   OH268514   0.485   2.283   3.650 -0.0613  0.1740  0.1428
15700TIP3    H168515   0.415   2.342   3.624  1.2754  1.9198  0.2901
15700TIP3    H268516   0.542   2.277   3.573  0.2289 -0.2937  0.3875
15701TIP3   OH268517   6.742   4.122  16.424 -0.3453 -0.4548  0.0399
15701TIP3    H168518   6.742   4.026  16.428 -1.1624 -0.4475  0.3526
15701TIP3    H268519   6.708   4.150  16.509  0.3659  0.1293  0.1399
15702TIP3   OH268520   5.614   0.301  17.040 -0.3532  0.4519  0.3763
15702TIP3    H168521   5.593   0.392  17.020 -1.3761 -0.1632 -1.7535
15702TIP3    H268522   5.636   0.263  16.955 -0.0430 -1.3086  1.1985
15703TIP3   OH268523   3.853   2.185   1.041 -0.7236  0.5169  0.1929
15703TIP3    H168524   3.919   2.190   1.110 -1.0347 -0.5595  0.5904
15703TIP3    H268525   3.801   2.265   1.052 -0.4574  0.6040  0.8700
15704TIP3   OH268526   0.149   1.754  14.278 -0.8826 -0.2822  0.1557
15704TIP3    H168527   0.121   1.667  14.248 -0.6133 -0.5156  0.5578
15704TIP3    H268528   0.245   1.752  14.273 -0.9232  0.5704 -1.3646
15705TIP3   OH268529   2.201   1.538  13.167  0.4788 -0.1143  0.3366
15705TIP3    H168530   2.119   1.585  13.153  0.8542  0.7195  0.8482
15705TIP3    H268531   2.237   1.524  13.079  1.9811  3.5227  0.1651
15706TIP3   OH268532   6.291   4.370  16.010 -0.0180 -0.3586  0.0844
15706TIP3    H168533   6.351   4.387  15.937 -0.7976 -2.3063 -1.0727
15706TIP3    H268534   6.289   4.275  16.017 -3.3128 -0.4217 -0.2630
15707TIP3   OH268535   6.151   2.051   4.536  0.3703 -0.2825 -0.4318
15707TIP3    H168536   6.144   2.137   4.494 -0.7921 -0.9745 -1.7148
15707TIP3    H268537   6.163   1.990   4.464 -2.1927 -1.5793  0.1115
15708TIP3   OH268538   1.427   2.860   5.735 -0.1908  0.0605  0.5030
15708TIP3    H168539   1.401   2.809   5.811  0.1742 -1.6309 -0.4607
15708TIP3    H268540   1.375   2.825   5.662  0.4166  0.7258 -0.2797
15709TIP3   OH268541   2.959   3.175  14.008 -0.3468 -0.1811 -0.0083
15709TIP3    H168542   2.953   3.240  14.079  2.7213 -1.3133  1.4948
15709TIP3    H268543   2.915   3.097  14.043  1.8369 -0.9931  1.1134
15710TIP3   OH268544   3.214   6.435  16.824 -0.2068  0.3979 -0.0221
15710TIP3    H168545   3.163   6.374  16.771 -0.3225  1.1981 -0.8624
15710TIP3    H268546   3.296   6.445  16.775 -1.0037  2.5092 -1.0495
15711TIP3   OH268547   2.798   2.619  13.274  0.0506  0.3005  0.5968
15711TIP3    H168548   2.742   2.557  13.321  0.7794 -1.4489 -0.7326
15711TIP3    H268549   2.882   2.574  13.266 -0.0024  0.5346 -2.2489
15712TIP3   OH268550   5.188   4.289   6.091 -0.0681 -0.0744 -0.0152
15712TIP3    H168551   5.274   4.314   6.056 -0.2599 -0.0860 -0.5049
15712TIP3    H268552   5.203   4.276   6.184  0.4854 -0.1674 -0.1124
15713TIP3   OH268553   0.486   5.860   3.296  0.3499  0.1378 -0.5178
15713TIP3    H168554   0.560   5.919   3.309 -0.7645  1.4613  0.0285
15713TIP3    H268555   0.420   5.913   3.252 -0.3195 -0.9939 -0.9241
15714TIP3   OH268556   0.499   0.243  13.421  0.6255  0.1775 -0.2457
15714TIP3    H168557   0.583   0.239  13.375  0.7157  0.5981 -0.1219
15714TIP3    H268558   0.497   0.331  13.460 -0.8997  1.0691 -2.1907
15715TIP3   OH268559   0.386   0.292   0.637 -0.4972  0.0526  0.2776
15715TIP3    H168560   0.414   0.220   0.694 -0.3855 -0.3540 -0.2897
15715TIP3    H268561   0.346   0.250   0.562  0.7620  0.5295 -0.6922
15716TIP3   OH268562   2.278   1.240  15.148 -0.3832 -0.6424  0.1201
15716TIP3    H168563   2.207   1.193  15.192 -1.3776  1.8148  1.3581
15716TIP3    H268564   2.235   1.312  15.102  1.0335 -0.9922 -1.8893
15717TIP3   OH268565   1.560   0.497  14.676  0.3127  0.3295 -0.3099
15717TIP3    H168566   1.621   0.529  14.609 -0.1382 -2.3035 -2.1246
15717TIP3    H268567   1.491   0.452  14.627  0.4862 -2.6372  1.8789
15718TIP3   OH268568   5.391   3.531  13.298 -0.0712 -0.1476 -0.7634
15718TIP3    H168569   5.476   3.568  13.321 -0.0463  1.4300 -3.0402
15718TIP3    H268570   5.361   3.488  13.378  2.0412  0.8210  0.6419
15719TIP3   OH268571   3.684   2.446   1.049  0.0856  0.2439  0.2565
15719TIP3    H168572   3.603   2.396   1.060  0.1373  0.6131  3.1890
15719TIP3    H268573   3.659   2.523   0.998 -0.6966 -1.0742 -1.4556
15720TIP3   OH268574   3.603   0.379  17.160 -0.3111  0.0619 -0.0842
15720TIP3    H168575   3.551   0.367  17.240 -0.4667  0.4201 -0.1310
15720TIP3    H268576   3.597   0.472  17.141  1.8088  0.4518  0.9122
15721TIP3   OH268577   2.735   1.270  13.215  0.0670 -0.1370 -0.7001
15721TIP3    H168578   2.665   1.254  13.277  0.6050  0.3069  0.0345
15721TIP3    H268579   2.763   1.360  13.233 -0.0684  0.1636 -1.8850
15722TIP3   OH268580   0.987   2.341  17.151 -0.2239  0.3192 -0.2372
15722TIP3    H168581   0.952   2.403  17.214 -1.2880 -1.1523  0.6809
15722TIP3    H268582   1.069   2.380  17.121 -0.2970  1.6012  1.1718
15723TIP3   OH268583   2.621   2.622   5.891  0.2890 -0.2204  0.1683
15723TIP3    H168584   2.568   2.551   5.928  2.0434 -2.4494 -1.2915
15723TIP3    H268585   2.588   2.633   5.802  0.5446  0.2417  0.1278
15724TIP3   OH268586   6.708   1.776  12.567 -0.0414 -0.0052  0.1287
15724TIP3    H168587   6.728   1.705  12.506 -1.2915 -0.6268  0.4088
15724TIP3    H268588   6.755   1.753  12.647  0.5198  0.1246 -0.1520
15725TIP3   OH268589   0.844   2.580   5.045  0.2603  0.2545 -0.4447
15725TIP3    H168590   0.804   2.662   5.074  1.0416  0.5214 -0.1190
15725TIP3    H268591   0.876   2.538   5.125  0.3522 -0.1146 -0.6702
15726TIP3   OH268592   3.602   4.532   5.233  0.2948  0.1366  0.4042
15726TIP3    H168593   3.606   4.497   5.145 -0.2723  0.1409  0.3730
15726TIP3    H268594   3.661   4.607   5.232  0.2673  0.1541  0.0188
15727TIP3   OH268595   4.989   2.129   2.801  0.2535  0.3669 -0.1088
15727TIP3    H168596   5.042   2.055   2.771 -1.7126 -0.9643 -0.4893
15727TIP3    H268597   5.011   2.138   2.894  0.3707 -0.8655  0.0048
15728TIP3   OH268598   5.272   4.301  13.101 -0.2794 -0.1706 -0.4687
15728TIP3    H168599   5.231   4.388  13.098  0.4700  0.2448  0.6714
15728TIP3    H268600   5.285   4.284  13.194  1.3612 -0.6517 -0.7502
15729TIP3   OH268601   5.381   4.952  13.360 -0.5620 -0.3722 -0.4872
15729TIP3    H168602   5.427   4.878  13.321  0.4174 -0.2512  0.3985
15729TIP3    H268603   5.367   4.927  13.451 -1.2853  0.0485 -0.4695
15730TIP3   OH268604   0.926   0.487   0.010 -0.6334  0.0879 -0.3099
15730TIP3    H168605   0.857   0.553   0.001  0.6658  1.6616  0.7134
15730TIP3    H268606   0.977   0.494  -0.070 -0.7481  0.0344 -0.3874
15731TIP3   OH268607   3.413   1.332   0.917  0.3061  0.5042 -0.0341
15731TIP3    H168608   3.344   1.365   0.860 -0.0192  3.6758  1.9492
15731TIP3    H268609   3.373   1.329   1.004  1.7459 -0.9001  0.6423
15732TIP3   OH268610   0.882   4.267  11.101 -0.2259  0.0371  0.6605
15732TIP3    H168611   0.791   4.293  11.113 -0.5585  0.3082 -1.9195
15732TIP3    H268612   0.929   4.349  11.081  0.4703 -0.1838  1.3263
15733TIP3   OH268613   1.938   4.233   4.282  0.2356  0.3626  0.1926
15733TIP3    H168614   1.982   4.219   4.365  0.4023  1.4687  0.3068
15733TIP3    H268615   1.993   4.189   4.217  0.6432  0.3546  0.5413
15734TIP3   OH268616   2.314   3.540   3.616 -0.1205 -0.7524  0.3750
15734TIP3    H168617   2.290   3.619   3.665 -0.8386 -2.1589  2.3784
15734TIP3    H268618   2.339   3.573   3.530  0.0313  1.7125  1.2788
15735TIP3   OH268619   5.591   2.196  14.843 -0.0230 -0.0788  0.1369
15735TIP3    H168620   5.582   2.253  14.920 -0.1733  1.2106 -0.7899
15735TIP3    H268621   5.595   2.257  14.769 -0.4219 -1.2974 -0.9284
15736TIP3   OH268622   4.483   5.285   0.960  0.0493  0.3165  0.5746
15736TIP3    H168623   4.436   5.272   0.878  0.5904  0.2303  0.2730
15736TIP3    H268624   4.460   5.208   1.013 -0.2334  0.3299  0.4744
15737TIP3   OH268625   1.552   6.582  14.322 -0.2332 -0.0069 -0.1015
15737TIP3    H168626   1.517   6.538  14.244 -3.4525  0.3935  0.9940
15737TIP3    H268627   1.545   6.675  14.302 -1.4250  0.1068  0.7632
15738TIP3   OH268628   2.382   0.280  12.831  0.1635 -0.3021  0.4334
15738TIP3    H168629   2.336   0.363  12.845  2.0403  0.7561  0.7132
15738TIP3    H268630   2.405   0.282  12.738  0.6372 -0.2583  0.5490
15739TIP3   OH268631   1.054   1.232  11.946 -0.4741 -0.1022  0.0047
15739TIP3    H168632   1.117   1.304  11.935  1.8434 -2.0485 -0.1917
15739TIP3    H268633   1.008   1.254  12.027  0.8159  1.1706  0.4482
15740TIP3   OH268634   6.108   5.392   1.474 -0.2158  0.7429  0.2255
15740TIP3    H168635   6.113   5.367   1.567  0.8786  0.0800  0.0101
15740TIP3    H268636   6.095   5.309   1.428  0.8336  0.8710 -0.3201
15741TIP3   OH268637   4.125   6.379  16.107  0.0739 -0.1341  0.0991
15741TIP3    H168638   4.036   6.388  16.073 -0.0958  0.8411  0.7553
15741TIP3    H268639   4.170   6.458  16.076  0.0419  0.5465  1.6898
15742TIP3   OH268640   3.026   0.395  15.140 -0.3271  0.4631 -0.3999
15742TIP3    H168641   2.985   0.416  15.224  0.6985  2.1334 -0.2679
15742TIP3    H268642   2.954   0.363  15.085 -1.6211  2.2935  0.1460
15743TIP3   OH268643   3.629   5.448  11.561 -0.3874  0.1390  0.0667
15743TIP3    H168644   3.541   5.484  11.547 -1.1382 -0.6825  2.1912
15743TIP3    H268645   3.674   5.516  11.612  0.1762  0.4839 -0.8701
15744TIP3   OH268646   1.488   5.726  14.797  0.3000  0.2246  0.6017
15744TIP3    H168647   1.562   5.751  14.853  0.8768  1.1886 -0.5188
15744TIP3    H268648   1.521   5.740  14.708 -1.4058  1.2178  0.0841
15745TIP3   OH268649   0.211   4.724   4.930 -0.1139 -0.1012 -0.6250
15745TIP3    H168650   0.154   4.658   4.890  1.6823 -1.7064 -0.6676
15745TIP3    H268651   0.274   4.745   4.861  1.6833 -1.2774  0.5656
15746TIP3   OH268652   3.725   3.807   4.269  0.1686 -0.0131 -0.6650
15746TIP3    H168653   3.776   3.871   4.220  1.4020 -0.9352 -0.6202
15746TIP3    H268654   3.718   3.731   4.212  0.9951 -0.8249  0.2715
15747TIP3   OH268655   3.999   4.870   2.666 -0.0243  0.4413  0.9969
15747TIP3    H168656   4.017   4.959   2.636  0.3463 -0.2225 -0.8673
15747TIP3    H268657   4.014   4.873   2.760  0.5573  2.2012  0.8815
15748TIP3   OH268658   0.006   3.811  15.308 -0.0756  0.4696  0.0437
15748TIP3    H168659  -0.006   3.792  15.401  2.0609  0.1898  0.3078
15748TIP3    H268660  -0.057   3.880  15.289 -0.3840  0.6943  1.7629
15749TIP3   OH268661   4.280   3.382  13.954 -0.0920 -0.0482  0.6070
15749TIP3    H168662   4.248   3.373  14.044  0.4061 -0.3095  0.7637
15749TIP3    H268663   4.216   3.334  13.901  0.1958 -0.8361  0.9489
15750TIP3   OH268664   6.652   5.405  14.822  0.4574 -0.2761 -0.0416
15750TIP3    H168665   6.584   5.342  14.799  0.5354  0.0885 -1.3812
15750TIP3    H268666   6.621   5.488  14.786  0.8719  0.2268  0.7337
15751TIP3   OH268667   5.812   6.333   1.647 -0.1831 -0.0565 -0.3776
15751TIP3    H168668   5.727   6.291   1.632  0.5421 -1.1528 -1.6429
15751TIP3    H268669   5.835   6.311   1.737 -1.5198  0.8321  0.2233
15752TIP3   OH268670   3.910   0.565   4.900 -0.4154  0.0148  0.4186
15752TIP3    H168671   3.868   0.580   4.985 -1.1797  0.4007 -0.0200
15752TIP3    H268672   3.960   0.646   4.885 -2.5212  1.1903 -0.7718
15753TIP3   OH268673   4.578   0.406  15.986  0.2478 -0.9973 -0.0344
15753TIP3    H168674   4.625   0.364  15.914 -1.9135 -1.1976 -1.3906
15753TIP3    H268675   4.547   0.333  16.040  1.7777 -0.8515  1.1276
15754TIP3   OH268676   4.179   1.838   0.093  0.0051  0.0361  0.2439
15754TIP3    H168677   4.119   1.894   0.044 -1.5646 -0.6981  1.2347
15754TIP3    H268678   4.168   1.864   0.185  0.1007 -1.0896  0.6012
15755TIP3   OH268679   4.136   2.340   2.778  0.1580 -0.0764 -0.1034
15755TIP3    H168680   4.080   2.286   2.722  1.8002  0.1200 -2.0296
15755TIP3    H268681   4.091   2.424   2.782 -0.5607 -0.4498 -0.1715
15756TIP3   OH268682   6.765   5.543  15.317  0.4083 -0.3714 -0.1742
15756TIP3    H168683   6.725   5.491  15.246 -1.2597  0.0324  0.4197
15756TIP3    H268684   6.710   5.526  15.393  1.2148  0.4680  0.6227
15757TIP3   OH268685   1.332   4.291  13.566  0.0496 -0.7089 -0.5568
15757TIP3    H168686   1.352   4.211  13.518 -0.4858 -1.4277  0.3811
15757TIP3    H268687   1.330   4.264  13.658  0.0249  0.4181 -0.2059
15758TIP3   OH268688   6.226   0.462   4.440  0.0616  0.2552  0.6130
15758TIP3    H168689   6.294   0.401   4.410 -0.2247  0.6662 -0.9813
15758TIP3    H268690   6.145   0.428   4.401 -0.2220  1.2113  0.3454
15759TIP3   OH268691   3.406   6.055   5.160  0.7475 -0.5959 -0.0826
15759TIP3    H168692   3.487   6.013   5.130 -0.5833 -1.0305 -3.5607
15759TIP3    H268693   3.404   6.139   5.114  0.1987  0.4008  1.6625
15760TIP3   OH268694   2.769   3.509  15.896 -1.0701  0.1762  0.2604
15760TIP3    H168695   2.697   3.560  15.933  1.6766  2.2670  3.2626
15760TIP3    H268696   2.780   3.545  15.808 -1.7502  2.0092  0.8653
15761TIP3   OH268697   0.010   3.824   3.831  0.4391 -0.0805  0.4836
15761TIP3    H168698   0.009   3.908   3.784 -0.5596 -0.2975  0.0773
15761TIP3    H268699   0.056   3.764   3.772  2.5544  0.5172  1.4465
15762TIP3   OH268700   5.677   4.692   6.369 -0.1758  0.5233  0.4605
15762TIP3    H168701   5.739   4.764   6.383 -0.4608  0.7285  0.6652
15762TIP3    H268702   5.730   4.613   6.379  0.2329  0.7011 -0.1850
15763TIP3   OH268703   0.594   2.571   4.924 -0.0304  0.1328  0.5998
15763TIP3    H168704   0.540   2.507   4.970 -0.1265  1.2224  2.1038
15763TIP3    H268705   0.684   2.545   4.944 -0.0257 -0.4991 -0.2072
15764TIP3   OH268706   6.534   2.578  13.339 -0.8911  0.0575  0.2201
15764TIP3    H168707   6.485   2.582  13.256 -0.2685 -0.7884 -0.2045
15764TIP3    H268708   6.508   2.657  13.386 -2.3299 -0.1522 -0.1807
15765TIP3   OH268709   2.018   6.756   3.380  0.1408 -0.7346  0.0255
15765TIP3    H168710   1.990   6.844   3.402 -1.5089 -1.2776  0.2350
15765TIP3    H268711   1.984   6.701   3.450  0.2978 -1.6597 -0.5998
15766TIP3   OH268712   3.047   0.313   5.721  0.0315  0.1939 -0.1041
15766TIP3    H168713   3.087   0.394   5.690 -0.4488  0.0671 -1.0935
15766TIP3    H268714   3.006   0.275   5.643 -1.9750  0.2973  0.8340
15767TIP3   OH268715   1.801   3.480  12.993 -0.5718  0.0101  0.0986
15767TIP3    H168716   1.812   3.570  13.024 -0.9066  0.2275 -0.4103
15767TIP3    H268717   1.775   3.489  12.902  0.0227 -0.6265 -0.1364
15768TIP3   OH268718   2.209   6.356   2.489  0.4370 -0.1679 -0.9916
15768TIP3    H168719   2.294   6.392   2.514 -0.4977  1.2627  0.2750
15768TIP3    H268720   2.214   6.349   2.393  2.0137 -0.2378 -0.9319
15769TIP3   OH268721   1.785   0.810  13.680  0.3795 -0.3498 -0.0690
15769TIP3    H168722   1.693   0.829  13.701  0.4460  0.6434 -0.6177
15769TIP3    H268723   1.819   0.767  13.759 -0.2374  0.3813  0.6093
15770TIP3   OH268724   3.301   4.135   3.206  0.1443  0.3651 -0.2245
15770TIP3    H168725   3.376   4.075   3.199 -0.9787 -0.9311 -1.9476
15770TIP3    H268726   3.269   4.144   3.116 -1.8523  0.7819  0.4781
15771TIP3   OH268727   4.695   5.438   1.065 -0.0625 -0.4380 -0.1402
15771TIP3    H168728   4.713   5.505   0.999  1.5039 -2.6375 -2.1156
15771TIP3    H268729   4.620   5.390   1.030 -1.4942  0.5012  1.5055
15772TIP3   OH268730   1.372   4.547   5.588  0.5908  0.4745 -0.6084
15772TIP3    H168731   1.453   4.521   5.630  0.0386 -0.2003  0.0609
15772TIP3    H268732   1.365   4.489   5.512 -1.1010 -2.1489  1.3827
15773TIP3   OH268733   2.714   2.566  17.242  0.1979 -0.3377  0.1432
15773TIP3    H168734   2.670   2.580  17.157 -0.2349  1.8500  0.6618
15773TIP3    H268735   2.683   2.481  17.271 -1.1336 -0.3018 -1.0525
15774TIP3   OH268736   2.303   0.177  17.170  0.5631 -0.6039 -0.2076
15774TIP3    H168737   2.244   0.102  17.168  0.7248 -0.7653  0.6948
15774TIP3    H268738   2.261   0.243  17.114 -0.1115 -0.9754 -0.1383
15775TIP3   OH268739   0.594   3.144   3.289 -0.4159 -0.3654  0.8418
15775TIP3    H168740   0.532   3.165   3.360 -0.0201 -5.3726  3.1514
15775TIP3    H268741   0.671   3.110   3.335  0.1795 -3.1527 -1.9317
15776TIP3   OH268742   4.602   6.574   0.555 -0.2247  1.0126  0.3497
15776TIP3    H168743   4.613   6.492   0.507 -2.9070  0.1489  1.0829
15776TIP3    H268744   4.634   6.555   0.643 -0.5346  0.8545  0.4285
15777TIP3   OH268745   2.299   1.856   5.161 -0.7204  0.5305  0.5391
15777TIP3    H168746   2.301   1.785   5.224  1.2761 -1.0357 -1.1471
15777TIP3    H268747   2.207   1.885   5.160 -1.7815 -2.4753  0.8046
15778TIP3   OH268748   2.137   5.716   5.310 -0.6583  0.4427  0.6426
15778TIP3    H168749   2.163   5.746   5.223 -0.6705 -0.4986  0.2999
15778TIP3    H268750   2.218   5.717   5.361 -0.5049  0.2810  0.4025
15779TIP3   OH268751   3.363   1.078   0.743 -0.4753 -0.2240 -0.5123
15779TIP3    H168752   3.273   1.112   0.737 -0.0453  1.1345  0.3324
15779TIP3    H268753   3.411   1.146   0.789  0.9905 -0.9731 -0.8875
15780TIP3   OH268754   2.358   5.795   3.037  0.0356  0.0127  0.3462
15780TIP3    H168755   2.271   5.826   3.061  0.0037 -0.3211  0.6734
15780TIP3    H268756   2.342   5.716   2.985  0.1507 -0.4118  0.9420
15781TIP3   OH268757   3.801   6.466   3.893 -0.0889 -0.3394 -0.2354
15781TIP3    H168758   3.782   6.417   3.813  1.0316  0.3544 -0.9584
15781TIP3    H268759   3.882   6.513   3.874 -1.0079  1.6557  0.4919
15782TIP3   OH268760   5.418   2.608   3.888 -0.2787 -0.1879 -0.4560
15782TIP3    H168761   5.454   2.666   3.955 -2.3050  0.7961 -0.1337
15782TIP3    H268762   5.452   2.643   3.806  0.2792  0.0890 -0.1187
15783TIP3   OH268763   1.483   4.000  15.639  0.1215 -0.5489  0.3160
15783TIP3    H168764   1.548   4.068  15.619 -0.5799  0.0223 -0.1073
15783TIP3    H268765   1.504   3.972  15.728  0.6549 -0.0386  0.3585
15784TIP3   OH268766   6.020   3.258  10.848 -0.3005  0.3207 -0.3086
15784TIP3    H168767   6.108   3.264  10.812  0.6434 -1.0991  1.6121
15784TIP3    H268768   6.031   3.276  10.942 -2.4876  2.8425 -0.4027
15785TIP3   OH268769   3.513   2.447  11.035 -0.2862  0.3540 -0.1502
15785TIP3    H168770   3.579   2.507  11.000 -1.6150  0.4516 -2.7425
15785TIP3    H268771   3.441   2.505  11.063 -0.1882  0.1326  0.5738
15786TIP3   OH268772   6.235   0.517  11.241 -0.0141 -0.4187  0.2043
15786TIP3    H168773   6.264   0.436  11.282  0.5175 -0.2359  0.2047
15786TIP3    H268774   6.165   0.490  11.182  0.8641 -1.0486 -0.5908
15787TIP3   OH268775   6.161   5.183  14.484 -0.4361  0.0229  0.0828
15787TIP3    H168776   6.217   5.176  14.406  0.0905  1.5566  0.2935
15787TIP3    H268777   6.205   5.128  14.549 -1.0811 -1.5805 -0.7627
15788TIP3   OH268778   2.305   3.180  11.550  0.2035  0.1254  0.1118
15788TIP3    H168779   2.312   3.275  11.541  1.3041  0.1680  1.2207
15788TIP3    H268780   2.308   3.164  11.645  2.0713 -1.1468 -0.1124
15789TIP3   OH268781   5.072   1.423   4.949 -0.4831 -0.6148 -0.7150
15789TIP3    H168782   5.139   1.457   5.008 -0.5337 -0.2712 -0.8576
15789TIP3    H268783   5.115   1.352   4.902 -0.7105 -1.5538  0.4277
15790TIP3   OH268784   6.155   1.700   0.207 -0.2482 -0.3052 -0.2069
15790TIP3    H168785   6.160   1.605   0.216 -1.0539 -0.2891  0.5654
15790TIP3    H268786   6.076   1.725   0.255 -1.5326  0.4905 -2.5396
15791TIP3   OH268787   0.022   3.592   5.493 -0.0588  0.3620 -0.3030
15791TIP3    H168788  -0.005   3.683   5.506 -2.8265 -0.0713 -2.2034
15791TIP3    H268789  -0.036   3.541   5.549  2.5754 -0.3044  2.0877
15792TIP3   OH268790   3.905   1.447   0.321  0.2227 -0.0982 -0.0979
15792TIP3    H168791   3.843   1.377   0.341  0.6283 -1.1875 -2.3210
15792TIP3    H268792   3.866   1.493   0.247  0.8635  0.8255  0.1283
15793TIP3   OH268793   0.232   5.491   1.124 -0.3931  0.0235 -0.3745
15793TIP3    H168794   0.302   5.461   1.067 -0.5079  1.1640 -1.1561
15793TIP3    H268795   0.276   5.512   1.207 -0.2995 -2.0731  0.1592
15794TIP3   OH268796   2.688   5.820   5.608 -0.1809  1.0173  0.1504
15794TIP3    H168797   2.753   5.799   5.676 -0.6565  0.1052  0.3314
15794TIP3    H268798   2.610   5.846   5.657  0.0874  2.3573 -0.0670
15795TIP3   OH268799   5.825   4.739   5.178  0.0431  0.1318  0.1619
15795TIP3    H168800   5.847   4.647   5.167 -1.7502 -0.1571 -1.5357
15795TIP3    H268801   5.906   4.786   5.154  0.4463 -0.9661 -0.7038
15796TIP3   OH268802   0.209   4.369  14.961 -0.6939  0.0539 -0.5489
15796TIP3    H168803   0.214   4.340  15.052  1.7658  0.5145 -0.4578
15796TIP3    H268804   0.223   4.464  14.965 -0.2784  0.0422 -1.3938
15797TIP3   OH268805   6.570   2.315   2.795  0.1055 -0.2226  0.4108
15797TIP3    H168806   6.554   2.409   2.808  0.7839  0.1101 -0.9734
15797TIP3    H268807   6.593   2.282   2.882 -1.1775  0.6647  1.1202
15798TIP3   OH268808   4.154   2.294   3.542 -0.8567 -0.7948  0.3020
15798TIP3    H168809   4.139   2.360   3.610 -1.1912 -0.2825 -0.2628
15798TIP3    H268810   4.123   2.335   3.462  0.9496 -0.8027 -0.4342
15799TIP3   OH268811   6.014   0.801  12.363 -0.2300 -0.7027  0.3294
15799TIP3    H168812   6.061   0.724  12.333  0.7097 -0.0368  0.0382
15799TIP3    H268813   5.981   0.843  12.283 -1.0497 -0.9799  0.5082
15800TIP3   OH268814   5.464   0.364  12.306  0.2452  0.4597 -0.0103
15800TIP3    H168815   5.427   0.452  12.316  1.1494  0.7452  0.9224
15800TIP3    H268816   5.494   0.340  12.393  3.2060  0.6940 -0.8350
15801TIP3   OH268817   4.720   1.569  16.621 -0.6417 -0.5635  0.2306
15801TIP3    H168818   4.700   1.633  16.552 -1.3248  0.1844  1.0902
15801TIP3    H268819   4.771   1.501  16.577  1.2166  1.1690 -0.4755
15802TIP3   OH268820   2.300   5.421  17.023 -0.1262 -0.7499 -0.2228
15802TIP3    H168821   2.227   5.477  16.999  1.4475  1.7316  0.3759
15802TIP3    H268822   2.297   5.417  17.118  0.4208 -0.7197 -0.1980
15803TIP3   OH268823   0.890   1.914   4.096  0.4159  0.4283 -0.1694
15803TIP3    H168824   0.985   1.920   4.107  0.6122 -1.6098 -0.3186
15803TIP3    H268825   0.875   1.939   4.004  1.0778 -1.1331 -0.7386
15804TIP3   OH268826   3.723   6.449   0.196  0.0324  0.5058 -0.1363
15804TIP3    H168827   3.664   6.522   0.178 -0.5025  0.5174  1.4588
15804TIP3    H268828   3.670   6.389   0.249  0.6844 -0.7126 -0.8208
15805TIP3   OH268829   3.002   3.813  11.795 -0.1941 -0.0914  0.0032
15805TIP3    H168830   3.080   3.866  11.812  3.0962 -4.0541 -1.0487
15805TIP3    H268831   2.982   3.771  11.879  0.0693 -0.5344 -0.1507
15806TIP3   OH268832   4.813   5.115   1.946 -0.0332  0.5085  0.2229
15806TIP3    H168833   4.896   5.132   1.903 -0.7935  3.6699 -0.2877
15806TIP3    H268834   4.759   5.072   1.880  0.6831 -0.1237  0.0437
15807TIP3   OH268835   4.815   2.533  12.284  0.6088  0.4381  0.1798
15807TIP3    H168836   4.820   2.628  12.275  0.5073  0.4511  0.2556
15807TIP3    H268837   4.742   2.508  12.226 -1.4770  0.7480  2.4879
15808TIP3   OH268838   3.763   2.601  16.598  0.2050 -0.3504 -0.4176
15808TIP3    H168839   3.767   2.525  16.540 -0.7464 -1.5375  0.9991
15808TIP3    H268840   3.855   2.620  16.619  0.4807 -0.7119 -1.2686
15809TIP3   OH268841   0.603   6.410  15.244  0.1621  0.2592 -0.4339
15809TIP3    H168842   0.586   6.340  15.181  1.2949 -0.9997  0.5999
15809TIP3    H268843   0.517   6.446  15.264 -0.4869 -1.0247 -0.7843
15810TIP3   OH268844   0.804   1.796  12.804  0.1959  0.0166  0.2419
15810TIP3    H168845   0.899   1.803  12.808  0.2609 -0.5244 -0.2050
15810TIP3    H268846   0.786   1.706  12.831  0.0088 -0.7580 -2.2718
15811TIP3   OH268847   1.086   6.676   5.701 -0.2594  0.0899 -0.1045
15811TIP3    H168848   1.083   6.647   5.792 -0.3390 -0.0505 -0.1517
15811TIP3    H268849   1.174   6.714   5.691 -0.0744 -0.3389 -0.1059
15812TIP3   OH268850   6.607   3.398   5.563  0.3941 -0.2491  0.2528
15812TIP3    H168851   6.534   3.447   5.525 -1.2619 -2.0719  0.9394
15812TIP3    H268852   6.599   3.310   5.525  1.6625 -0.7590  1.0972
15813TIP3   OH268853   5.232   1.783  11.301  0.0494 -0.1406 -0.1771
15813TIP3    H168854   5.211   1.872  11.274  0.4883  0.4859  1.4541
15813TIP3    H268855   5.194   1.775  11.388 -1.3182 -2.0876 -0.8871
15814TIP3   OH268856   2.278   2.795   0.419 -0.0444  0.2067  0.4540
15814TIP3    H168857   2.323   2.822   0.339 -0.4896 -1.2181 -0.3042
15814TIP3    H268858   2.315   2.852   0.487  1.3014  0.5504 -0.5198
15815TIP3   OH268859   3.850   6.393  16.002 -0.2895 -0.1274  0.1651
15815TIP3    H168860   3.791   6.449  16.053 -0.4806 -0.2499  0.0780
15815TIP3    H268861   3.796   6.318  15.977 -0.4898  0.4036 -1.0744
15816TIP3   OH268862   4.185   3.237   0.992  0.0101 -0.0507  0.4060
15816TIP3    H168863   4.146   3.264   0.909  1.1862  0.0707 -0.1144
15816TIP3    H268864   4.111   3.204   1.043 -0.4291 -2.2554 -1.5115
15817TIP3   OH268865   3.263   0.881  17.034  0.2031  0.1146  0.2039
15817TIP3    H168866   3.334   0.938  17.004  0.0278  1.5843  2.3590
15817TIP3    H268867   3.183   0.930  17.015 -0.1446 -0.6689 -0.4250
15818TIP3   OH268868   0.496   3.767  12.526 -0.4125  0.2429  0.0525
15818TIP3    H168869   0.471   3.760  12.618  0.4167 -0.7966  0.2187
15818TIP3    H268870   0.414   3.752  12.478 -0.6619 -0.2487  0.6156
15819TIP3   OH268871   0.338   1.955   0.295 -0.3417 -0.2986  0.1944
15819TIP3    H168872   0.283   1.971   0.218 -1.0426 -0.3676  0.6719
15819TIP3    H268873   0.341   2.039   0.340  2.4284  0.5600 -1.3542
15820TIP3   OH268874   4.394   0.116   0.065  0.2825 -0.7388 -0.2965
15820TIP3    H168875   4.478   0.132   0.108  0.3534  0.0235 -0.7117
15820TIP3    H268876   4.332   0.101   0.138  0.1948  1.4896  0.1482
15821TIP3   OH268877   3.901   2.188  14.741  0.0666  0.1960  0.1858
15821TIP3    H168878   3.845   2.130  14.792  0.4976  0.8394  1.4300
15821TIP3    H268879   3.987   2.147  14.743  0.5718  1.2129  1.7631
15822TIP3   OH268880   6.547   3.615  12.715  0.1342  0.4490  0.2150
15822TIP3    H168881   6.604   3.684  12.681  0.0766 -0.2387 -1.3333
15822TIP3    H268882   6.550   3.546  12.650 -0.8070 -0.5009  1.1316
15823TIP3   OH268883   2.752   0.205  14.052  0.1173  0.0152  0.3596
15823TIP3    H168884   2.699   0.237  14.124 -0.5222  0.5350 -0.3284
15823TIP3    H268885   2.796   0.282  14.018  0.0577 -0.1434 -0.0936
15824TIP3   OH268886   5.768   0.050   1.152 -0.3232  0.4504  0.4040
15824TIP3    H168887   5.808   0.061   1.238  0.7892  0.0081 -0.0388
15824TIP3    H268888   5.707  -0.023   1.162  0.7881 -0.4891  0.5012
15825TIP3   OH268889   3.249   1.808  12.270  0.5185  0.4916 -0.5687
15825TIP3    H168890   3.300   1.882  12.304  0.5332 -0.6556  2.2191
15825TIP3    H268891   3.315   1.742  12.247  0.4161  0.2565 -0.1950
15826TIP3   OH268892   3.543   3.826  15.468 -0.2352 -0.3077  0.0827
15826TIP3    H168893   3.528   3.811  15.562  1.0259  0.5181  0.4464
15826TIP3    H268894   3.636   3.849  15.462 -0.3062 -0.2996 -1.3757
15827TIP3   OH268895   6.213   2.749  11.368  0.2828  0.2915  0.6303
15827TIP3    H168896   6.251   2.687  11.430  0.5712 -0.1027  0.0643
15827TIP3    H268897   6.275   2.753  11.296 -1.3503 -1.4614 -0.9917
15828TIP3   OH268898   2.480   6.541   2.874 -0.5324 -0.1702  0.2482
15828TIP3    H168899   2.505   6.450   2.854 -1.2218 -0.0947 -1.1247
15828TIP3    H268900   2.478   6.584   2.788 -0.8297  0.9884  0.8157
15829TIP3   OH268901   2.050   0.400  13.136 -0.4933  0.1283  0.4535
15829TIP3    H168902   1.990   0.418  13.064 -1.0593  1.0596  1.1360
15829TIP3    H268903   2.104   0.479  13.143 -0.0792 -0.1710  0.6990
15830TIP3   OH268904   4.207   0.823   6.642 -0.2913  0.0843  0.6921
15830TIP3    H168905   4.280   0.761   6.644  0.8250  1.2903 -1.0858
15830TIP3    H268906   4.140   0.780   6.589  1.2633  1.1131 -2.3016
15831TIP3   OH268907   5.939   6.322  11.978  0.0494 -0.1868  0.0640
15831TIP3    H168908   5.956   6.412  12.006 -1.8351  0.5728 -1.0510
15831TIP3    H268909   6.000   6.308  11.906 -0.2714  0.5299 -0.3538
15832TIP3   OH268910   1.753   0.468  12.805  0.0467 -0.1235 -0.4607
15832TIP3    H168911   1.787   0.500  12.888  0.3088  1.0556 -0.9943
15832TIP3    H268912   1.793   0.525  12.739  0.4724 -1.5380 -1.4683
15833TIP3   OH268913   1.547   1.203  15.511 -0.6630  0.3135  0.2772
15833TIP3    H168914   1.514   1.211  15.600  1.4604  2.3615  0.9809
15833TIP3    H268915   1.478   1.239  15.455 -2.4707 -1.9757  0.8980
15834TIP3   OH268916   2.040   5.904   5.505 -0.1574 -0.4308 -0.3740
15834TIP3    H168917   2.049   5.836   5.438  1.3963 -0.5468 -0.0646
15834TIP3    H268918   2.125   5.947   5.509 -0.2016 -0.4255  1.5415
15835TIP3   OH268919   6.073   6.647  15.484  0.9052  0.2213 -0.0016
15835TIP3    H168920   6.150   6.698  15.512 -0.6727  2.9874 -0.2697
15835TIP3    H268921   6.030   6.623  15.566  0.3426  1.5856  0.1276
15836TIP3   OH268922   6.392   2.354   0.718  0.3866  0.5120  0.7989
15836TIP3    H168923   6.467   2.302   0.690 -1.1825 -1.4789  0.0178
15836TIP3    H268924   6.423   2.403   0.794  2.2297 -0.8802  1.0078
15837TIP3   OH268925   3.904   6.588  13.755  0.1217  0.2569 -0.3821
15837TIP3    H168926   3.940   6.511  13.711  0.2026 -1.1004  1.9222
15837TIP3    H268927   3.964   6.605  13.827 -0.4304  1.9165 -0.2668
15838TIP3   OH268928   5.358   0.710   2.644 -0.2579 -0.4215 -0.4048
15838TIP3    H168929   5.347   0.617   2.665  1.2139 -0.5811 -0.2423
15838TIP3    H268930   5.300   0.756   2.705 -0.2581 -1.1706  0.1715
15839TIP3   OH268931   4.644   5.193   2.763  0.2299 -1.1491 -0.4222
15839TIP3    H168932   4.684   5.208   2.678  1.2848  0.7915  0.3531
15839TIP3    H268933   4.713   5.213   2.826 -1.0164 -0.8229  0.8993
15840TIP3   OH268934   2.572   1.518   0.003  0.3228  0.2848 -0.2627
15840TIP3    H168935   2.591   1.533  -0.090 -0.1636 -0.0188 -0.4161
15840TIP3    H268936   2.634   1.574   0.049  1.6877 -0.7809 -0.7395
15841TIP3   OH268937   1.540   1.960  17.167  0.0299 -0.2140  0.5731
15841TIP3    H168938   1.577   2.039  17.207  0.3252 -1.2600  2.5292
15841TIP3    H268939   1.453   1.987  17.137 -0.4516  0.5750  2.4870
15842TIP3   OH268940   4.230   1.987   3.343 -0.0589 -0.3374 -0.1533
15842TIP3    H168941   4.166   2.052   3.317 -0.1299 -0.3719 -0.0651
15842TIP3    H268942   4.301   1.997   3.280 -0.4385 -0.7428 -0.6506
15843TIP3   OH268943   4.078   3.723   4.430 -0.4671 -0.4837 -0.5668
15843TIP3    H168944   4.145   3.791   4.438 -0.8571 -0.1224 -0.3736
15843TIP3    H268945   4.038   3.740   4.344  0.4713 -1.4210 -1.2258
15844TIP3   OH268946   1.694   1.726  11.766  0.4455  0.2034  0.3252
15844TIP3    H168947   1.724   1.673  11.692 -0.6453  0.6437 -0.4532
15844TIP3    H268948   1.762   1.715  11.832  2.4816  1.3683 -1.4405
15845TIP3   OH268949   4.631   3.961  15.831 -0.3004  0.6277 -0.5295
15845TIP3    H168950   4.674   3.973  15.915 -1.2416  0.4393 -0.0077
15845TIP3    H268951   4.597   3.871  15.833  0.4566  0.2977 -1.4847
15846TIP3   OH268952   6.708   5.850  12.043 -0.0764  0.2262  0.2329
15846TIP3    H168953   6.697   5.866  11.949 -0.8019 -0.3847  0.2053
15846TIP3    H268954   6.780   5.786  12.048 -0.1839  0.0929  0.0778
15847TIP3   OH268955   1.961   2.067  16.814 -0.3209  0.9447  0.1277
15847TIP3    H168956   1.865   2.061  16.807 -0.5398  2.3398  1.4230
15847TIP3    H268957   1.983   2.011  16.888  0.0280 -0.2126 -0.8082
15848TIP3   OH268958   2.095   0.811   0.054 -0.4221 -0.0192  0.2650
15848TIP3    H168959   2.087   0.891   0.105  0.0362  0.9715 -1.1707
15848TIP3    H268960   2.016   0.761   0.076 -0.4095  0.5204  1.6440
15849TIP3   OH268961   5.125   0.121   4.261  0.5719  0.5395  0.3797
15849TIP3    H168962   5.212   0.141   4.297  0.3257  0.8269  0.8264
15849TIP3    H268963   5.141   0.054   4.194  1.4226  2.0870 -1.0463
15850TIP3   OH268964   1.586   6.282   3.203 -0.4257  0.0379  0.1189
15850TIP3    H168965   1.643   6.314   3.133  0.0775  1.8699  1.3037
15850TIP3    H268966   1.504   6.260   3.159  0.4902 -0.7045 -1.3088
15851TIP3   OH268967   4.849   5.297  10.711 -0.3667 -0.2229  0.1326
15851TIP3    H168968   4.782   5.298  10.643 -1.5426 -2.9500  1.1064
15851TIP3    H268969   4.923   5.252  10.671  0.3568  1.3843 -0.4279
15852TIP3   OH268970   1.088   3.327  15.477 -0.1884  0.4012  0.0397
15852TIP3    H168971   1.059   3.382  15.404  1.2085  0.8101 -0.2381
15852TIP3    H268972   1.044   3.243  15.463 -0.4126  0.6730 -0.9330
15853TIP3   OH268973   0.561   3.692   1.509  0.4016  0.5829 -0.7331
15853TIP3    H168974   0.631   3.633   1.536  0.0713  0.9728  1.0831
15853TIP3    H268975   0.595   3.780   1.526  0.5608  0.9422 -2.6067
15854TIP3   OH268976   5.312   2.697  11.106  0.1651  0.0436 -0.2708
15854TIP3    H168977   5.345   2.622  11.058  2.4746 -0.2161  1.5391
15854TIP3    H268978   5.272   2.753  11.040  3.1285 -0.2840 -2.5107
15855TIP3   OH268979   3.967   1.282   3.528  0.2510 -0.6553 -1.1472
15855TIP3    H168980   4.009   1.229   3.596  0.6474 -1.5768 -2.0801
15855TIP3    H268981   4.032   1.349   3.506  0.1998 -0.4787 -0.7800
15856TIP3   OH268982   2.162   2.082   2.592  0.4883  0.5995  0.0545
15856TIP3    H168983   2.172   2.175   2.572  1.3633  0.8170  1.3792
15856TIP3    H268984   2.222   2.038   2.531  1.6230  1.0853  0.7782
15857TIP3   OH268985   4.775   2.241   1.656  0.0202 -0.4605  0.0724
15857TIP3    H168986   4.825   2.170   1.696  0.0240  0.7631  2.4190
15857TIP3    H268987   4.689   2.202   1.638 -0.4073 -0.8000  2.5106
15858TIP3   OH268988   6.452   5.318   0.121 -0.2801 -0.6289  0.2852
15858TIP3    H168989   6.400   5.360   0.053  0.1350  1.2873  1.1067
15858TIP3    H268990   6.409   5.233   0.135 -0.7794 -0.7664 -1.8363
15859TIP3   OH268991   4.645   1.312  15.241 -0.1278  0.0470 -0.2570
15859TIP3    H168992   4.688   1.364  15.173 -0.8977  0.5656 -0.3560
15859TIP3    H268993   4.553   1.308  15.214 -0.1836 -0.9223  0.0315
15860TIP3   OH268994   3.675   3.409  10.803  0.4429  0.1754  0.2926
15860TIP3    H168995   3.629   3.327  10.818  1.3457 -0.0466  2.1389
15860TIP3    H268996   3.763   3.395  10.838  1.3067  1.2397 -1.3138
15861TIP3   OH268997   6.307   0.453  17.229 -0.4197  0.3785 -0.6963
15861TIP3    H168998   6.246   0.391  17.268  0.5135 -0.0249  0.1660
15861TIP3    H268999   6.324   0.518  17.297 -0.4162  0.8836 -1.1630
15862TIP3   OH269000   3.373   3.681  15.702 -0.2517 -0.1366  1.0737
15862TIP3    H169001   3.329   3.764  15.683 -0.8065 -0.8579 -1.1602
15862TIP3    H269002   3.302   3.617  15.707  0.2003 -0.5728  2.3540
15863TIP3   OH269003   0.330   6.614   1.542  0.5816  0.0080 -0.5437
15863TIP3    H169004   0.322   6.708   1.555  0.2338 -0.1866  0.7923
15863TIP3    H269005   0.365   6.605   1.453  5.0603  1.5886  0.7768
15864TIP3   OH269006   4.825   6.405   2.749 -0.1529 -0.1647 -0.0576
15864TIP3    H169007   4.773   6.475   2.710  0.5166  0.3853  0.0323
15864TIP3    H269008   4.766   6.330   2.751 -0.8299  0.3550 -0.2881
15865TIP3   OH269009   4.154   6.452  16.370  0.1476 -0.6388 -0.6142
15865TIP3    H169010   4.130   6.438  16.279  0.8748  0.9403 -1.0786
15865TIP3    H269011   4.247   6.427  16.375  0.2378 -0.2717 -0.4209
15866TIP3   OH269012   1.165   0.717  10.757  0.8669  0.0261  0.7271
15866TIP3    H169013   1.185   0.693  10.848  2.9720 -1.0768  0.0506
15866TIP3    H269014   1.193   0.808  10.750 -0.7597  0.6341  1.5372
15867TIP3   OH269015   1.114   4.939  14.285  0.1618 -0.7981 -0.0606
15867TIP3    H169016   1.030   4.894  14.277  0.4751 -1.2045 -1.3953
15867TIP3    H269017   1.177   4.869  14.305  0.4328 -0.7671 -0.7618
15868TIP3   OH269018   1.120   2.800  12.026  0.8795  0.0884 -0.3594
15868TIP3    H169019   1.081   2.887  12.034  0.4003 -0.0710 -0.9230
15868TIP3    H269020   1.184   2.809  11.955  0.5805 -0.1093 -0.6534
15869TIP3   OH269021   4.756   2.764   6.529 -0.0037  0.2668  0.2572
15869TIP3    H169022   4.678   2.779   6.582 -0.0074  1.1980  0.0020
15869TIP3    H269023   4.810   2.842   6.544 -0.7783  1.4329 -2.4716
15870TIP3   OH269024   3.278   0.992   4.157  0.6291  0.1646 -0.5011
15870TIP3    H169025   3.239   1.043   4.086  0.3508  0.2071 -0.3203
15870TIP3    H269026   3.261   0.901   4.134  1.9222  0.1002 -1.2861
15871TIP3   OH269027   0.636   0.041   5.846 -0.0647  0.5391 -0.2209
15871TIP3    H169028   0.585   0.117   5.874  0.5979  0.7948  0.3208
15871TIP3    H269029   0.646  -0.011   5.926  1.6603  1.1630  0.0235
15872TIP3   OH269030   3.035   5.531   0.132 -0.2848  0.3402  0.8211
15872TIP3    H169031   3.104   5.468   0.149  0.0518  0.6651  0.6760
15872TIP3    H269032   3.015   5.568   0.218  0.7840  1.3315  0.6713
15873TIP3   OH269033   4.183   2.677   3.527 -0.6318  0.1830  0.6859
15873TIP3    H169034   4.246   2.625   3.477 -0.8230  0.4953  0.1024
15873TIP3    H269035   4.186   2.640   3.615  0.1716  0.0243  0.6045
15874TIP3   OH269036   6.380   3.573  12.913 -0.4358 -0.3701 -0.5113
15874TIP3    H169037   6.425   3.598  12.832  1.0654 -1.0699  0.0761
15874TIP3    H269038   6.379   3.653  12.965  0.0404 -0.3139 -0.5822
15875TIP3   OH269039   3.835   5.635   2.793 -0.4121 -0.1734  0.0413
15875TIP3    H169040   3.795   5.704   2.741 -0.9397 -0.9586 -0.6289
15875TIP3    H269041   3.763   5.574   2.811  0.2236 -0.9868 -0.1297
15876TIP3   OH269042   0.484   5.772   5.162  0.1096  0.2866  0.2642
15876TIP3    H169043   0.400   5.729   5.150  0.2579 -0.5099  1.7973
15876TIP3    H269044   0.546   5.700   5.178  0.8132  0.9286  0.5047
15877TIP3   OH269045   2.795   2.284   1.661  0.2086 -0.0750 -0.0453
15877TIP3    H169046   2.765   2.224   1.592 -1.3774  0.9583 -0.3190
15877TIP3    H269047   2.752   2.252   1.741 -0.9230  0.8228 -0.2532
15878TIP3   OH269048   2.521   4.366   4.855  0.8465 -0.1996  0.1428
15878TIP3    H169049   2.597   4.393   4.906  0.6205  0.6654  0.0346
15878TIP3    H269050   2.479   4.298   4.908  0.0335  1.3905  1.6331
15879TIP3   OH269051   1.807   1.309  11.113 -0.3472  0.7261 -0.4023
15879TIP3    H169052   1.753   1.358  11.174 -2.2596 -0.5493 -0.9982
15879TIP3    H269053   1.748   1.285  11.042  0.1135 -3.3855  0.3830
15880TIP3   OH269054   2.835   1.078  17.221 -0.0033 -0.3762  0.3962
15880TIP3    H169055   2.781   1.143  17.265  0.6039 -0.2244  0.9245
15880TIP3    H269056   2.787   0.996  17.230  0.2455 -0.4077  1.6134
15881TIP3   OH269057   1.779   3.662   1.789  0.4578 -0.1259 -0.2330
15881TIP3    H169058   1.704   3.602   1.790  0.9607 -0.7555  1.4578
15881TIP3    H269059   1.819   3.647   1.703  0.0790 -1.5936 -0.1886
15882TIP3   OH269060   2.492   5.555  15.945 -0.1062  0.7835  0.1979
15882TIP3    H169061   2.471   5.482  16.003 -0.7389  1.3414  0.7041
15882TIP3    H269062   2.431   5.546  15.872 -1.6377  1.9285  1.2577
15883TIP3   OH269063   2.860   0.562  15.661  0.8496 -0.1777 -0.1405
15883TIP3    H169064   2.770   0.556  15.630 -0.1169  1.9606  2.0120
15883TIP3    H269065   2.901   0.480  15.632 -0.9210  0.0119 -3.6549
15884TIP3   OH269066   1.941   2.264  15.156 -0.3830 -0.3079  0.0372
15884TIP3    H169067   1.987   2.303  15.230 -0.3546 -1.7636  0.8346
15884TIP3    H269068   1.851   2.253  15.186 -0.6151  0.0345 -0.5227
15885TIP3   OH269069   5.309   4.874  12.503 -0.2096  0.5334 -0.2007
15885TIP3    H169070   5.374   4.896  12.436  0.4833 -0.2589  0.1956
15885TIP3    H269071   5.235   4.931  12.484  0.7910  1.8396 -0.3587
15886TIP3   OH269072   5.988   4.294  16.957  0.7325 -0.6143 -0.0011
15886TIP3    H169073   6.055   4.227  16.947  0.9091 -0.4065 -0.2136
15886TIP3    H269074   6.022   4.370  16.911  0.4232 -0.4544  0.0285
15887TIP3   OH269075   2.303   5.255   5.842  0.0145 -0.1729  0.2448
15887TIP3    H169076   2.252   5.297   5.773 -0.9939 -1.7607 -0.0280
15887TIP3    H269077   2.291   5.310   5.919 -0.3569  0.6207 -0.3775
15888TIP3   OH269078   5.313   5.382   3.097 -0.0548  0.1431  0.3928
15888TIP3    H169079   5.274   5.295   3.084  0.4877  0.1772 -1.7888
15888TIP3    H269080   5.368   5.372   3.175  0.4492 -1.6484 -0.1528
15889TIP3   OH269081   0.270   6.350  12.526  0.5675  0.0088 -0.0871
15889TIP3    H169082   0.284   6.427  12.471 -2.1328  0.0736 -0.8357
15889TIP3    H269083   0.175   6.343  12.533  0.7773 -1.0998  3.1099
15890TIP3   OH269084   2.648   4.450   1.415  0.1984 -0.3492 -0.1714
15890TIP3    H169085   2.618   4.361   1.436  2.5169 -1.2153 -0.2285
15890TIP3    H269086   2.653   4.494   1.500  1.1625 -1.0172  0.1354
15891TIP3   OH269087   3.264   1.498  12.700 -0.2440 -0.1230 -0.1624
15891TIP3    H169088   3.237   1.497  12.608 -1.7255  1.4163  0.2057
15891TIP3    H269089   3.326   1.570  12.707 -0.5875  0.1455  0.1552
15892TIP3   OH269090   4.780   0.815   0.892  0.5841 -0.0296  0.2867
15892TIP3    H169091   4.831   0.814   0.973 -0.4413 -1.2433  0.9452
15892TIP3    H269092   4.828   0.757   0.832  1.0024  0.3704  0.2281
15893TIP3   OH269093   1.014   1.863  12.229 -0.5839 -0.0208  0.0214
15893TIP3    H169094   1.033   1.893  12.317  0.5161  0.1516 -0.2680
15893TIP3    H269095   0.948   1.795  12.241  0.7504 -1.1669  1.1298
15894TIP3   OH269096   6.243   2.955   3.319  0.0360 -0.1373 -0.2200
15894TIP3    H169097   6.231   2.960   3.224 -2.4613  0.6488  0.0649
15894TIP3    H269098   6.169   2.903   3.350  0.6429 -0.1299  1.3524
15895TIP3   OH269099   1.123   5.350   5.239 -0.5730  0.5200 -0.0258
15895TIP3    H169100   1.088   5.290   5.173 -1.1910 -0.2443  0.9442
15895TIP3    H269101   1.105   5.437   5.205 -0.8062  0.1364 -0.9013
15896TIP3   OH269102   2.268   2.426  15.913  0.5192  0.0816 -0.2236
15896TIP3    H169103   2.226   2.458  15.833  0.7886 -0.9246 -0.7757
15896TIP3    H269104   2.211   2.357  15.944 -0.2256  1.2603  1.1445
15897TIP3   OH269105   2.598   0.005   0.234  0.2980 -0.0207 -0.2024
15897TIP3    H169106   2.569   0.095   0.246  1.2311  0.1044  1.4440
15897TIP3    H269107   2.560  -0.022   0.151 -0.1621  1.8185 -0.6246
15898TIP3   OH269108   1.944   3.811  12.575 -0.4002  0.2628 -0.2335
15898TIP3    H169109   1.933   3.905  12.588  0.1820  0.1409  1.3473
15898TIP3    H269110   1.857   3.780  12.551 -1.1424  0.9036  1.4547
15899TIP3   OH269111   6.433   0.527  12.918 -0.0632 -0.6553  0.2658
15899TIP3    H169112   6.399   0.438  12.930 -0.1984 -0.8925 -1.5395
15899TIP3    H269113   6.394   0.556  12.835  1.4782  0.3543 -0.1434
15900TIP3   OH269114   5.884   5.679   4.895 -0.0446  0.3897  0.4123
15900TIP3    H169115   5.795   5.684   4.931 -0.6871 -0.6925 -0.9300
15900TIP3    H269116   5.923   5.602   4.935  0.0402  0.4622  0.4699
15901TIP3   OH269117   0.399   2.991   5.078 -0.1151 -0.8939  0.3393
15901TIP3    H169118   0.431   2.951   4.996 -1.1172 -0.9984 -0.0222
15901TIP3    H269119   0.442   3.076   5.082 -0.0770 -0.8741 -0.3255
15902TIP3   OH269120   2.692   1.220   2.209  0.3226 -0.3558  0.3117
15902TIP3    H169121   2.677   1.311   2.183 -0.9127 -0.6288 -0.0008
15902TIP3    H269122   2.771   1.194   2.161 -0.2704  0.0490 -0.9144
15903TIP3   OH269123   3.421   2.308   6.102  0.0775  0.1768 -0.2288
15903TIP3    H169124   3.513   2.288   6.087 -0.1009  1.4850 -4.0715
15903TIP3    H269125   3.375   2.260   6.033 -2.0573  0.3383  0.9983
15904TIP3   OH269126   2.410   3.103  16.454  0.3626 -0.8018  0.0136
15904TIP3    H169127   2.430   3.105  16.360 -0.6661 -1.5105 -0.2360
15904TIP3    H269128   2.476   3.160  16.493  0.9460 -0.6678 -1.1124
15905TIP3   OH269129   1.913   1.113   5.862 -0.1588 -0.0053 -0.5518
15905TIP3    H169130   1.888   1.101   5.954  0.0009 -0.6794 -0.5945
15905TIP3    H269131   1.838   1.159   5.823  0.1309  1.0662  0.1030
15906TIP3   OH269132   3.892   2.951  16.356 -0.3580  0.1286 -0.2682
15906TIP3    H169133   3.942   2.936  16.275 -0.1813  1.4823 -0.4357
15906TIP3    H269134   3.801   2.954  16.327 -0.4242 -0.8702 -0.1848
15907TIP3   OH269135   5.043   5.890  14.314  0.2047 -0.3084  0.5541
15907TIP3    H169136   5.063   5.918  14.224 -0.3017  2.4415  1.1994
15907TIP3    H269137   5.089   5.807  14.324 -1.3192 -1.7616 -2.8681
15908TIP3   OH269138   0.631   4.614   6.166 -0.1511  0.7181 -0.0740
15908TIP3    H169139   0.585   4.696   6.180  0.2212  1.1052 -1.0418
15908TIP3    H269140   0.647   4.611   6.072  0.0142 -0.3720 -0.0316
15909TIP3   OH269141   3.609   1.936  11.136 -0.3804  1.0970 -0.3141
15909TIP3    H169142   3.673   1.988  11.186  0.3557  0.6124 -0.7359
15909TIP3    H269143   3.647   1.849  11.132 -0.5042  1.0855 -1.5778
15910TIP3   OH269144   3.796   2.619  15.942 -0.1160  0.4523 -0.3541
15910TIP3    H169145   3.778   2.692  16.001  0.0202 -0.5119  0.9281
15910TIP3    H269146   3.829   2.660  15.862 -4.6444  2.1379 -1.6477
15911TIP3   OH269147   1.068   5.897  11.724  0.1772  0.2335  0.1694
15911TIP3    H169148   1.017   5.951  11.664  0.4941  1.2953  0.8165
15911TIP3    H269149   1.009   5.882  11.798  0.5723  0.9383  0.6401
15912TIP3   OH269150   0.533   4.923   1.692 -0.5695  0.1970  0.1919
15912TIP3    H169151   0.611   4.960   1.649  0.7773 -2.2445  0.3867
15912TIP3    H269152   0.462   4.938   1.629  0.4325  0.8102 -0.8236
15913TIP3   OH269153   4.592   3.425  17.304  0.1420  0.0158 -0.4668
15913TIP3    H169154   4.596   3.346  17.357  1.5743  0.0794 -0.4307
15913TIP3    H269155   4.510   3.418  17.255 -1.2613 -0.0422  1.7210
15914TIP3   OH269156   1.214   1.932  17.030  0.0299 -0.1266 -0.2674
15914TIP3    H169157   1.265   1.966  16.956  1.8828 -1.8928  0.1047
15914TIP3    H269158   1.178   1.849  16.997 -2.6063  0.9668 -0.4580
15915TIP3   OH269159   3.051   5.172   4.523 -0.3267  0.2773  0.5562
15915TIP3    H169160   2.987   5.124   4.575 -0.9749  1.0570  0.5016
15915TIP3    H269161   3.136   5.140   4.554 -0.7221 -0.1250  1.2569
15916TIP3   OH269162   5.212   0.999   4.472  0.5334  0.3913  0.5205
15916TIP3    H169163   5.300   0.961   4.465  0.6300  0.5702  0.7658
15916TIP3    H269164   5.220   1.066   4.540  0.2086  0.4122  0.5388
15917TIP3   OH269165   2.772   0.331   2.521  0.4128  0.0196  0.1710
15917TIP3    H169166   2.858   0.291   2.507  1.2028  1.9149 -0.8575
15917TIP3    H269167   2.788   0.398   2.588 -0.4357 -0.0749  0.4767
15918TIP3   OH269168   2.235   6.082   0.879  0.1902  0.0861 -0.5596
15918TIP3    H169169   2.240   6.172   0.912 -0.6478 -0.7876  2.2108
15918TIP3    H269170   2.148   6.075   0.841 -0.1681  0.1690  0.2222
15919TIP3   OH269171   3.027   1.584   3.769  0.1808  0.1424  0.2986
15919TIP3    H169172   3.051   1.648   3.836  0.1017  0.5033 -0.0139
15919TIP3    H269173   2.931   1.580   3.773  0.1069  0.8593 -0.4152
15920TIP3   OH269174   6.573   6.000   3.663  0.0473 -0.3050  0.0097
15920TIP3    H169175   6.509   5.968   3.726 -2.1256 -1.6734 -2.7472
15920TIP3    H269176   6.632   5.926   3.649 -0.9716 -0.9016 -1.3446
15921TIP3   OH269177   4.308   1.255   0.501 -0.0121 -0.3878 -0.5916
15921TIP3    H169178   4.331   1.215   0.585  0.6474  0.9201 -0.1125
15921TIP3    H269179   4.337   1.346   0.510 -0.4146 -0.0965 -2.0515
15922TIP3   OH269180   2.363   4.313  12.538 -0.1791 -0.0992 -0.3758
15922TIP3    H169181   2.282   4.335  12.584 -0.7255 -0.4305 -1.1612
15922TIP3    H269182   2.373   4.382  12.472  1.9508  1.8694  1.7926
15923TIP3   OH269183   6.098   1.595   0.896  0.2720  0.2309 -0.3831
15923TIP3    H169184   6.127   1.652   0.968 -2.5978  2.0116 -0.4605
15923TIP3    H269185   6.079   1.511   0.938  1.6096  0.2365  0.3127
15924TIP3   OH269186   6.155   2.284  15.714  0.3555  0.2704  0.3523
15924TIP3    H169187   6.203   2.233  15.779  1.2480  2.7002  1.7537
15924TIP3    H269188   6.078   2.316  15.761 -0.7212 -0.5590 -0.7838
15925TIP3   OH269189   1.777   5.982   3.828  0.1447 -0.0845 -0.2955
15925TIP3    H169190   1.868   5.962   3.808  0.2852  1.0164 -0.8064
15925TIP3    H269191   1.763   6.070   3.794 -0.9764 -0.0447  0.2084
15926TIP3   OH269192   6.517   0.714  15.509  0.2283 -0.1002  0.3779
15926TIP3    H169193   6.431   0.679  15.489  0.0344  1.1012 -1.0665
15926TIP3    H269194   6.536   0.684  15.598 -1.9632  0.1643  0.9786
15927TIP3   OH269195   1.168   5.176   3.766  0.2110  0.4353 -0.5061
15927TIP3    H169196   1.187   5.258   3.720  0.2698  0.8821  0.3002
15927TIP3    H269197   1.227   5.112   3.726  1.9874  1.3389  0.5477
15928TIP3   OH269198   3.804   2.244   0.341  0.2737  0.5560 -0.0490
15928TIP3    H169199   3.774   2.232   0.431 -0.7171  1.1109 -0.2776
15928TIP3    H269200   3.860   2.169   0.324 -1.0244 -0.5689  0.4212
15929TIP3   OH269201   4.698   6.157  11.433 -0.3622  0.1505  0.5272
15929TIP3    H169202   4.745   6.093  11.487  2.0461  1.5013  0.1458
15929TIP3    H269203   4.702   6.120  11.345 -0.1469  0.2150  0.5112
15930TIP3   OH269204   4.971   1.398  13.530 -0.6718 -0.1270 -0.5157
15930TIP3    H169205   4.905   1.336  13.498  0.1712 -1.3037 -0.0743
15930TIP3    H269206   5.051   1.346  13.537 -0.2960  0.6211  1.3616
15931TIP3   OH269207   2.193   3.007  14.300  0.5569 -0.0648 -0.0254
15931TIP3    H169208   2.252   3.078  14.275  0.4899  0.2995  0.8258
15931TIP3    H269209   2.183   2.955  14.220  0.6901  0.8233 -0.6376
15932TIP3   OH269210   4.135   4.837  11.965 -0.9264 -0.1569  0.4739
15932TIP3    H169211   4.188   4.776  11.913 -0.3010  1.5355 -0.9919
15932TIP3    H269212   4.058   4.787  11.990  0.2915 -2.0146  0.7167
15933TIP3   OH269213   1.332   5.988  16.178  0.0427  0.8300 -0.0559
15933TIP3    H169214   1.299   5.932  16.108  0.6948  0.5086 -0.1136
15933TIP3    H269215   1.260   5.994  16.241 -0.0189 -0.1204 -0.0227
15934TIP3   OH269216   0.535   1.266  17.142  0.2439 -0.0293  0.0815
15934TIP3    H169217   0.538   1.361  17.156 -1.5375  0.1477 -0.4475
15934TIP3    H269218   0.525   1.257  17.047  1.1736 -0.8017  0.0373
15935TIP3   OH269219   1.811   4.331   3.575 -0.3719  0.0080 -0.0320
15935TIP3    H169220   1.793   4.240   3.550  0.2327 -0.1495  0.0958
15935TIP3    H269221   1.730   4.377   3.554 -0.5113 -0.4638 -0.5837
15936TIP3   OH269222   0.839   4.323  16.910 -0.2959 -0.8325  0.2704
15936TIP3    H169223   0.907   4.348  16.973  1.2080 -1.2939 -1.0803
15936TIP3    H269224   0.826   4.229  16.925 -2.1007 -0.3843  1.8175
15937TIP3   OH269225   5.325   6.430  11.352 -0.7395  0.2200  0.1225
15937TIP3    H169226   5.345   6.356  11.410  1.2360  0.4226 -0.2641
15937TIP3    H269227   5.302   6.389  11.268 -0.1127  0.0323  0.0420
15938TIP3   OH269228   2.053   0.643  14.198  0.7217  0.4672  0.2525
15938TIP3    H169229   1.994   0.716  14.220 -0.6466 -0.4065 -0.3870
15938TIP3    H269230   2.128   0.654  14.256  1.1301  3.0832 -0.6327
15939TIP3   OH269231   0.053   3.593   0.812 -0.4837 -0.0152 -0.8211
15939TIP3    H169232  -0.030   3.562   0.774 -0.4634 -0.9874 -0.0894
15939TIP3    H269233   0.026   3.647   0.887 -0.4736  0.5361 -1.2063
15940TIP3   OH269234   0.830   4.419  14.806  0.2176 -0.1898  0.2962
15940TIP3    H169235   0.849   4.461  14.722  1.1995  0.2718  0.7390
15940TIP3    H269236   0.908   4.365  14.824 -0.8613 -1.9736 -0.1025
15941TIP3   OH269237   0.695   1.687   1.219 -0.3624  0.4482 -0.2117
15941TIP3    H169238   0.610   1.678   1.176  0.1375 -1.5432 -0.9212
15941TIP3    H269239   0.701   1.779   1.241 -1.5312  1.1723 -2.5852
15942TIP3   OH269240   2.872   6.399  12.526  0.4116  0.1750 -0.2500
15942TIP3    H169241   2.907   6.340  12.594 -0.2246 -0.2141 -0.2530
15942TIP3    H269242   2.874   6.486  12.566 -0.1961 -0.0850  0.3662
15943TIP3   OH269243   2.011   3.813   0.715 -0.4248  0.0265 -0.2104
15943TIP3    H169244   1.986   3.728   0.752  2.1163 -0.3707  0.7521
15943TIP3    H269245   2.029   3.868   0.791 -2.5276  1.6681 -0.8076
15944TIP3   OH269246   2.721   4.303   0.009 -0.1809 -0.0127  0.2649
15944TIP3    H169247   2.712   4.370   0.077  1.6129  0.7938 -0.2323
15944TIP3    H269248   2.708   4.220   0.055 -2.4930  0.6090  0.8924
15945TIP3   OH269249   4.252   5.816   6.713 -0.0660 -0.3683 -0.2036
15945TIP3    H169250   4.168   5.860   6.725 -0.7599 -0.1752 -4.1916
15945TIP3    H269251   4.230   5.732   6.674  1.5590 -1.3633  0.8811
15946TIP3   OH269252   0.247   2.482  15.419  0.6273  0.0455  0.0086
15946TIP3    H169253   0.316   2.416  15.423 -0.4459 -1.0863  0.0396
15946TIP3    H269254   0.262   2.537  15.496  0.3342 -1.3628  1.0959
15947TIP3   OH269255   2.390   1.420  16.123  0.1076 -1.0201  0.1784
15947TIP3    H169256   2.371   1.333  16.089 -1.8883 -0.1947 -1.0012
15947TIP3    H269257   2.339   1.426  16.204 -2.1296 -0.0348 -1.1954
15948TIP3   OH269258   3.171   6.698  11.802 -0.7480 -0.1514 -0.1084
15948TIP3    H169259   3.132   6.747  11.730 -0.9302 -0.1477 -0.0072
15948TIP3    H269260   3.190   6.612  11.765  0.5039  0.3039 -0.5775
15949TIP3   OH269261   3.229   5.599  15.407 -0.0379 -0.1922 -0.5229
15949TIP3    H169262   3.303   5.553  15.445  0.1871 -0.2064 -0.9622
15949TIP3    H269263   3.153   5.570  15.458  0.2983  0.0482  0.1146
15950TIP3   OH269264   0.258   1.035  12.865 -0.1864 -0.0179 -0.2935
15950TIP3    H169265   0.210   1.047  12.783 -1.2596 -0.2663  0.2735
15950TIP3    H269266   0.343   1.001  12.838 -0.8860 -1.0967 -1.2537
15951TIP3   OH269267   0.646   5.329   4.893  0.3979  1.0022  0.0055
15951TIP3    H169268   0.729   5.377   4.892  0.6797  0.5051 -0.6855
15951TIP3    H269269   0.642   5.291   4.981  1.2584  0.4258 -0.1921
15952TIP3   OH269270   0.612   3.098   1.147  0.0768 -0.0878 -0.3116
15952TIP3    H169271   0.660   3.139   1.075 -0.7421 -1.5537 -1.7508
15952TIP3    H269272   0.664   3.119   1.225  1.2286  1.1717 -1.3568
15953TIP3   OH269273   1.700   1.253   3.402 -0.1328 -0.1372 -0.1630
15953TIP3    H169274   1.743   1.229   3.483 -0.1387  0.1491 -0.0716
15953TIP3    H269275   1.703   1.349   3.401  0.2483 -0.1451 -0.7022
15954TIP3   OH269276   0.342   1.318   2.191 -0.2475  0.4018 -0.0733
15954TIP3    H169277   0.264   1.269   2.164  0.8704 -1.2518 -0.3875
15954TIP3    H269278   0.340   1.397   2.136 -1.6612  0.3854 -0.0962
15955TIP3   OH269279   6.221   3.016  11.371 -0.0138 -0.2276 -0.6280
15955TIP3    H169280   6.214   2.921  11.366 -0.2385 -0.1932 -0.9820
15955TIP3    H269281   6.201   3.036  11.463 -0.2157 -0.5020 -0.6109
15956TIP3   OH269282   5.148   0.981   3.104 -0.3061  0.6513  0.0764
15956TIP3    H169283   5.205   0.938   3.039 -1.0752 -0.4462  0.0996
15956TIP3    H269284   5.208   1.032   3.158  0.3877  1.3854 -1.3158
15957TIP3   OH269285   2.835   0.874   6.129 -0.6685 -0.5360  0.6814
15957TIP3    H169286   2.796   0.962   6.138 -4.0606 -1.7616 -0.2745
15957TIP3    H269287   2.766   0.815   6.159  1.4192 -2.9471  1.0479
15958TIP3   OH269288   2.675   3.529   0.026  0.2176  0.0518  0.5429
15958TIP3    H169289   2.589   3.565   0.007 -0.5720 -1.5226  0.9505
15958TIP3    H269290   2.665   3.485   0.111  1.1094 -1.0618  0.1085
15959TIP3   OH269291   1.795   4.933   4.888 -0.3193  0.7407  0.1654
15959TIP3    H169292   1.834   5.020   4.899  2.9552 -0.4311 -0.9827
15959TIP3    H269293   1.732   4.944   4.817  0.7388  2.0319 -0.6400
15960TIP3   OH269294   6.609   6.230   2.904  0.5013 -0.1575 -0.4831
15960TIP3    H169295   6.629   6.136   2.895 -0.0423 -0.4740  1.1546
15960TIP3    H269296   6.633   6.268   2.819  0.8746 -1.7482 -1.1367
15961TIP3   OH269297   3.904   0.546  15.081 -0.0390 -0.2203 -0.1575
15961TIP3    H169298   3.908   0.453  15.103 -1.0595 -0.4241 -0.7877
15961TIP3    H269299   3.813   0.571  15.098  0.7156  1.2566  2.2311
15962TIP3   OH269300   5.691   4.709   0.652 -0.4548 -0.0750 -0.4538
15962TIP3    H169301   5.700   4.690   0.559 -2.3118  0.2825 -0.7578
15962TIP3    H269302   5.715   4.802   0.659 -0.1245 -0.1527 -0.5404
15963TIP3   OH269303   1.697   0.126  12.637  0.3740 -0.1787 -0.7556
15963TIP3    H169304   1.775   0.181  12.642  0.9129 -1.0104  0.9069
15963TIP3    H269305   1.627   0.179  12.675  0.1960  0.4122 -1.8631
15964TIP3   OH269306   6.227   1.180  17.126  0.2083 -0.2595 -0.0841
15964TIP3    H169307   6.316   1.216  17.119  0.6064 -1.1660  0.1509
15964TIP3    H269308   6.236   1.104  17.184 -0.4891 -1.1002 -1.0445
15965TIP3   OH269309   4.914   0.545  15.040 -0.2552  0.2164  0.2518
15965TIP3    H169310   4.920   0.453  15.016  0.2680 -0.1075  1.5658
15965TIP3    H269311   4.966   0.590  14.974  1.0176 -0.6307  0.6511
15966TIP3   OH269312   0.990   2.821  14.642 -0.0321  0.0219  0.0257
15966TIP3    H169313   0.905   2.805  14.601  0.3026  1.8844 -1.5742
15966TIP3    H269314   1.044   2.748  14.613 -0.8162 -0.6609  0.2443
15967TIP3   OH269315   2.199   3.480   0.552  0.1370  0.0989  0.1735
15967TIP3    H169316   2.188   3.512   0.462  0.4418  1.6563  0.6477
15967TIP3    H269317   2.287   3.508   0.576 -0.5860  1.3668  1.5476
15968TIP3   OH269318   1.205   6.672   5.194  0.1288  0.3556  0.3350
15968TIP3    H169319   1.197   6.737   5.124 -2.5030  1.2543  1.3664
15968TIP3    H269320   1.252   6.717   5.264 -1.5467  1.1581  0.9850
15969TIP3   OH269321   4.804   6.599  16.920 -0.4722 -0.0782  0.1057
15969TIP3    H169322   4.778   6.569  17.007  1.2076  1.2932  1.1490
15969TIP3    H269323   4.763   6.686  16.912 -0.4634 -0.1171 -0.4152
15970TIP3   OH269324   6.280   1.770   3.780  0.3203  0.0440  0.1649
15970TIP3    H169325   6.374   1.784   3.777  0.2695  0.2091 -1.0770
15970TIP3    H269326   6.269   1.681   3.814  0.8701  0.4534  1.4606
15971TIP3   OH269327   5.828   0.194   3.702  0.3128 -0.1930  0.5770
15971TIP3    H169328   5.764   0.206   3.632  0.2280 -0.8956  0.5209
15971TIP3    H269329   5.795   0.248   3.774 -0.0326 -0.0951  0.3493
15972TIP3   OH269330   1.289   3.321  12.990  0.0980  0.3703 -0.0966
15972TIP3    H169331   1.284   3.228  12.969  1.4003  0.3692 -0.4963
15972TIP3    H269332   1.314   3.363  12.908 -2.6361  1.4023 -0.5416
15973TIP3   OH269333   5.789   3.973  17.103 -0.0716 -0.3589  0.3495
15973TIP3    H169334   5.865   4.031  17.099 -0.4873  0.5169  3.0491
15973TIP3    H269335   5.769   3.966  17.196 -1.9873 -2.3477 -0.1176
15974TIP3   OH269336   1.631   1.086  16.848 -0.1772  0.2303 -0.2054
15974TIP3    H169337   1.719   1.052  16.862 -0.3834  0.6598  2.5616
15974TIP3    H269338   1.578   1.045  16.916 -1.5883  1.8201 -0.2858
15975TIP3   OH269339   5.331   1.557  12.049 -0.1254  0.1409  0.3283
15975TIP3    H169340   5.389   1.623  12.087 -0.8837  0.7140  0.5264
15975TIP3    H269341   5.388   1.502  11.996  0.6669  0.4132  0.8790
15976TIP3   OH269342   6.136   0.170  12.861 -0.4324 -0.8179 -0.2574
15976TIP3    H169343   6.084   0.231  12.807  0.9562  0.7821  0.1264
15976TIP3    H269344   6.225   0.204  12.855 -0.2728 -0.1700  3.5300
15977TIP3   OH269345   4.598   2.523   5.196 -0.2784  0.0958 -0.0069
15977TIP3    H169346   4.634   2.437   5.220 -0.9256 -0.1881 -0.0186
15977TIP3    H269347   4.504   2.516   5.216 -0.4057  0.6748 -0.3659
15978TIP3   OH269348   4.086   0.385   4.351  0.0937 -0.1100  0.9170
15978TIP3    H169349   4.027   0.326   4.397 -1.4776  0.7259  0.0656
15978TIP3    H269350   4.028   0.442   4.300  1.6268  1.0148  0.3502
15979TIP3   OH269351   6.585   0.845  16.034  0.5901 -0.2081  0.1331
15979TIP3    H169352   6.573   0.769  15.976 -1.2318  0.6977 -0.7642
15979TIP3    H269353   6.607   0.806  16.119 -1.7856 -1.8910  0.0905
15980TIP3   OH269354   3.688   2.649  11.983  0.2867  0.1878 -0.2599
15980TIP3    H169355   3.779   2.663  11.955  0.6949 -0.0754  0.8781
15980TIP3    H269356   3.693   2.579  12.048 -0.5687  0.9276  0.6462
15981TIP3   OH269357   5.317   2.897  12.028 -0.1367  0.0302  0.3827
15981TIP3    H169358   5.302   2.990  12.046 -1.3216 -0.1320  0.3031
15981TIP3    H269359   5.383   2.896  11.959 -0.8843  0.8516 -0.3693
15982TIP3   OH269360   2.202   6.186  12.186 -0.0809  0.0005 -0.2261
15982TIP3    H169361   2.167   6.141  12.262 -0.0678 -1.2218 -0.9139
15982TIP3    H269362   2.292   6.153  12.178 -0.2152 -0.1917 -0.9990
15983TIP3   OH269363   5.419   0.621   0.156  0.2291  0.2649 -0.0634
15983TIP3    H169364   5.361   0.684   0.114 -0.6881 -0.8724 -0.5672
15983TIP3    H269365   5.457   0.669   0.230 -0.1112  1.5149 -0.6696
15984TIP3   OH269366   2.232   1.971  15.329  0.7780 -0.2375 -0.2973
15984TIP3    H169367   2.201   1.904  15.389  1.4905 -3.3864 -3.0894
15984TIP3    H269368   2.317   1.938  15.299  2.1755  3.0232 -0.3347
15985TIP3   OH269369   4.608   1.429   4.782 -0.9941  0.0044  0.1508
15985TIP3    H169370   4.681   1.384   4.824 -0.9883  0.4444  0.6281
15985TIP3    H269371   4.599   1.511   4.832  1.1299  2.1423 -2.6286
15986TIP3   OH269372   2.003   0.827  11.022  0.3254  0.3199 -0.1543
15986TIP3    H169373   2.026   0.809  11.113 -1.0415  0.3094  0.2152
15986TIP3    H269374   2.044   0.756  10.972  1.0901  0.3281  0.4434
15987TIP3   OH269375   6.382   0.725  12.428  0.5436 -0.0134 -0.1710
15987TIP3    H169376   6.451   0.720  12.493  0.6876  0.1902 -0.3073
15987TIP3    H269377   6.314   0.666  12.460  0.5961  0.1182  0.1833
15988TIP3   OH269378   3.734   4.874  14.218 -0.3361  0.3985 -0.3454
15988TIP3    H169379   3.655   4.890  14.270 -0.5529  1.7404 -1.0388
15988TIP3    H269380   3.740   4.950  14.160 -0.0571 -0.9860 -2.2311
15989TIP3   OH269381   5.246   1.878  16.234  0.4687  0.0007  0.2607
15989TIP3    H169382   5.182   1.822  16.278 -2.8140  2.3349 -1.0746
15989TIP3    H269383   5.296   1.819  16.178  0.6407 -2.1766  2.5346
15990TIP3   OH269384   3.197   3.319   5.375 -0.2993 -0.2818 -0.1994
15990TIP3    H169385   3.110   3.291   5.348  0.1138 -1.4050 -0.4012
15990TIP3    H269386   3.183   3.405   5.415 -1.3449  0.0307 -1.1937
15991TIP3   OH269387   6.135   0.175  16.399 -0.0792 -0.5713 -0.1214
15991TIP3    H169388   6.066   0.127  16.445  0.1682 -0.2398  0.6097
15991TIP3    H269389   6.096   0.197  16.315 -1.2205  0.4253  0.6331
15992TIP3   OH269390   3.810   6.006  13.451  0.3314  0.3079  0.5744
15992TIP3    H169391   3.905   6.013  13.446  0.2315  1.3299 -0.3969
15992TIP3    H269392   3.788   6.038  13.539  0.7920  1.4288  0.2946
15993TIP3   OH269393   5.966   4.427   5.326 -0.6667  0.1852 -0.0188
15993TIP3    H169394   5.889   4.380   5.294 -0.2674  0.1954 -1.0391
15993TIP3    H269395   6.040   4.384   5.282 -0.0584 -0.0062  1.1582
15994TIP3   OH269396   1.958   2.641  14.775  0.2776  0.6638 -0.1489
15994TIP3    H169397   1.894   2.684  14.719  0.8914  2.2386  0.3010
15994TIP3    H269398   2.025   2.708  14.791  1.5280 -0.6108  0.2077
15995TIP3   OH269399   1.420   3.953   6.022 -0.4413  0.4047  0.1391
15995TIP3    H169400   1.421   4.038   6.064 -4.2488  0.4206  0.5530
15995TIP3    H269401   1.386   3.970   5.934  0.8402 -0.4624 -0.5523
15996TIP3   OH269402   5.365   4.255   1.676  0.1933  0.1766 -0.4167
15996TIP3    H169403   5.412   4.188   1.727  1.7527  0.8731 -0.8684
15996TIP3    H269404   5.338   4.210   1.596  0.9669 -0.0108 -0.5829
15997TIP3   OH269405   2.831   3.946   0.083 -0.2243  0.0312 -0.4753
15997TIP3    H169406   2.852   3.853   0.086  0.9870  0.2938 -0.0542
15997TIP3    H269407   2.908   3.989   0.121 -1.3381  1.1231  0.6396
15998TIP3   OH269408   1.621   0.436  16.270 -0.4095 -0.3764  0.0449
15998TIP3    H169409   1.527   0.420  16.260 -0.7326  1.1365  0.3317
15998TIP3    H269410   1.656   0.354  16.304 -1.9018 -0.4759  1.5041
15999TIP3   OH269411   0.814   5.139  12.871 -0.1007  0.1706 -0.0822
15999TIP3    H169412   0.900   5.165  12.904 -0.2656  0.5595  0.0446
15999TIP3    H269413   0.770   5.099  12.946 -0.1249  0.2056 -0.0776
16000TIP3   OH269414   1.078   2.280   1.589 -0.1172 -0.2449 -0.1439
16000TIP3    H169415   1.122   2.274   1.505 -0.8115  0.1766 -0.5499
16000TIP3    H269416   0.998   2.331   1.571  0.3209  0.9080  0.9951
16001TIP3   OH269417   0.491   1.113  15.284 -0.2716 -0.0308 -0.0196
16001TIP3    H169418   0.486   1.024  15.248 -1.8721 -0.1997  0.5471
16001TIP3    H269419   0.458   1.169  15.213 -1.1103 -0.1030  0.3096
16002TIP3   OH269420   2.455   5.186   6.208 -0.6698  0.2685  0.7591
16002TIP3    H169421   2.421   5.133   6.280 -3.9690  0.6911 -0.3337
16002TIP3    H269422   2.419   5.273   6.222 -1.3948  0.3748 -1.3214
16003TIP3   OH269423   3.536   2.613   0.869 -0.2271 -0.3303 -0.3960
16003TIP3    H169424   3.604   2.613   0.803 -0.9329 -0.8683 -1.1381
16003TIP3    H269425   3.462   2.568   0.828 -0.8353 -0.2642  0.5887
16004TIP3   OH269426   4.631   3.613   4.808  0.1195 -0.0311  0.1723
16004TIP3    H169427   4.543   3.651   4.806 -0.4511 -1.0558  2.6326
16004TIP3    H269428   4.676   3.659   4.879  0.1983 -2.1622  1.6106
16005TIP3   OH269429   5.109   1.079  11.554 -0.1808 -0.8147 -0.7080
16005TIP3    H169430   5.077   0.991  11.576 -0.4533 -0.9421 -1.5808
16005TIP3    H269431   5.031   1.133  11.547  0.0289 -0.3301  0.5013
16006TIP3   OH269432   2.837   5.149   0.091 -0.0067  0.2200 -0.1476
16006TIP3    H169433   2.843   5.239   0.059 -0.2483  0.6883  1.0504
16006TIP3    H269434   2.816   5.159   0.184 -0.1866 -1.0822 -0.0374
16007TIP3   OH269435   0.344   0.772  15.682  0.9318 -0.3096 -0.2419
16007TIP3    H169436   0.413   0.830  15.650 -1.7719  3.3183 -0.1595
16007TIP3    H269437   0.325   0.714  15.608  2.6004  0.0612 -0.9923
16008TIP3   OH269438   3.245   0.006  14.144  0.0222 -0.2429 -0.2693
16008TIP3    H169439   3.226  -0.086  14.162 -0.5244 -0.0076  0.3975
16008TIP3    H269440   3.267   0.008  14.051 -0.2010 -1.0120 -0.3444
16009TIP3   OH269441   4.141   3.386  14.640 -0.2226 -0.2135 -0.6661
16009TIP3    H169442   4.186   3.339  14.569 -1.5706 -1.3981 -0.7958
16009TIP3    H269443   4.152   3.478  14.618  1.4221 -0.4821 -1.1154
16010TIP3   OH269444   4.698   1.456   3.269  0.1914  0.0974  0.2768
16010TIP3    H169445   4.769   1.402   3.234 -0.7328 -0.5477 -0.7173
16010TIP3    H269446   4.672   1.412   3.350  0.8434  0.2789  0.5904
16011TIP3   OH269447   3.060   2.229  16.789 -0.3524 -0.0694  0.5305
16011TIP3    H169448   2.990   2.172  16.820  0.0983 -0.5772  0.6289
16011TIP3    H269449   3.019   2.285  16.723 -1.0481  0.2274  1.2008
16012TIP3   OH269450   3.844   4.083  15.206 -0.0072 -0.4989 -0.0419
16012TIP3    H169451   3.906   4.095  15.278 -0.0723  0.6236 -0.1487
16012TIP3    H269452   3.758   4.085  15.247 -0.0569  0.4633 -0.1768
16013TIP3   OH269453   5.436   0.937   3.442  0.4381 -0.0496  0.1178
16013TIP3    H169454   5.389   0.925   3.524  0.4593  0.1999  0.1670
16013TIP3    H269455   5.474   0.851   3.424 -1.8833 -0.8880 -1.0964
16014TIP3   OH269456   4.466   5.582   4.326 -0.2877 -0.2747 -0.4147
16014TIP3    H169457   4.389   5.530   4.347 -0.4056  0.1398  0.2145
16014TIP3    H269458   4.480   5.568   4.233 -0.8881 -0.6639 -0.4510
16015TIP3   OH269459   5.958   3.062   5.432 -0.0810  0.5468 -0.0161
16015TIP3    H169460   6.013   3.110   5.371  0.2710  1.2014  0.7909
16015TIP3    H269461   5.880   3.039   5.381  0.4064  0.6589 -0.8321
16016TIP3   OH269462   1.414   2.505  12.104  0.0005  0.5645  0.2129
16016TIP3    H169463   1.444   2.520  12.194 -0.1155 -1.3329  0.6035
16016TIP3    H269464   1.483   2.452  12.064  1.1502  3.1750 -1.6031
16017TIP3   OH269465   2.033   2.035   0.397  0.9875 -0.0727 -0.0294
16017TIP3    H169466   2.109   2.094   0.398  1.5549 -0.7302 -1.5314
16017TIP3    H269467   2.026   2.006   0.306 -0.1539 -1.2045  0.3850
16018TIP3   OH269468   4.633   4.853  13.478  0.2097 -0.1856 -0.6188
16018TIP3    H169469   4.697   4.923  13.490  0.4146 -0.1076 -1.9842
16018TIP3    H269470   4.623   4.846  13.383  0.6836 -2.4340 -0.5683
16019TIP3   OH269471   6.630   3.686   2.255 -0.1840 -0.0074  0.2980
16019TIP3    H169472   6.642   3.622   2.324 -1.1290 -0.2683  0.2345
16019TIP3    H269473   6.702   3.748   2.266 -0.6527  0.2940  1.8947
16020TIP3   OH269474   4.529   5.471  12.461  0.2411  0.1725  0.1930
16020TIP3    H169475   4.587   5.544  12.483 -0.1966  0.9119 -1.0332
16020TIP3    H269476   4.588   5.401  12.432  0.5602  0.6617 -0.3381
16021TIP3   OH269477   2.907   2.649   0.431 -0.2409  0.2469 -0.0480
16021TIP3    H169478   2.981   2.705   0.408  1.3254 -2.0230 -0.7670
16021TIP3    H269479   2.831   2.708   0.426  1.1701  2.0765 -1.7154
16022TIP3   OH269480   4.391   0.913   5.381  0.0360 -0.0760 -0.6832
16022TIP3    H169481   4.425   0.823   5.380 -0.3348 -0.2586  0.5754
16022TIP3    H269482   4.302   0.905   5.345 -0.0573 -0.2473 -0.4199
16023TIP3   OH269483   0.225   5.456  11.881  0.3118  0.0367  0.7033
16023TIP3    H169484   0.268   5.377  11.848 -0.3838 -0.1445  0.1918
16023TIP3    H269485   0.141   5.425  11.915  0.3433  0.4588  1.1737
16024TIP3   OH269486   0.352   3.658   5.060 -0.4510 -0.3191  0.0944
16024TIP3    H169487   0.280   3.639   5.120  0.1340 -2.6154  0.1812
16024TIP3    H269488   0.332   3.745   5.026 -2.4729 -0.2634  1.2155
16025TIP3   OH269489   5.145   1.561  12.257 -0.3775  0.4305 -0.3081
16025TIP3    H169490   5.201   1.501  12.308  0.8361  0.7895 -1.1596
16025TIP3    H269491   5.195   1.576  12.177 -1.6717  0.8796 -1.0402
16026TIP3   OH269492   5.234   5.759  11.081 -0.4201 -0.2178 -0.1360
16026TIP3    H169493   5.276   5.844  11.091 -0.0283 -0.5769  1.7737
16026TIP3    H269494   5.149   5.768  11.123 -1.3867 -0.1462 -1.9982
16027TIP3   OH269495   5.386   3.339  16.919  0.2913 -0.1081 -0.0658
16027TIP3    H169496   5.394   3.302  16.831  3.8846 -1.5192  0.6722
16027TIP3    H269497   5.292   3.338  16.937 -0.5877  0.1543 -3.7867
16028TIP3   OH269498   6.349   6.239  16.495  0.1004 -0.1699  0.3170
16028TIP3    H169499   6.409   6.230  16.569 -1.1667  1.9641  1.7288
16028TIP3    H269500   6.367   6.327  16.461 -1.0845 -0.1370 -0.2759
16029TIP3   OH269501   5.984   0.185  14.410 -0.2743  0.0712 -0.1713
16029TIP3    H169502   6.006   0.116  14.472 -1.4108 -1.4591 -1.3820
16029TIP3    H269503   5.969   0.263  14.464  2.7911 -0.0999  1.0850
16030TIP3   OH269504   2.648   0.132   4.933  0.5670  0.3504 -0.3073
16030TIP3    H169505   2.652   0.056   4.875 -1.5241 -0.5115  0.5779
16030TIP3    H269506   2.686   0.101   5.015 -0.3528  0.1991  0.0765
16031TIP3   OH269507   4.144   5.570  11.658  0.0275 -0.2187 -0.1175
16031TIP3    H169508   4.190   5.648  11.625  0.6567 -0.1658  0.8383
16031TIP3    H269509   4.159   5.573  11.753  0.6694 -1.8941 -0.1407
16032TIP3   OH269510   3.526   1.944  12.715  0.2246 -0.3636 -0.9258
16032TIP3    H169511   3.515   2.007  12.786 -2.4199  0.2311 -1.7314
16032TIP3    H269512   3.574   1.992  12.647 -1.5040  0.7846 -1.4128
16033TIP3   OH269513   6.290   1.380  12.596 -0.1888  0.3150 -0.8285
16033TIP3    H169514   6.291   1.350  12.687 -0.8612  1.7614 -0.3162
16033TIP3    H269515   6.260   1.470  12.601 -0.8347  0.2312 -2.5615
16034TIP3   OH269516   5.855   2.531  16.884  0.0125 -0.6988  0.1697
16034TIP3    H169517   5.770   2.496  16.911 -0.4301 -0.7425 -1.1783
16034TIP3    H269518   5.855   2.521  16.789  1.2296 -0.0162  0.0828
16035TIP3   OH269519   4.555   4.102  10.700  0.3868 -0.6092  0.3285
16035TIP3    H169520   4.465   4.103  10.668  0.2949 -0.6809  0.5855
16035TIP3    H269521   4.590   4.018  10.669 -0.0836 -1.2347  1.4670
16036TIP3   OH269522   2.611   2.084  12.460  0.0258  0.4465 -0.1480
16036TIP3    H169523   2.591   1.991  12.464 -0.2777  0.5660  2.9126
16036TIP3    H269524   2.528   2.125  12.434  0.0907 -0.0595 -1.2269
16037TIP3   OH269525   3.977   0.297  13.128  0.2160  0.3259  0.0890
16037TIP3    H169526   3.921   0.313  13.052 -0.3659 -1.7884  0.0109
16037TIP3    H269527   3.959   0.371  13.187 -1.0043  0.8326 -0.8578
16038TIP3   OH269528   3.216   6.123   3.491 -0.3932  0.0318 -0.6476
16038TIP3    H169529   3.194   6.194   3.553 -0.0616  0.8076 -1.3965
16038TIP3    H269530   3.250   6.169   3.414  0.7921 -1.0000 -0.7570
16039TIP3   OH269531   2.635   3.017   4.102 -0.1875  0.2431  0.0831
16039TIP3    H169532   2.677   3.056   4.025 -1.7095 -0.8293 -1.3674
16039TIP3    H269533   2.641   3.085   4.170  1.3100  1.1715 -0.9258
16040TIP3   OH269534   1.568   6.692  11.897  0.5220 -0.0527 -0.8264
16040TIP3    H169535   1.609   6.635  11.832  1.0428  1.3216 -1.7586
16040TIP3    H269536   1.619   6.773  11.893  0.8592 -0.0503  1.6250
16041TIP3   OH269537   1.743   5.123   2.875  0.3951 -0.2867 -0.2074
16041TIP3    H169538   1.818   5.097   2.822 -0.3581  0.2181 -1.5575
16041TIP3    H269539   1.667   5.091   2.827 -0.3385  0.6589  0.2867
16042TIP3   OH269540   5.903   0.056  11.988 -0.2209  0.1607  0.3633
16042TIP3    H169541   5.963   0.107  12.043 -2.2375  1.3983  1.5550
16042TIP3    H269542   5.838   0.023  12.049 -0.7555 -1.1761 -0.8805
16043TIP3   OH269543   3.777   1.239   6.017 -0.1194 -0.0365 -0.1442
16043TIP3    H169544   3.861   1.193   6.021  0.4225  1.0210  1.9987
16043TIP3    H269545   3.726   1.202   6.089 -1.1474 -0.0040 -0.8382
16044TIP3   OH269546   4.359   4.242  12.242  0.3432  0.3624  0.0082
16044TIP3    H169547   4.442   4.236  12.289  0.6912  0.3418 -0.5975
16044TIP3    H269548   4.376   4.199  12.157 -0.3071  0.2837 -0.0884
16045TIP3   OH269549   2.298   1.894  11.661 -0.2938  0.2130 -0.0666
16045TIP3    H169550   2.367   1.875  11.597  1.1735  0.8153  1.2740
16045TIP3    H269551   2.307   1.988  11.678  1.0586 -0.3604  2.8605
16046TIP3   OH269552   5.248   5.683  15.246  0.1005  0.2181 -0.6079
16046TIP3    H169553   5.271   5.732  15.325  0.0643 -0.2990 -0.2717
16046TIP3    H269554   5.199   5.745  15.192  0.4867  0.7009 -0.4120
16047TIP3   OH269555   5.470   6.651   0.811 -0.1811  0.2244 -0.2071
16047TIP3    H169556   5.446   6.570   0.766  0.7655 -0.7558  0.9764
16047TIP3    H269557   5.533   6.694   0.753 -1.2404  0.4930 -1.1772
16048TIP3   OH269558   6.588   1.226   0.291  0.3613  0.1537 -0.0782
16048TIP3    H169559   6.600   1.299   0.230  1.2051  1.1872  1.2720
16048TIP3    H269560   6.640   1.251   0.368 -1.8947 -0.3509  1.6955
16049TIP3   OH269561   2.715   1.807   4.483  0.2959 -0.0462 -0.2976
16049TIP3    H169562   2.621   1.805   4.497  0.1874  0.4921 -0.8799
16049TIP3    H269563   2.750   1.856   4.557  0.0362  0.3879 -0.4597
16050TIP3   OH269564   5.670   4.141   0.575 -0.1630  0.4864 -0.1565
16050TIP3    H169565   5.690   4.110   0.663  0.1989 -0.9308 -0.7068
16050TIP3    H269566   5.732   4.212   0.559  0.9191 -0.3579  0.1317
16051TIP3   OH269567   6.126   6.283   5.355  0.4383 -0.8013  0.5219
16051TIP3    H169568   6.213   6.308   5.386 -0.5106  1.3967  1.6913
16051TIP3    H269569   6.092   6.227   5.425  0.7515 -1.3331  0.2532
16052TIP3   OH269570   1.759   5.480   3.698 -0.1180 -0.4008  0.2353
16052TIP3    H169571   1.787   5.461   3.787  3.0759  1.2716 -0.2859
16052TIP3    H269572   1.829   5.447   3.643 -1.7675 -0.9185 -1.6965
16053TIP3   OH269573   6.245   1.912  15.155  0.0836 -0.6435 -0.4187
16053TIP3    H169574   6.327   1.932  15.199  1.0539 -0.2142 -2.3454
16053TIP3    H269575   6.270   1.885  15.067 -1.8790  0.0677 -1.2496
16054TIP3   OH269576   1.511   4.628  12.557 -0.3564 -0.2162 -0.2533
16054TIP3    H169577   1.462   4.704  12.526 -2.3804 -0.9161  1.0115
16054TIP3    H269578   1.456   4.553  12.533 -0.2425 -0.9996  1.7515
16055TIP3   OH269579   1.625   2.284  14.614 -0.0728 -0.1098 -0.2663
16055TIP3    H169580   1.693   2.265  14.679  2.1826 -0.0793 -2.4736
16055TIP3    H269581   1.651   2.368  14.576 -2.6156  1.0202  0.2574
16056TIP3   OH269582   3.475   0.277   2.632 -0.2242 -0.2368  0.1202
16056TIP3    H169583   3.449   0.197   2.677  0.6776 -0.5950  0.0235
16056TIP3    H269584   3.395   0.330   2.628 -0.3422 -0.1600  2.1755
16057TIP3   OH269585   5.398   2.195   1.179 -0.4660 -0.0594 -0.0329
16057TIP3    H169586   5.403   2.262   1.111  0.0174  0.6513  0.6852
16057TIP3    H269587   5.380   2.114   1.132  0.8891  0.2400 -1.1021
16058TIP3   OH269588   3.324   3.046  15.047  0.9113  0.5330 -0.7965
16058TIP3    H169589   3.382   3.087  14.983  1.6601 -1.2054 -1.2938
16058TIP3    H269590   3.308   2.958  15.012  1.7192 -0.6561  1.6063
16059TIP3   OH269591   6.022   5.640   6.237 -0.2570  0.5760  0.8453
16059TIP3    H169592   5.998   5.690   6.315 -0.4208  0.2879  0.9829
16059TIP3    H269593   5.990   5.552   6.255 -0.2552  0.4978  0.4698
16060TIP3   OH269594   0.639   5.450   2.353 -0.3287 -0.1896 -0.1151
16060TIP3    H169595   0.598   5.502   2.422  0.6595 -1.5786  1.6277
16060TIP3    H269596   0.598   5.364   2.360  1.8552 -1.2424  0.8368
16061TIP3   OH269597   5.381   2.213   4.849  0.7175  0.5324 -0.2332
16061TIP3    H169598   5.304   2.171   4.810 -0.7453  2.1640  0.7468
16061TIP3    H269599   5.397   2.290   4.794  0.7197  1.0160  0.4328
16062TIP3   OH269600   2.158   1.309   1.675 -0.0786 -0.1585 -0.2876
16062TIP3    H169601   2.066   1.287   1.689 -0.7034  0.9600 -2.2603
16062TIP3    H269602   2.169   1.311   1.580  1.0598  3.0612 -0.2255
16063TIP3   OH269603   4.086   6.343   0.608  0.8165  0.0528  0.3682
16063TIP3    H169604   4.048   6.343   0.520  2.8647  1.8924 -0.5945
16063TIP3    H269605   4.060   6.259   0.645 -2.5783  0.4109 -0.8455
16064TIP3   OH269606   5.449   6.253   0.974 -0.3957  0.0715 -0.4236
16064TIP3    H169607   5.539   6.242   0.943  0.7450  2.1021  1.8038
16064TIP3    H269608   5.419   6.165   0.996  1.6543 -0.4904  0.2796
16065TIP3   OH269609   3.174   0.758   1.326 -0.7105  0.1534 -0.0748
16065TIP3    H169610   3.206   0.695   1.390 -0.9582  0.8168  0.7149
16065TIP3    H269611   3.093   0.792   1.364 -0.9544  0.4341 -0.8183
16066TIP3   OH269612   3.043   2.634   2.665  0.4812 -0.2859  0.7477
16066TIP3    H169613   3.097   2.676   2.732  0.8225  1.6373 -0.6402
16066TIP3    H269614   3.066   2.679   2.584 -3.1256  0.6117  0.0464
16067TIP3   OH269615   3.490   6.598   4.303 -0.6615 -0.1794  0.2046
16067TIP3    H169616   3.508   6.688   4.328  2.9487 -1.2810  2.4210
16067TIP3    H269617   3.433   6.564   4.373  1.0308 -0.5089  1.4907
16068TIP3   OH269618   5.413   1.611  14.045 -0.0558  0.4867 -0.3278
16068TIP3    H169619   5.368   1.565  14.116 -1.5987 -0.3653 -1.7736
16068TIP3    H269620   5.350   1.675  14.015  2.0311  3.7085  1.6059
16069TIP3   OH269621   6.038   4.337  16.339  0.0328  0.4366  0.0605
16069TIP3    H169622   6.129   4.361  16.356 -0.0137  1.4793 -1.0444
16069TIP3    H269623   6.015   4.385  16.260 -0.8485 -1.3953 -0.8732
16070TIP3   OH269624   5.184   3.641  15.956 -0.3468  0.0187  0.2847
16070TIP3    H169625   5.099   3.650  15.998  0.1009  0.1356  1.2056
16070TIP3    H269626   5.238   3.595  16.021  0.8623  1.7353  0.5982
16071TIP3   OH269627   5.828   3.765  12.026  0.0838 -0.3168  0.0394
16071TIP3    H169628   5.796   3.689  11.978 -0.0794  0.4024 -1.0492
16071TIP3    H269629   5.769   3.774  12.101  1.2727 -2.3827  1.3198
16072TIP3   OH269630   5.871   3.068   1.218 -0.2265 -0.3221 -0.0498
16072TIP3    H169631   5.881   2.978   1.185  0.1512  0.6760 -2.9026
16072TIP3    H269632   5.942   3.078   1.281 -0.0565 -1.9190  0.0562
16073TIP3   OH269633   4.193   1.651  15.169 -0.2279  0.1658 -0.2809
16073TIP3    H169634   4.281   1.623  15.146 -0.7291 -0.8472 -1.0026
16073TIP3    H269635   4.149   1.572  15.199 -1.6695  0.1189 -2.3463
16074TIP3   OH269636   2.769   0.911   2.928 -0.3535 -0.2872  0.4228
16074TIP3    H169637   2.820   0.830   2.940 -0.6788 -0.5600 -0.0045
16074TIP3    H269638   2.719   0.920   3.009 -1.9592 -1.6971 -0.3413
16075TIP3   OH269639   0.075   0.875  14.498  0.3174 -0.0995  0.0329
16075TIP3    H169640   0.150   0.823  14.467 -0.5549 -0.9192 -0.7605
16075TIP3    H269641   0.037   0.823  14.569 -0.7285 -0.7332 -0.9527
16076TIP3   OH269642   4.464   3.546   0.439  0.0689 -0.6668 -0.0393
16076TIP3    H169643   4.493   3.583   0.356 -1.2290 -1.3171 -0.8275
16076TIP3    H269644   4.387   3.598   0.463  0.4629 -0.4473  0.8092
16077TIP3   OH269645   1.470   6.591   1.147  0.3726 -0.4382  0.0694
16077TIP3    H169646   1.537   6.637   1.096  0.0968  1.1290  1.0675
16077TIP3    H269647   1.469   6.503   1.110  0.9977  0.3086 -1.8472
16078TIP3   OH269648   6.020   6.545   2.401  0.4257 -0.3350  0.2345
16078TIP3    H169649   6.037   6.627   2.353 -0.9132  0.2277  0.6686
16078TIP3    H269650   5.967   6.493   2.341  1.2829 -0.9064 -0.0424
16079TIP3   OH269651   0.658   4.197   0.722 -0.3535  0.1470  0.6526
16079TIP3    H169652   0.677   4.121   0.777  0.0015  0.7926  1.4577
16079TIP3    H269653   0.706   4.181   0.641  0.2230 -0.2040  1.0569
16080TIP3   OH269654   1.421   6.587   2.627  0.1945 -0.2294 -0.0724
16080TIP3    H169655   1.396   6.673   2.596 -2.5016 -0.9596 -0.1503
16080TIP3    H269656   1.377   6.578   2.712  1.7177 -0.9452  0.6826
16081TIP3   OH269657   2.576   5.225  13.098 -0.6923 -0.0812 -0.0939
16081TIP3    H169658   2.551   5.208  13.007 -1.2186  1.2450 -0.2167
16081TIP3    H269659   2.505   5.186  13.149  0.0822 -1.6848 -0.1818
16082TIP3   OH269660   4.388   1.809   2.730  0.4302  0.6535 -0.0170
16082TIP3    H169661   4.369   1.796   2.823  1.3772  0.6131  0.1743
16082TIP3    H269662   4.482   1.796   2.722  0.1786 -0.6650 -1.2178
16083TIP3   OH269663   5.319   4.583   6.028  0.7198 -0.1127  0.7619
16083TIP3    H169664   5.372   4.521   5.979  0.6131  0.5717 -0.2372
16083TIP3    H269665   5.356   4.669   6.008  0.2647  0.2367  1.3545
16084TIP3   OH269666   4.383   5.546  10.475  0.3073 -0.0470  0.6732
16084TIP3    H169667   4.338   5.473  10.517  1.0270 -0.4534  0.7661
16084TIP3    H269668   4.350   5.624  10.519  0.5017 -0.4150  1.4922
16085TIP3   OH269669   4.832   6.290  12.724 -0.0517 -0.5298  0.0567
16085TIP3    H169670   4.739   6.299  12.743  0.2670  0.0747  1.5195
16085TIP3    H269671   4.871   6.370  12.758  1.0454 -0.9317 -0.2076
16086TIP3   OH269672   3.791   0.971  16.009  0.5288  0.3687  0.4201
16086TIP3    H169673   3.755   1.050  15.967 -1.8166  0.1198  1.7607
16086TIP3    H269674   3.830   1.003  16.090  1.5939  0.3906 -0.0898
16087TIP3   OH269675   4.639   5.659   2.988  0.5075 -0.1688  0.2276
16087TIP3    H169676   4.681   5.633   3.071 -0.0144  1.0016  0.8703
16087TIP3    H269677   4.698   5.624   2.921  1.2904 -0.5738  1.0877
16088TIP3   OH269678   5.373   3.103  13.383 -0.0671  0.3953  0.4177
16088TIP3    H169679   5.328   3.047  13.319  3.9530 -1.1026 -1.4526
16088TIP3    H269680   5.379   3.188  13.340  1.9776 -0.4123 -1.0577
16089TIP3   OH269681   4.477   3.266  14.709 -0.6064 -0.1223  0.7602
16089TIP3    H169682   4.452   3.176  14.730 -2.5977  0.5949  1.7630
16089TIP3    H269683   4.513   3.262  14.620  1.5707 -2.2236  1.6157
16090TIP3   OH269684   1.241   6.713   3.856  0.5106  0.8204  0.2502
16090TIP3    H169685   1.244   6.805   3.883 -0.0775  0.2660  2.4621
16090TIP3    H269686   1.156   6.703   3.813  1.3560  1.6822 -1.7207
16091TIP3   OH269687   3.061   6.767  11.563  0.2008 -0.4653  0.0317
16091TIP3    H169688   3.023   6.681  11.544 -0.3786  0.0925 -1.4896
16091TIP3    H269689   2.986   6.827  11.563  0.3985 -0.1052  2.4608
16092TIP3   OH269690   5.241   0.973  13.730  0.7907 -0.0043 -0.1265
16092TIP3    H169691   5.145   0.981  13.734  0.7261 -0.0816 -1.1619
16092TIP3    H269692   5.273   1.040  13.790  0.0769 -1.0802  1.5184
16093TIP3   OH269693   1.961   0.056   2.707  0.0733 -0.4138  0.0955
16093TIP3    H169694   1.948   0.142   2.665  1.8827 -0.2110 -0.1075
16093TIP3    H269695   1.986   0.077   2.797  0.6035 -0.7186  0.0215
16094TIP3   OH269696   4.012   5.253   2.114  0.2678 -0.2280  0.0168
16094TIP3    H169697   4.017   5.326   2.052 -0.8663 -0.7326 -0.7015
16094TIP3    H269698   3.920   5.251   2.141 -0.1313 -2.4356 -1.2943
16095TIP3   OH269699   5.651   2.628  14.590  0.1214 -0.1377  0.6236
16095TIP3    H169700   5.691   2.547  14.623 -1.6825 -0.5528  1.9331
16095TIP3    H269701   5.605   2.664  14.666 -0.0365  1.5366 -0.2327
16096TIP3   OH269702   1.660   1.985   2.730  0.3144  0.0600 -0.0541
16096TIP3    H169703   1.756   1.982   2.724  0.2387  0.1786 -1.9514
16096TIP3    H269704   1.634   2.048   2.663 -1.2148 -1.9153 -1.4322
16097TIP3   OH269705   2.887   5.004   2.797  0.4601 -0.0298 -0.1294
16097TIP3    H169706   2.815   4.956   2.839 -0.4153  1.0120 -0.4117
16097TIP3    H269707   2.852   5.092   2.783  1.7101  0.4187 -0.5079
16098TIP3   OH269708   0.472   0.077   4.203 -0.0024  0.3617 -0.0062
16098TIP3    H169709   0.557   0.034   4.218  0.0461  0.2427 -0.6324
16098TIP3    H269710   0.494   0.170   4.195  0.0436  0.3523  0.0092
16099TIP3   OH269711   2.125   3.190  15.121 -0.4822  0.6088 -0.0377
16099TIP3    H169712   2.147   3.214  15.031 -0.5159 -0.4319 -0.3458
16099TIP3    H269713   2.030   3.198  15.126 -0.4229  1.2420  0.0863
16100TIP3   OH269714   4.880   6.298   5.589 -0.6664 -0.2798  0.0892
16100TIP3    H169715   4.801   6.308   5.537 -1.3332  0.0431  1.1361
16100TIP3    H269716   4.887   6.380   5.638  0.2822 -0.3289  0.0669
16101TIP3   OH269717   6.632   3.749   0.658  0.4568 -0.3429  0.3509
16101TIP3    H169718   6.711   3.791   0.690 -0.5071 -0.0065  2.3916
16101TIP3    H269719   6.601   3.806   0.588  0.9687  0.5285  0.8267
16102TIP3   OH269720   0.935   0.780   5.653  0.6022 -0.6361  0.8821
16102TIP3    H169721   0.844   0.811   5.652  0.5937 -0.6446  1.2619
16102TIP3    H269722   0.972   0.817   5.733  1.3095  0.4379  0.0804
16103TIP3   OH269723   2.395   5.318   4.614 -0.8062 -0.2255 -0.5735
16103TIP3    H169724   2.334   5.319   4.540 -3.2272  2.3641  1.2045
16103TIP3    H269725   2.378   5.235   4.657 -2.4989  0.0128 -0.6822
16104TIP3   OH269726   2.049   5.908   2.919  0.3189  0.4433  0.2723
16104TIP3    H169727   1.962   5.947   2.928 -0.6978 -1.6782  0.2377
16104TIP3    H269728   2.048   5.867   2.833  1.4120  0.4573  0.2404
16105TIP3   OH269729   0.134   0.110   5.490  0.6143 -0.3485  0.1008
16105TIP3    H169730   0.124   0.109   5.585  2.9243 -0.1294  0.4048
16105TIP3    H269731   0.199   0.041   5.472  0.4096 -0.2140 -1.3010
16106TIP3   OH269732   2.862   1.873  14.430 -0.1264  0.1050 -0.1382
16106TIP3    H169733   2.901   1.939  14.373  0.8479  0.7596  1.2118
16106TIP3    H269734   2.913   1.794  14.415 -0.1374  0.1613 -0.4666
16107TIP3   OH269735   3.529   5.931   1.023  0.0663  0.1763 -0.1430
16107TIP3    H169736   3.463   5.862   1.034  2.2151 -1.6415  2.6321
16107TIP3    H269737   3.498   6.003   1.078 -0.6765  0.2222 -0.6107
16108TIP3   OH269738   4.385   1.256  14.008  0.0880  0.0031 -0.4497
16108TIP3    H169739   4.379   1.195  14.082  0.9844 -1.2302 -1.3509
16108TIP3    H269740   4.419   1.337  14.047  2.1827 -1.1455  0.2690
16109TIP3   OH269741   4.515   0.144   6.038  0.4226 -0.2512 -0.4491
16109TIP3    H169742   4.506   0.063   6.088 -1.4885 -0.0441 -0.3733
16109TIP3    H269743   4.502   0.214   6.102  3.1548  0.2320 -0.2906
16110TIP3   OH269744   1.261   1.244  14.465  0.0955 -0.5136  0.6224
16110TIP3    H169745   1.174   1.283  14.455  1.4548  2.2396 -2.6314
16110TIP3    H269746   1.298   1.288  14.541 -0.4442  0.2835  0.4420
16111TIP3   OH269747   2.782   4.355   4.981 -0.4781 -0.5401  0.1322
16111TIP3    H169748   2.837   4.414   5.033 -2.8531  1.7726  0.1925
16111TIP3    H269749   2.829   4.346   4.898  0.5679  0.3765  0.5965
16112TIP3   OH269750   6.703   0.534   1.958 -0.7151  0.1909  0.4039
16112TIP3    H169751   6.678   0.515   2.049 -1.6456 -0.1350  0.0921
16112TIP3    H269752   6.794   0.563   1.964 -0.8123  0.3310  1.4604
16113TIP3   OH269753   1.454   2.405   5.682  0.1506  0.0558  0.1002
16113TIP3    H169754   1.547   2.429   5.682  0.2662 -0.2795  1.6808
16113TIP3    H269755   1.415   2.460   5.614  1.2774  1.1337  0.2787
16114TIP3   OH269756   5.763   0.646  15.930  0.1999  0.1553  0.3671
16114TIP3    H169757   5.790   0.621  16.018  0.9551 -0.9356 -0.1571
16114TIP3    H269758   5.746   0.563  15.886 -2.3175  0.7085  0.1045
16115TIP3   OH269759   2.156   1.830   1.888 -0.0644 -0.3836 -0.0448
16115TIP3    H169760   2.250   1.814   1.897 -0.2802 -0.6504  2.5466
16115TIP3    H269761   2.124   1.758   1.834  1.1520 -0.4201 -0.7670
16116TIP3   OH269762   4.576   1.464   6.119 -0.3703 -0.6505  0.3312
16116TIP3    H169763   4.503   1.436   6.065 -0.7732  0.2671  0.3752
16116TIP3    H269764   4.538   1.480   6.205 -0.0304 -0.6141  0.4780
16117TIP3   OH269765   5.296   2.920   3.679  0.3612 -0.0002  0.1295
16117TIP3    H169766   5.311   2.994   3.620 -1.1502  0.1880 -0.0614
16117TIP3    H269767   5.359   2.854   3.651 -0.2804  0.1013 -1.6744
16118TIP3   OH269768   5.001   6.691  15.231  0.0042 -0.1140 -0.3621
16118TIP3    H169769   5.053   6.771  15.240  1.5521 -1.0044 -0.8505
16118TIP3    H269770   5.021   6.660  15.142  0.4928 -1.7047  0.2672
16119TIP3   OH269771   4.256   4.856   4.083 -0.9065 -0.0514  0.5015
16119TIP3    H169772   4.237   4.777   4.133 -1.0829 -0.3705 -0.0644
16119TIP3    H269773   4.221   4.928   4.136 -1.5556 -0.4278  0.5878
16120TIP3   OH269774   2.979   6.144   0.892  0.1273  0.1266 -0.2737
16120TIP3    H169775   2.976   6.236   0.917 -0.6598 -0.1233  0.6093
16120TIP3    H269776   3.043   6.105   0.952 -0.4159 -0.1187  0.1607
16121TIP3   OH269777   4.040   2.441  13.907  0.2841 -0.1022 -0.1380
16121TIP3    H169778   4.059   2.535  13.911 -1.3617  0.2340  0.5796
16121TIP3    H269779   3.967   2.429  13.967  0.5982 -1.8960 -0.0700
16122TIP3   OH269780   6.175   3.894   1.907 -0.3106  0.0604  0.2672
16122TIP3    H169781   6.091   3.908   1.863 -0.1718  2.0742  0.5724
16122TIP3    H269782   6.216   3.823   1.858 -0.1528  2.1807 -2.9314
16123TIP3   OH269783   0.115   2.096  13.314  0.2951 -0.3171  0.3818
16123TIP3    H169784   0.135   2.059  13.400  0.3878  0.0986  0.5430
16123TIP3    H269785   0.022   2.119  13.319  0.1188 -0.9334  0.1234
16124TIP3   OH269786   4.656   0.425   0.396 -0.2213 -0.5362 -0.0925
16124TIP3    H169787   4.608   0.434   0.478  1.6626 -0.2504  1.0224
16124TIP3    H269788   4.608   0.358   0.347 -2.3120  0.4412  0.5040
16125TIP3   OH269789   0.112   1.440  11.694 -0.6154 -0.4246 -0.3387
16125TIP3    H169790   0.068   1.468  11.774  1.4857 -0.6261  0.9485
16125TIP3    H269791   0.063   1.363  11.666 -2.0925  0.3263  0.0702
16126TIP3   OH269792   4.037   2.616   0.170  0.2800 -0.3889  0.3614
16126TIP3    H169793   4.032   2.588   0.079  0.4593  0.5793  0.0426
16126TIP3    H269794   4.083   2.545   0.215 -0.9380 -1.4673 -0.0318
16127TIP3   OH269795   2.746   0.899  12.416  0.3706  0.2385 -0.5162
16127TIP3    H169796   2.769   0.826  12.359  1.5447  1.7140 -2.0211
16127TIP3    H269797   2.786   0.877  12.500  1.7521 -0.3024 -1.2894
16128TIP3   OH269798   4.320   4.252   2.823  0.3914 -0.7898 -0.2126
16128TIP3    H169799   4.348   4.173   2.868 -0.4786 -1.3063 -0.5643
16128TIP3    H269800   4.347   4.240   2.732 -0.1078 -0.8633 -0.3515
16129TIP3   OH269801   5.081   0.177  15.339 -0.1474  0.2309 -0.1162
16129TIP3    H169802   5.120   0.222  15.264  0.0775 -1.2278 -0.9040
16129TIP3    H269803   4.990   0.209  15.341 -0.1801  0.2235 -1.0606
16130TIP3   OH269804   0.771   5.179  13.898  1.4375 -0.1021 -0.3106
16130TIP3    H169805   0.696   5.157  13.842  1.0540 -1.1118  0.5726
16130TIP3    H269806   0.786   5.272  13.882  0.4555 -0.0488 -1.0423
16131TIP3   OH269807   5.008   5.790   4.052  0.5683  0.0237  0.0340
16131TIP3    H169808   5.037   5.714   4.001 -1.4441 -0.3011 -0.7135
16131TIP3    H269809   4.982   5.754   4.136  2.2776  0.3228  0.7253
16132TIP3   OH269810   5.982   3.189   5.910  0.1824  0.2104 -0.2478
16132TIP3    H169811   6.014   3.278   5.926  0.6723  0.0899 -0.5609
16132TIP3    H269812   6.001   3.173   5.818 -0.1345 -0.1283 -0.2536
16133TIP3   OH269813   3.041   3.378  11.028 -0.0719 -0.5559 -0.3541
16133TIP3    H169814   2.950   3.406  11.039 -1.2731 -2.5082 -3.7116
16133TIP3    H269815   3.078   3.380  11.116 -3.4681 -0.0405  1.2202
16134TIP3   OH269816   5.895   2.867  16.772 -0.6450  0.0477  0.4684
16134TIP3    H169817   5.951   2.922  16.827  0.5643 -0.7344  0.0653
16134TIP3    H269818   5.835   2.825  16.833 -0.5270  0.5938  0.9655
16135TIP3   OH269819   6.709   6.699   2.835 -0.0896  0.0241  0.0116
16135TIP3    H169820   6.780   6.757   2.862 -0.7845  1.4377 -1.0568
16135TIP3    H269821   6.747   6.611   2.841  1.1920  0.6050  1.0899
16136TIP3   OH269822   4.535   1.803  14.474  0.2185  0.0233  0.0886
16136TIP3    H169823   4.554   1.730  14.416 -0.1769 -1.0869  1.3190
16136TIP3    H269824   4.569   1.880  14.428  0.3609 -0.8868 -1.3623
16137TIP3   OH269825   5.332   5.748  12.148 -0.4145  0.1447  0.1725
16137TIP3    H169826   5.295   5.708  12.069 -0.4844 -0.0884  0.3242
16137TIP3    H269827   5.259   5.796  12.187 -0.5902 -0.4089  0.5331
16138TIP3   OH269828   6.480   5.533  12.623  0.4134  0.4029  0.6593
16138TIP3    H169829   6.399   5.548  12.575  0.8028  1.1081  0.1978
16138TIP3    H269830   6.548   5.529  12.555  0.8415  0.4311  1.0780
16139TIP3   OH269831   3.254   4.456  12.189 -0.3222  0.0539 -0.4965
16139TIP3    H169832   3.239   4.393  12.119  3.6735 -1.7149 -0.0476
16139TIP3    H269833   3.245   4.405  12.270  1.5945  0.2740 -0.0776
16140TIP3   OH269834   3.191   1.999  13.461  0.5262  0.4126  0.2211
16140TIP3    H169835   3.238   2.081  13.448 -0.3735  0.9481  0.2020
16140TIP3    H269836   3.259   1.934  13.477  1.3802  0.8049 -1.5271
16141TIP3   OH269837   1.918   6.437   3.478 -0.4839 -0.2245 -0.4849
16141TIP3    H169838   2.012   6.442   3.497 -0.8018  0.6368  0.9907
16141TIP3    H269839   1.913   6.401   3.389  1.2459  0.0652 -0.7244
16142TIP3   OH269840   0.747   3.565   1.647  0.2700 -0.0427  0.0911
16142TIP3    H169841   0.816   3.582   1.711  1.9126 -0.3598 -1.5098
16142TIP3    H269842   0.780   3.492   1.595 -1.2529 -0.1634 -0.7626
16143TIP3   OH269843   2.814   4.726   3.440 -0.1753  0.1090  0.7183
16143TIP3    H169844   2.743   4.789   3.425 -1.9729 -1.9227  0.2033
16143TIP3    H269845   2.818   4.674   3.359  1.8190  0.0440  0.8056
16144TIP3   OH269846   5.227   3.883   6.052  0.5920 -0.1708 -0.1355
16144TIP3    H169847   5.225   3.788   6.052  0.0127 -0.1636 -0.6275
16144TIP3    H269848   5.137   3.909   6.033  1.0157  0.4586 -1.4565
16145TIP3   OH269849   4.587   0.210  14.311 -0.1853  0.4283  0.4026
16145TIP3    H169850   4.606   0.257  14.392  1.1412  2.2828 -0.9256
16145TIP3    H269851   4.502   0.169  14.328 -0.9190  2.4200  2.0228
16146TIP3   OH269852   1.309   6.200   4.328 -0.9596  0.6491  0.3002
16146TIP3    H169853   1.269   6.261   4.391  0.2052 -0.0216  1.7695
16146TIP3    H269854   1.401   6.229   4.323 -0.4380 -0.8176  0.8707
16147TIP3   OH269855   1.543   0.194   5.307  0.1583 -0.0996  0.2168
16147TIP3    H169856   1.606   0.266   5.306  1.6031 -1.2743  1.6667
16147TIP3    H269857   1.473   0.222   5.248  0.6144  2.5176  0.8345
16148TIP3   OH269858   3.125   3.479   0.270 -0.2785  0.2624 -0.6509
16148TIP3    H169859   3.078   3.528   0.202 -0.8086 -0.7816 -1.0640
16148TIP3    H269860   3.070   3.402   0.286 -0.2469  0.5793  1.1088
16149TIP3   OH269861   3.320   2.637   3.292 -0.3786 -0.5880  0.4311
16149TIP3    H169862   3.380   2.563   3.296 -0.7097 -0.8610  0.3909
16149TIP3    H269863   3.365   2.701   3.238 -0.3073 -0.9622  0.0402
16150TIP3   OH269864   0.976   6.003   5.810  0.0281 -0.5771  0.1834
16150TIP3    H169865   0.989   5.988   5.904  1.1494  1.0136  0.3220
16150TIP3    H269866   0.892   5.961   5.791 -0.2084 -0.9691  1.8925
16151TIP3   OH269867   6.000   2.148  12.208  0.1717 -0.4898 -0.2792
16151TIP3    H169868   6.049   2.070  12.181  0.0684 -0.6614  0.0209
16151TIP3    H269869   5.944   2.168  12.133 -2.0120 -2.4952  0.6596
16152TIP3   OH269870   6.440   0.101  11.137 -0.1010  0.3316 -0.2108
16152TIP3    H169871   6.430   0.154  11.216 -1.2327  1.2180 -0.9131
16152TIP3    H269872   6.395   0.151  11.069  1.4191 -0.0933 -1.5845
16153TIP3   OH269873   0.078   5.624  17.227  0.3755 -0.0035 -0.2808
16153TIP3    H169874  -0.008   5.661  17.247  0.5837 -0.2622  1.2186
16153TIP3    H269875   0.063   5.569  17.150 -0.4182  1.3259 -1.1161
16154TIP3   OH269876   0.440   3.465   1.218  0.3390 -0.0830 -0.0828
16154TIP3    H169877   0.515   3.423   1.261  1.1548 -1.3315 -2.5417
16154TIP3    H269878   0.365   3.412   1.246  0.3142  1.0457  2.2292
16155TIP3   OH269879   1.276   0.267   5.193 -0.1056  0.2967 -0.0887
16155TIP3    H169880   1.216   0.250   5.265 -0.1349 -0.4082 -0.2751
16155TIP3    H269881   1.231   0.234   5.116 -0.2894  1.5033 -0.5169
16156TIP3   OH269882   3.843   5.779   0.754 -0.1389 -0.5694 -0.0205
16156TIP3    H169883   3.756   5.752   0.785 -0.4309 -1.3625 -1.4046
16156TIP3    H269884   3.843   5.874   0.762 -1.6852 -0.4148 -1.2379
16157TIP3   OH269885   4.586   4.565   4.046 -0.7092  0.1797 -0.1110
16157TIP3    H169886   4.647   4.513   3.994 -0.8709 -0.9964  0.8327
16157TIP3    H269887   4.555   4.505   4.114 -1.9988  1.1026  0.1572
16158TIP3   OH269888   3.490   1.196  14.263 -0.3699 -0.1032 -0.9470
16158TIP3    H169889   3.494   1.101  14.258 -2.1026 -0.3280  0.6176
16158TIP3    H269890   3.398   1.217  14.250 -0.2039  1.2448 -0.1821
16159TIP3   OH269891   4.899   5.970   1.147  0.4954  0.1694 -0.4151
16159TIP3    H169892   4.928   5.897   1.202 -0.0230  0.2092 -0.0796
16159TIP3    H269893   4.977   6.025   1.136  1.0522 -0.7607 -1.1972
16160TIP3   OH269894   4.490   6.084   2.432  0.3698 -0.1599 -0.0898
16160TIP3    H169895   4.399   6.056   2.438  0.5780 -0.5984  1.4234
16160TIP3    H269896   4.537   6.027   2.493  1.6491  0.1327 -0.7556
16161TIP3   OH269897   1.792   4.644  12.515 -0.9636  0.4754  0.0697
16161TIP3    H169898   1.797   4.622  12.422  1.9829 -0.4852  0.3375
16161TIP3    H269899   1.709   4.606  12.545 -1.5626  0.0729 -1.9636
16162TIP3   OH269900   5.505   2.566  10.344 -0.2354  0.3047  0.2607
16162TIP3    H169901   5.476   2.652  10.313 -1.2277 -0.2485 -0.4251
16162TIP3    H269902   5.513   2.575  10.439  3.2250  2.1668 -0.0494
16163TIP3   OH269903   5.857   6.679   2.611  1.1278 -0.0936 -0.5759
16163TIP3    H169904   5.833   6.619   2.682  0.8989  1.2913  0.5547
16163TIP3    H269905   5.916   6.628   2.555 -2.1994 -2.7944 -2.0277
16164TIP3   OH269906   2.909   2.197   2.640  0.3749 -0.2799 -0.0812
16164TIP3    H169907   2.972   2.125   2.635  0.1873 -0.4553  0.0748
16164TIP3    H269908   2.828   2.160   2.605  0.9243  0.5950 -2.4104
16165TIP3   OH269909   2.828   4.051  12.315 -0.1511  0.4537 -0.2735
16165TIP3    H169910   2.849   4.098  12.395 -0.9727 -0.0393  0.2495
16165TIP3    H269911   2.734   4.067  12.301 -0.2597 -0.3471 -0.5281
16166TIP3   OH269912   5.457   4.685   5.671 -0.6729 -0.0788  0.6625
16166TIP3    H169913   5.517   4.610   5.680  0.1834  0.5260  0.1742
16166TIP3    H269914   5.370   4.646   5.667 -0.1169 -1.2140 -1.6949
16167TIP3   OH269915   5.504   3.066  16.247 -0.3102 -0.1590 -0.1789
16167TIP3    H169916   5.484   3.154  16.216  1.4012  0.8036  1.2990
16167TIP3    H269917   5.597   3.053  16.228 -0.6327 -1.8565 -0.7947
16168TIP3   OH269918   1.026   2.687  13.036 -0.1504 -0.0556  0.2957
16168TIP3    H169919   0.958   2.725  13.091  0.7513  1.4017  0.4682
16168TIP3    H269920   1.006   2.717  12.947  0.2741  0.4297  0.3554
16169TIP3   OH269921   5.648   1.594  17.134  0.0222 -0.0091 -0.0019
16169TIP3    H169922   5.658   1.683  17.168 -0.3779 -0.5732  1.6828
16169TIP3    H269923   5.650   1.538  17.211  0.7329 -1.5333 -1.0539
16170TIP3   OH269924   3.568   1.400  17.152 -0.1935 -0.0619 -0.1594
16170TIP3    H169925   3.653   1.439  17.132 -0.5215  0.1343 -1.2324
16170TIP3    H269926   3.584   1.345  17.229  1.1610 -0.9398 -1.0386
16171TIP3   OH269927   0.023   4.850  12.086  0.0813  0.6176 -0.0765
16171TIP3    H169928   0.004   4.768  12.133 -2.4884  0.0708 -1.8876
16171TIP3    H269929   0.118   4.860  12.095  0.5681 -2.7531 -0.0538
16172TIP3   OH269930   3.156   1.100   3.461  0.0652  0.2663 -0.0145
16172TIP3    H169931   3.196   1.120   3.376 -0.8702 -0.4532 -0.6531
16172TIP3    H269932   3.097   1.026   3.442 -0.1248  0.0702  1.2736
16173TIP3   OH269933   5.454   5.810   2.186 -0.4574 -0.4132  0.1509
16173TIP3    H169934   5.381   5.754   2.213 -0.9458  0.1128 -0.0517
16173TIP3    H269935   5.531   5.755   2.195 -0.9120 -1.0655  0.1127
16174TIP3   OH269936   4.025   1.218   0.613 -0.1995  1.1364  1.0660
16174TIP3    H169937   4.069   1.303   0.608  0.3375  0.8813  1.3686
16174TIP3    H269938   3.932   1.239   0.611 -0.1121  1.8526  2.6872
16175TIP3   OH269939   5.142   1.759  17.154 -0.6378 -0.2257 -0.8560
16175TIP3    H169940   5.196   1.736  17.078 -0.8832  1.0868 -1.4652
16175TIP3    H269941   5.180   1.711  17.227 -0.1009 -1.1475 -1.7191
16176TIP3   OH269942   5.139   0.019  12.646 -0.3912 -0.2859 -0.4778
16176TIP3    H169943   5.235   0.022  12.643 -0.3917  3.1762 -1.1179
16176TIP3    H269944   5.113  -0.011  12.559  0.0248 -2.6532  0.1389
16177TIP3   OH269945   1.123   4.409   2.418 -0.3895 -0.2248  0.1334
16177TIP3    H169946   1.206   4.436   2.458 -0.7623 -1.3356  1.7329
16177TIP3    H269947   1.088   4.343   2.478 -2.4730  0.2774 -0.4572
16178TIP3   OH269948   3.143   4.394   1.095  0.8438  0.5273 -0.5703
16178TIP3    H169949   3.165   4.303   1.073  1.1137  0.8386 -1.6330
16178TIP3    H269950   3.210   4.420   1.158  1.9858  0.6127 -1.7771
16179TIP3   OH269951   0.192   5.401   3.319  0.1507 -0.1438 -0.4046
16179TIP3    H169952   0.215   5.413   3.412 -0.8655 -0.8561 -0.0434
16179TIP3    H269953   0.103   5.436   3.312  0.5736  0.7969 -1.3455
16180TIP3   OH269954   1.356   0.625  14.216  0.3679  0.5275  0.0612
16180TIP3    H169955   1.351   0.608  14.310  2.9478  0.8718  0.3543
16180TIP3    H269956   1.292   0.566  14.177  1.5619 -2.1521  1.8169
16181TIP3   OH269957   0.504   2.613   0.647  0.1914 -0.3137 -0.9691
16181TIP3    H169958   0.414   2.595   0.675  0.4676 -0.4682 -0.1304
16181TIP3    H269959   0.500   2.699   0.606 -0.0354  0.5347  0.7290
16182TIP3   OH269960   5.677   3.697  12.672 -0.0752  0.0592 -0.0068
16182TIP3    H169961   5.720   3.783  12.678  1.0776 -0.4872 -0.1147
16182TIP3    H269962   5.626   3.701  12.592  0.7383  0.3314 -0.5278
16183TIP3   OH269963   4.995   4.863   2.643  0.4441 -0.3642  0.3428
16183TIP3    H169964   5.025   4.794   2.585 -0.6419 -0.2843 -0.3261
16183TIP3    H269965   4.933   4.914   2.591  0.2242  0.3208  1.2437
16184TIP3   OH269966   5.321   4.404  10.647  0.1272  0.2046  0.5518
16184TIP3    H169967   5.400   4.359  10.678  0.9228  0.6436 -0.7129
16184TIP3    H269968   5.249   4.363  10.694  1.0378 -0.8093  1.1048
16185TIP3   OH269969   4.048   2.111   5.535 -0.0012 -0.3520 -0.8747
16185TIP3    H169970   4.080   2.039   5.480 -1.8550 -1.0374 -1.1193
16185TIP3    H269971   4.097   2.102   5.616  0.0850 -1.6550 -1.0512
16186TIP3   OH269972   5.572   4.033  16.839  0.0800 -1.0045  0.2296
16186TIP3    H169973   5.620   4.113  16.861 -4.0408  1.3203  1.7964
16186TIP3    H269974   5.567   3.985  16.922 -0.4286 -1.1098  0.1416
16187TIP3   OH269975   0.213   4.675  11.864  0.3046  0.7599  0.0382
16187TIP3    H169976   0.125   4.707  11.884  0.7831  1.1764  1.6148
16187TIP3    H269977   0.215   4.669  11.768 -1.0190  1.9321 -0.0948
16188TIP3   OH269978   1.177   6.106   0.760 -0.1705 -0.2517  0.6427
16188TIP3    H169979   1.126   6.154   0.826 -0.4629  1.2278 -0.5821
16188TIP3    H269980   1.238   6.172   0.726  1.7962 -1.6783  1.2363
16189TIP3   OH269981   3.578   3.326   1.385 -0.1239  0.0359  0.7756
16189TIP3    H169982   3.672   3.319   1.365 -0.0048  1.9356  0.4905
16189TIP3    H269983   3.552   3.409   1.346 -3.0651 -2.4802 -3.4723
16190TIP3   OH269984   3.447   6.307   3.800  0.0864  0.0160 -0.0724
16190TIP3    H169985   3.523   6.365   3.801 -1.2505  1.8596  0.9918
16190TIP3    H269986   3.436   6.281   3.892 -0.8188  0.1651 -0.1247
16191TIP3   OH269987   6.095   5.749  16.281 -0.2540 -0.6175  0.0207
16191TIP3    H169988   6.001   5.740  16.301 -0.0844  1.1582  2.0348
16191TIP3    H269989   6.139   5.721  16.362  0.9213 -0.5193 -0.5673
16192TIP3   OH269990   2.613   3.259  13.839 -0.5928 -0.2497  0.3041
16192TIP3    H169991   2.696   3.298  13.812 -0.3089 -3.1539 -4.0787
16192TIP3    H269992   2.547   3.319  13.803 -0.5330  1.3015  2.5540
16193TIP3   OH269993   5.087   4.147   0.369 -0.1305  0.2073 -0.0222
16193TIP3    H169994   5.018   4.117   0.428 -0.3131 -1.7710 -1.1754
16193TIP3    H269995   5.103   4.073   0.311  1.2869  1.4817 -1.3336
16194TIP3   OH269996   1.335   4.317  15.091  0.0426 -0.0977 -0.5309
16194TIP3    H169997   1.295   4.243  15.044  0.7691 -0.3210 -0.8280
16194TIP3    H269998   1.425   4.320  15.057  0.2790  0.3782  0.1175
16195TIP3   OH269999   5.044   0.200   0.289 -0.3488 -0.0266  0.1026
16195TIP3    H170000   4.985   0.179   0.216 -0.6150 -1.8828  0.7921
16195TIP3    H270001   5.032   0.294   0.304 -2.0934 -0.0900 -0.6676
16196TIP3   OH270002   1.493   2.976   0.369 -0.0751 -0.8416  0.0780
16196TIP3    H170003   1.480   3.068   0.346 -0.3137 -0.5972  1.1384
16196TIP3    H270004   1.588   2.965   0.368 -0.0811 -0.9301 -1.2999
16197TIP3   OH270005   0.999   0.391   6.443 -0.3517 -0.4901 -0.4367
16197TIP3    H170006   0.949   0.317   6.477  1.0915 -0.9700  0.7583
16197TIP3    H270007   1.079   0.352   6.408  1.2678  0.5421  1.7991
16198TIP3   OH270008   6.628   0.582   4.647  0.1082 -0.3016  0.2468
16198TIP3    H170009   6.685   0.511   4.617 -2.6136 -2.3553 -0.4378
16198TIP3    H270010   6.618   0.567   4.740  2.4960  1.5743  0.9323
16199TIP3   OH270011   4.217   2.992  11.495  0.7684  0.3758  0.9338
16199TIP3    H170012   4.165   2.945  11.430  1.3701  1.4968 -0.3904
16199TIP3    H270013   4.274   2.924  11.533  2.7186  0.1441 -2.0208
16200TIP3   OH270014   6.479   4.579  12.128  0.8114  0.7578 -0.2985
16200TIP3    H170015   6.492   4.580  12.223  0.3368 -1.5717 -0.1241
16200TIP3    H270016   6.547   4.636  12.093  1.3056  1.2792  1.4076
16201TIP3   OH270017   4.185   2.392   0.691 -0.2458  0.1308 -0.8121
16201TIP3    H170018   4.192   2.484   0.664 -0.9457  0.6161  0.5745
16201TIP3    H270019   4.167   2.396   0.785  1.5027 -1.4805 -0.3469
16202TIP3   OH270020   1.849   5.532  12.585  0.2728  0.3909  0.2371
16202TIP3    H170021   1.942   5.548  12.600 -0.0741  0.5146  2.7060
16202TIP3    H270022   1.811   5.619  12.573  0.6959  0.2676 -3.1875
16203TIP3   OH270023   3.106   3.693   1.412 -0.2997 -0.4586  0.4224
16203TIP3    H170024   3.016   3.673   1.437  0.2671 -0.7611  2.3674
16203TIP3    H270025   3.133   3.618   1.359 -1.0645 -0.5123  0.0894
16204TIP3   OH270026   4.550   4.828  13.148  0.2724 -0.0835 -0.4584
16204TIP3    H170027   4.594   4.906  13.114 -1.3883  0.1345 -2.3143
16204TIP3    H270028   4.616   4.759  13.143  1.6548  1.0884  0.8946
16205TIP3   OH270029   2.262   2.696   1.285  0.0056  0.4304 -0.2540
16205TIP3    H170030   2.303   2.783   1.290 -0.6783  0.6840  2.0291
16205TIP3    H270031   2.323   2.644   1.232  0.7478  2.1091 -1.1270
16206TIP3   OH270032   2.349   4.631  14.053  0.5245 -0.5549 -0.5080
16206TIP3    H170033   2.404   4.665  14.123 -0.3031  1.5370 -0.8099
16206TIP3    H270034   2.403   4.566  14.009  1.2472 -1.5703  1.7135
16207TIP3   OH270035   2.146   1.328   2.662  0.2801  0.3393  0.4837
16207TIP3    H170036   2.146   1.422   2.683  1.2978  0.1787  1.2832
16207TIP3    H270037   2.202   1.289   2.729 -0.7441 -0.9487  0.6112
16208TIP3   OH270038   3.279   4.196   3.640  0.4362 -0.2813  0.6380
16208TIP3    H170039   3.266   4.123   3.699  1.7168 -2.1267 -1.2179
16208TIP3    H270040   3.220   4.179   3.566  0.6074  0.6710  0.2621
16209TIP3   OH270041   2.314   1.456   6.059 -0.0387 -0.2955  0.5099
16209TIP3    H170042   2.310   1.490   5.969  0.7437 -0.9203  0.2273
16209TIP3    H270043   2.234   1.405   6.069 -0.4821  0.3648  0.4224
16210TIP3   OH270044   6.566   4.743   0.975  0.7679  0.0643 -0.2740
16210TIP3    H170045   6.524   4.796   0.908 -0.3419 -0.7578 -0.2546
16210TIP3    H270046   6.541   4.784   1.058  0.6876  0.0630 -0.2976
16211TIP3   OH270047   1.488   2.412  15.398  0.5186 -0.1834 -0.1871
16211TIP3    H170048   1.526   2.485  15.446 -2.8095 -0.0083  2.5381
16211TIP3    H270049   1.452   2.451  15.319 -0.4598  1.0153  0.8189
16212TIP3   OH270050   2.571   1.316  15.562 -0.5442 -0.3878 -0.1453
16212TIP3    H170051   2.512   1.376  15.516  0.4903  0.4121 -0.4587
16212TIP3    H270052   2.645   1.305  15.503  0.3444 -0.1491  0.8950
16213TIP3   OH270053   0.313   4.099  15.332  0.1939  0.6415  0.8668
16213TIP3    H170054   0.402   4.092  15.366 -0.1056 -0.4175  1.4833
16213TIP3    H270055   0.257   4.087  15.409 -0.4877  1.5545  0.5326
16214TIP3   OH270056   5.688   1.187   0.540  0.3070 -0.1467  0.1300
16214TIP3    H170057   5.628   1.116   0.563 -0.0707 -0.1212 -0.7549
16214TIP3    H270058   5.770   1.164   0.584 -0.2094 -0.4104  0.9780
16215TIP3   OH270059   0.508   3.744   1.060 -0.4984  0.0173  0.5017
16215TIP3    H170060   0.478   3.831   1.084 -0.7658 -0.6185  2.6378
16215TIP3    H270061   0.435   3.706   1.011 -0.3613  0.9638 -0.4881
16216TIP3   OH270062   4.359   2.457  14.231  0.7510  0.7647 -0.0061
16216TIP3    H170063   4.339   2.512  14.155  1.4562 -1.3471 -1.8063
16216TIP3    H270064   4.444   2.489  14.261  1.4947  0.2727 -1.4751
16217TIP3   OH270065   1.805   6.013  15.378 -0.6097 -0.4462 -0.0111
16217TIP3    H170066   1.729   5.973  15.334 -0.2160 -0.5709 -0.5838
16217TIP3    H270067   1.833   6.082  15.319 -1.0241  0.4198  0.7808
16218TIP3   OH270068   4.537   3.369   1.903 -0.2955 -0.0711 -0.4506
16218TIP3    H170069   4.558   3.299   1.841  1.5474 -0.1746  0.2139
16218TIP3    H270070   4.596   3.441   1.879 -0.0836  0.1585  0.6878
16219TIP3   OH270071   3.156   6.465   4.020  0.4237 -0.0426 -0.0281
16219TIP3    H170072   3.213   6.540   4.038 -2.6663  2.6551 -0.4025
16219TIP3    H270073   3.148   6.464   3.924 -0.5603 -0.0080  0.0477
16220TIP3   OH270074   4.470   1.649  14.186 -0.5549  0.4510 -0.4681
16220TIP3    H170075   4.437   1.739  14.186 -0.5512  0.4843  1.2091
16220TIP3    H270076   4.401   1.598  14.143 -0.7267  1.1849 -1.0860
16221TIP3   OH270077   2.698   4.820   5.353  0.4671 -0.0258 -0.0654
16221TIP3    H170078   2.763   4.751   5.338  1.3832  0.6604  0.5791
16221TIP3    H270079   2.618   4.773   5.375  1.4803 -0.9225  1.9976
16222TIP3   OH270080   3.099   1.722   2.081 -0.0144 -0.3584  0.3910
16222TIP3    H170081   3.087   1.640   2.130 -0.1593 -0.6568 -0.1328
16222TIP3    H270082   3.011   1.755   2.068  0.1255  1.1954  2.7344
16223TIP3   OH270083   2.322   0.512  11.351 -0.1353  0.3225  0.4886
16223TIP3    H170084   2.384   0.554  11.292 -0.2350 -0.8411 -0.4813
16223TIP3    H270085   2.371   0.499  11.432  0.3119  1.0550  0.3455
16224TIP3   OH270086   3.827   3.998  15.593 -0.3129 -0.2222  0.0225
16224TIP3    H170087   3.880   3.954  15.659  0.2217 -1.5574 -1.2463
16224TIP3    H270088   3.773   4.059  15.642  0.6172 -0.6256  1.6032
16225TIP3   OH270089   4.042   2.597  15.186 -0.1224 -0.6855  0.3888
16225TIP3    H170090   3.949   2.583  15.203 -0.9630  1.9513 -1.5130
16225TIP3    H270091   4.077   2.625  15.271 -1.0076 -1.7196  1.1325
16226TIP3   OH270092   1.299   0.047  17.151 -0.1098 -0.1624 -0.6767
16226TIP3    H170093   1.302   0.002  17.067 -0.3419  1.3626 -1.5227
16226TIP3    H270094   1.301   0.140  17.129  1.9469  0.2921  1.0632
16227TIP3   OH270095   0.613   0.849  16.141  0.3283  0.1873  0.4759
16227TIP3    H170096   0.586   0.761  16.115  3.2823 -0.8306  0.4348
16227TIP3    H270097   0.634   0.893  16.059  2.3876 -0.4233  0.6104
16228TIP3   OH270098   5.235   2.478   5.415 -0.2516  0.3676 -0.1198
16228TIP3    H170099   5.273   2.486   5.502 -0.1680  0.5622 -0.1718
16228TIP3    H270100   5.239   2.385   5.394  0.7895  0.4496 -0.3844
16229TIP3   OH270101   1.302   1.197   4.772  0.3175 -0.2019  0.1297
16229TIP3    H170102   1.250   1.137   4.824  1.6345 -0.2353  1.4621
16229TIP3    H270103   1.286   1.283   4.811  1.1161 -0.1890  0.4368
16230TIP3   OH270104   1.829   1.005   3.117 -0.3283 -0.7342 -0.1204
16230TIP3    H170105   1.791   0.981   3.202 -0.6722 -0.2503 -0.1376
16230TIP3    H270106   1.774   0.960   3.053 -0.5214 -0.4960 -0.1207
16231TIP3   OH270107   2.940   1.236   3.675  0.1912  0.1500  0.1256
16231TIP3    H170108   2.953   1.167   3.610  0.2129 -0.7188  1.0184
16231TIP3    H270109   2.880   1.298   3.634 -0.8173 -1.0452 -0.2566
16232TIP3   OH270110   1.006   2.712  13.330 -0.2795  0.3767 -0.5177
16232TIP3    H170111   1.082   2.718  13.271  0.8144 -0.8129  0.7019
16232TIP3    H270112   0.964   2.629  13.306 -1.2697  1.0548 -1.2222
16233TIP3   OH270113   2.815   5.464   1.880 -0.4647  0.2534  0.0819
16233TIP3    H170114   2.856   5.550   1.873 -1.5363  0.8967  1.1615
16233TIP3    H270115   2.872   5.414   1.938 -0.7671  0.8687  0.9258
16234TIP3   OH270116   4.334   2.444  16.195  1.2338 -0.0707 -0.2949
16234TIP3    H170117   4.247   2.470  16.163  0.6953 -0.4284  0.8414
16234TIP3    H270118   4.347   2.356  16.159  0.7530 -0.3586  0.2262
16235TIP3   OH270119   0.084   5.408   5.497 -0.0115  1.0059  0.2312
16235TIP3    H170120   0.122   5.326   5.529 -0.4875  0.4337 -0.6013
16235TIP3    H270121   0.112   5.413   5.406 -0.8424  1.2209 -0.0250
16236TIP3   OH270122   5.259   0.976   1.101  0.1395 -0.1545  0.2450
16236TIP3    H170123   5.181   1.029   1.086 -0.1272 -0.1494  1.4679
16236TIP3    H270124   5.332   1.037   1.090 -0.0571 -0.0167 -0.3147
16237TIP3   OH270125   0.738   6.270   0.475 -0.4584  0.6071 -0.3659
16237TIP3    H170126   0.713   6.298   0.563 -2.1937 -2.1107  0.1337
16237TIP3    H270127   0.827   6.235   0.485 -0.8688 -0.2492  0.5088
16238TIP3   OH270128   4.739   0.029  15.081  0.2740  0.4452 -0.3382
16238TIP3    H170129   4.830  -0.002  15.081  0.3117  0.5334  0.5800
16238TIP3    H270130   4.686  -0.050  15.072  0.4398  0.3982 -0.9300
16239TIP3   OH270131   4.687   1.818   4.097 -0.3625  0.0064 -0.3127
16239TIP3    H170132   4.675   1.913   4.094  0.6601  0.1532 -0.1688
16239TIP3    H270133   4.643   1.785   4.018  0.5197  0.7500 -1.1294
16240TIP3   OH270134   5.357   1.488   2.756  0.6498  0.7987  0.6583
16240TIP3    H170135   5.261   1.492   2.748  0.5899  2.0284  1.6632
16240TIP3    H270136   5.381   1.405   2.714 -1.0903 -0.6499  2.3341
16241TIP3   OH270137   6.410   5.249  15.422  0.1624  0.6662  0.1311
16241TIP3    H170138   6.329   5.266  15.374  1.5659  2.4542 -1.7410
16241TIP3    H270139   6.455   5.183  15.370  1.6607  2.5595 -1.0873
16242TIP3   OH270140   5.253   2.536  12.995 -0.1208  0.2115 -0.3992
16242TIP3    H170141   5.167   2.523  13.036 -0.2081 -2.3391 -1.2085
16242TIP3    H270142   5.249   2.625  12.961 -3.2672 -0.3924 -2.0822
16243TIP3   OH270143   5.581   2.461  16.143 -0.1870  0.0455 -0.3469
16243TIP3    H170144   5.593   2.409  16.063  0.1756  1.8696 -1.5394
16243TIP3    H270145   5.492   2.439  16.172 -0.7323  0.1337 -1.8619
16244TIP3   OH270146   2.613   0.419   3.877  0.1732  0.1863  0.0409
16244TIP3    H170147   2.626   0.378   3.792 -1.2725 -0.0677 -0.0791
16244TIP3    H270148   2.674   0.374   3.935 -0.4885 -1.2728 -0.3555
16245TIP3   OH270149   4.769   4.587  13.471  0.5128 -0.1754  0.2486
16245TIP3    H170150   4.791   4.590  13.377 -0.6913 -0.8803 -0.0800
16245TIP3    H270151   4.743   4.676  13.493 -1.5009 -0.4888 -0.7008
16246TIP3   OH270152   1.755   2.286   0.622  0.1573 -0.3859  0.4848
16246TIP3    H170153   1.708   2.215   0.579 -0.4531 -0.4669  1.2679
16246TIP3    H270154   1.829   2.242   0.665  0.1387 -0.4570  0.4448
16247TIP3   OH270155   6.014   5.973   2.112  0.0006 -0.1990 -0.2695
16247TIP3    H170156   6.104   5.959   2.143 -0.0413 -0.7281 -0.3783
16247TIP3    H270157   5.965   5.995   2.190  0.1811 -0.1418 -0.1717
16248TIP3   OH270158   0.692   0.349  10.961 -0.0478 -0.1073 -0.4665
16248TIP3    H170159   0.630   0.380  10.896 -1.6135 -4.0017 -1.1313
16248TIP3    H270160   0.778   0.372  10.926 -0.9320 -0.2836 -2.9359
16249TIP3   OH270161   1.896   4.032  14.332  0.1388 -0.8188 -0.0320
16249TIP3    H170162   1.803   4.034  14.355  0.6017  0.8805  2.0136
16249TIP3    H270163   1.905   4.095  14.261 -0.1415 -0.2373  0.4423
16250TIP3   OH270164   3.578   5.730   4.881 -0.0642  0.5090 -0.3364
16250TIP3    H170165   3.491   5.693   4.872 -0.1839  0.9593 -1.1090
16250TIP3    H270166   3.616   5.723   4.793  0.2253  1.4321 -0.2891
16251TIP3   OH270167   0.744   5.765  15.674  0.1580  0.0716  0.1282
16251TIP3    H170168   0.776   5.776  15.585 -1.7789  0.0913 -0.5944
16251TIP3    H270169   0.705   5.678  15.675  0.5298 -0.1037  1.1038
16252TIP3   OH270170   1.069   0.790   1.183  0.5843  0.1050 -0.3082
16252TIP3    H170171   1.145   0.795   1.124 -0.5800  1.2576 -1.7804
16252TIP3    H270172   1.060   0.878   1.218  1.1437 -0.5151  1.5462
16253TIP3   OH270173   6.742   5.377   4.619 -0.2031 -0.0437 -0.8374
16253TIP3    H170174   6.690   5.297   4.622 -0.0991 -0.0873  0.1425
16253TIP3    H270175   6.681   5.445   4.649  0.5611 -0.2580  1.3887
16254TIP3   OH270176   5.371   5.453  13.866  0.0693  0.1637  0.0109
16254TIP3    H170177   5.383   5.382  13.929 -0.0331 -1.6321 -1.9044
16254TIP3    H270178   5.425   5.428  13.791  2.4275  3.5859  0.3159
16255TIP3   OH270179   2.233   1.323   5.315  0.0188  0.0027 -0.6469
16255TIP3    H170180   2.190   1.398   5.275  0.2931  0.0427 -0.8751
16255TIP3    H270181   2.172   1.291   5.381 -0.3228  0.1043 -0.9163
16256TIP3   OH270182   5.533   4.708  17.057  0.4413  0.2581  0.0488
16256TIP3    H170183   5.583   4.627  17.068 -0.3775 -0.4873 -1.3673
16256TIP3    H270184   5.465   4.704  17.125  0.4005 -0.2518 -0.0204
16257TIP3   OH270185   2.707   0.363   5.362  0.3217  0.3867  0.0765
16257TIP3    H170186   2.651   0.292   5.331  0.3441  0.3566  0.1050
16257TIP3    H270187   2.653   0.442   5.355  0.3137  0.3741 -0.0017
16258TIP3   OH270188   0.462   3.822  11.274 -0.6005  0.4044  0.3822
16258TIP3    H170189   0.462   3.905  11.321  0.6988  0.0145  1.1155
16258TIP3    H270190   0.421   3.760  11.334  0.9482 -0.0678  0.9899
16259TIP3   OH270191   2.466   0.687   2.362 -0.1595 -0.6785  1.5372
16259TIP3    H170192   2.450   0.624   2.291  0.7834  0.0315  0.6626
16259TIP3    H270193   2.502   0.634   2.433  1.3785 -1.0382  0.5228
16260TIP3   OH270194   3.025   4.634   5.324  0.3101  0.1986  0.3367
16260TIP3    H170195   3.049   4.722   5.353  1.6618 -0.5762  1.7104
16260TIP3    H270196   3.101   4.581   5.344  0.2760 -0.9543 -2.2741
16261TIP3   OH270197   1.413   3.882  12.141 -0.2129  0.5129  0.9029
16261TIP3    H170198   1.346   3.834  12.189 -1.2716  1.1282  0.0918
16261TIP3    H270199   1.476   3.815  12.113 -0.3480 -0.0388  1.8854
16262TIP3   OH270200   3.684   0.349   2.869 -0.1843  0.1401 -0.0638
16262TIP3    H170201   3.736   0.373   2.947  0.5405  3.6533 -1.4316
16262TIP3    H270202   3.742   0.291   2.819 -1.0644 -3.0880  2.3219
16263TIP3   OH270203   5.471   2.306   4.188  0.1218 -0.8862  0.2668
16263TIP3    H170204   5.538   2.285   4.122 -1.6023  1.6240 -2.5504
16263TIP3    H270205   5.486   2.397   4.211 -0.8766 -0.9822  1.4402
16264TIP3   OH270206   0.044   0.424   5.026  0.0225  0.2885  0.0930
16264TIP3    H170207  -0.035   0.422   4.973  0.4189  2.2699 -0.6323
16264TIP3    H270208   0.088   0.506   5.003  1.6219 -0.1128  1.4528
16265TIP3   OH270209   5.617   0.543  16.926 -0.0188 -0.4969  0.2806
16265TIP3    H170210   5.600   0.595  17.005  1.2201 -0.6136  0.6413
16265TIP3    H270211   5.696   0.581  16.888 -0.2428 -0.8495 -0.5670
16266TIP3   OH270212   0.540   5.507   6.055  0.6972  0.1149 -0.5753
16266TIP3    H170213   0.623   5.554   6.059  1.8107 -1.4490 -2.8986
16266TIP3    H270214   0.546   5.442   6.125  0.6488  1.1360  0.3955
16267TIP3   OH270215   5.526   3.948  17.296  0.2505  0.4013  0.0660
16267TIP3    H170216   5.615   3.976  17.319 -0.0310 -0.4145  2.3654
16267TIP3    H270217   5.534   3.854  17.280 -0.1579  0.3649  0.0648
16268TIP3   OH270218   2.068   5.047   0.974  0.0053 -0.0947 -0.1201
16268TIP3    H170219   2.019   5.119   0.935  1.4104  1.1535  0.3101
16268TIP3    H270220   2.091   4.989   0.901 -1.8688 -0.5958 -0.3480
16269TIP3   OH270221   2.754   1.263  12.155 -0.1922  0.1210 -0.6519
16269TIP3    H170222   2.664   1.271  12.184 -0.1278 -0.5212 -0.2418
16269TIP3    H270223   2.793   1.349  12.171 -0.4535  0.0979  0.1327
16270TIP3   OH270224   5.552   4.383  10.805 -0.3823  0.1980 -0.3540
16270TIP3    H170225   5.611   4.449  10.767 -0.8130  0.4826 -0.5315
16270TIP3    H270226   5.512   4.428  10.880 -0.4103  0.0187 -0.2620
16271TIP3   OH270227   6.569   0.653  13.857 -0.0102  0.0975 -0.1965
16271TIP3    H170228   6.507   0.643  13.929  1.1167  0.5586  0.8607
16271TIP3    H270229   6.538   0.592  13.790 -0.5465 -1.0220  1.0351
16272TIP3   OH270230   4.521   6.393  12.669 -0.5554  0.4602  0.2858
16272TIP3    H170231   4.498   6.448  12.594  1.7885  1.6820  0.3720
16272TIP3    H270232   4.531   6.305  12.631  0.7874  1.0934 -0.9225
16273TIP3   OH270233   3.494   0.729   1.434  0.1811 -0.0543 -0.3250
16273TIP3    H170234   3.586   0.723   1.408  0.0452  0.1529 -0.8625
16273TIP3    H270235   3.458   0.796   1.376  0.3453  1.8921  1.6811
16274TIP3   OH270236   1.575   6.569  13.449  0.3045  0.2746  0.1986
16274TIP3    H170237   1.628   6.554  13.370 -0.0280 -3.1561  0.4861
16274TIP3    H270238   1.503   6.507  13.442 -0.6495  1.0254  2.4540
16275TIP3   OH270239   3.292   5.050  12.163  0.0228  0.2665  0.5533
16275TIP3    H170240   3.273   5.075  12.073  0.2882  0.1914  0.4744
16275TIP3    H270241   3.210   5.062  12.209  0.1942  1.4895  0.5691
16276TIP3   OH270242   6.627   3.340  17.168  0.4017  0.0993  0.2883
16276TIP3    H170243   6.561   3.318  17.102  0.8027  0.0103 -0.0929
16276TIP3    H270244   6.578   3.351  17.249  0.0621 -1.2777  0.2934
16277TIP3   OH270245   1.950   1.039   1.653  0.1250  0.8192 -0.1098
16277TIP3    H170246   1.945   1.055   1.559  1.0570 -0.6393 -0.4387
16277TIP3    H270247   1.893   1.106   1.691  0.1552  1.7841 -1.6558
16278TIP3   OH270248   0.133   2.112  13.003  0.0481 -0.5914 -0.4333
16278TIP3    H170249   0.085   2.131  13.083  0.3314  2.6613 -0.8917
16278TIP3    H270250   0.096   2.030  12.971 -3.7038  0.5958  0.3707
16279TIP3   OH270251   5.512   2.758  14.092  0.5944  0.7141 -0.7156
16279TIP3    H170252   5.604   2.734  14.102  0.3421  0.4917  1.7541
16279TIP3    H270253   5.512   2.854  14.086  0.9305  0.8117  0.6062
16280TIP3   OH270254   1.088   0.649  16.558 -0.0954 -0.3310  0.3495
16280TIP3    H170255   1.051   0.737  16.547 -0.0552 -0.2436  0.8527
16280TIP3    H270256   1.026   0.591  16.515 -0.3125 -0.0912  0.3322
16281TIP3   OH270257   2.752   6.587  17.020 -0.0460  0.0497 -1.0422
16281TIP3    H170258   2.706   6.534  16.955  0.4912  0.6789 -1.9597
16281TIP3    H270259   2.744   6.677  16.989  1.3023  0.2343 -0.9475
16282TIP3   OH270260   5.504   5.202   3.694  0.6409  0.3355 -0.7116
16282TIP3    H170261   5.448   5.163   3.761  0.0559 -0.4286 -1.6047
16282TIP3    H270262   5.590   5.162   3.708  0.2139 -0.7808 -1.1861
16283TIP3   OH270263   0.407   3.837   1.983  0.3229 -0.5388  0.6487
16283TIP3    H170264   0.326   3.811   1.938  0.4917 -0.0131  0.0137
16283TIP3    H270265   0.475   3.829   1.916  1.3112 -3.4825  1.8299
16284TIP3   OH270266   1.209   5.706   2.154  0.6032  0.0660  0.7237
16284TIP3    H170267   1.229   5.654   2.232  0.7473 -0.5126  0.3084
16284TIP3    H270268   1.289   5.754   2.135  0.9688 -0.7199  0.2315
16285TIP3   OH270269   1.411   2.694   3.997  0.0367 -0.9913 -0.4995
16285TIP3    H170270   1.466   2.771   4.014 -0.0638 -1.1636  0.7042
16285TIP3    H270271   1.326   2.731   3.974 -0.3106 -0.7163  1.1149
16286TIP3   OH270272   2.319   2.525   4.809 -0.1601 -0.5166 -0.4420
16286TIP3    H170273   2.237   2.476   4.794 -1.0408  0.8552 -0.2320
16286TIP3    H270274   2.371   2.467   4.865 -0.9841 -1.4148 -0.5715
16287TIP3   OH270275   1.511   1.537   2.337 -0.0151  0.3359  0.0229
16287TIP3    H170276   1.525   1.570   2.248 -0.4389  0.3670 -0.0331
16287TIP3    H270277   1.545   1.448   2.334  1.5061  0.8729  0.2833
16288TIP3   OH270278   5.846   4.277   3.858  0.0633  0.1512 -0.3569
16288TIP3    H170279   5.931   4.319   3.874  1.7115 -2.0170 -2.5595
16288TIP3    H270280   5.852   4.194   3.905 -1.7912  0.8050  1.1805
16289TIP3   OH270281   1.088   2.651  12.457  0.1163 -0.4581 -0.1729
16289TIP3    H170282   1.176   2.679  12.484  0.0153  1.0207 -1.2588
16289TIP3    H270283   1.097   2.632  12.363 -0.9195  0.6528 -0.5141
16290TIP3   OH270284   6.209   4.931  11.847  0.0487 -0.1460  0.0518
16290TIP3    H170285   6.150   4.981  11.791 -0.3213 -0.1280  0.4540
16290TIP3    H270286   6.152   4.884  11.907  0.4660  1.1559  1.5457
16291TIP3   OH270287   2.220   3.291  15.575 -0.3457 -0.1824 -0.1752
16291TIP3    H170288   2.159   3.229  15.614  0.4495 -0.3240  0.9100
16291TIP3    H270289   2.267   3.240  15.509  0.2712 -0.7646  0.6780
16292TIP3   OH270290   4.976   4.462  14.413 -0.0822 -0.2487 -0.1760
16292TIP3    H170291   4.940   4.519  14.345  1.7364  1.3430  0.1069
16292TIP3    H270292   4.996   4.521  14.486 -2.6146 -1.9682  2.1309
16293TIP3   OH270293   3.511   3.979   2.186 -0.2039 -0.4228 -0.0643
16293TIP3    H170294   3.574   3.996   2.116  0.4728 -0.4267  0.5320
16293TIP3    H270295   3.518   4.055   2.244  0.1448 -0.9908  0.6523
16294TIP3   OH270296   1.425   0.906   0.710  0.4686  0.3798 -0.9743
16294TIP3    H170297   1.393   0.857   0.786  1.6340  0.7920 -0.1866
16294TIP3    H270298   1.459   0.839   0.651  1.8069  0.1822 -0.0244
16295TIP3   OH270299   0.800   0.228  13.604 -0.0750 -0.0406 -0.1183
16295TIP3    H170300   0.829   0.192  13.520  0.7522  0.1357  0.0824
16295TIP3    H270301   0.870   0.207  13.665 -0.9352 -0.6928  0.6811
16296TIP3   OH270302   6.676   1.497  11.415  0.4654 -0.2624 -0.3260
16296TIP3    H170303   6.616   1.553  11.365  1.3924  1.5357  0.4797
16296TIP3    H270304   6.641   1.498  11.504  1.3477  0.3148  0.0239
16297TIP3   OH270305   2.965   4.318   4.512  0.1786  0.5399  0.1178
16297TIP3    H170306   2.998   4.381   4.577 -1.4894  0.0604  1.5135
16297TIP3    H270307   2.877   4.297   4.542  0.0841 -1.2245 -1.2359
16298TIP3   OH270308   5.731   1.640   6.105  0.0653  0.5053 -0.0163
16298TIP3    H170309   5.674   1.656   6.029  1.6443  0.2909 -1.3062
16298TIP3    H270310   5.706   1.552   6.135 -0.1009  0.2958 -0.7388
16299TIP3   OH270311   1.824   5.848   0.314 -0.4185  0.1624  0.1367
16299TIP3    H170312   1.840   5.927   0.263  0.4621  2.1901  3.2340
16299TIP3    H270313   1.729   5.843   0.321 -0.5353  0.0941 -1.2636
16300TIP3   OH270314   0.791   4.139   5.577  0.2598  0.2727 -0.3065
16300TIP3    H170315   0.846   4.163   5.651  0.5095  1.1917 -0.7856
16300TIP3    H270316   0.843   4.159   5.500 -0.3495  0.1921 -0.7504
16301TIP3   OH270317   3.557   4.161  15.284 -0.0426 -0.4019  0.1026
16301TIP3    H170318   3.529   4.249  15.308  0.5181  0.0426 -0.8086
16301TIP3    H270319   3.477   4.108  15.286 -0.6811  0.4837 -0.8941
16302TIP3   OH270320   1.610   3.297   5.366  0.2008 -0.3158 -0.3786
16302TIP3    H170321   1.609   3.331   5.277  1.2744  1.0100  0.0803
16302TIP3    H270322   1.526   3.323   5.403 -0.4906 -1.3679 -1.1505
16303TIP3   OH270323   2.668   5.829   4.873  1.0632  0.4822 -0.5088
16303TIP3    H170324   2.606   5.762   4.844 -0.2418  1.1076  0.7544
16303TIP3    H270325   2.645   5.906   4.821  0.5533  0.8038  0.1809
16304TIP3   OH270326   1.759   4.413   0.359 -0.2876  0.3355 -0.4081
16304TIP3    H170327   1.827   4.408   0.426  0.7181  1.1711 -1.3271
16304TIP3    H270328   1.752   4.506   0.339 -2.3235  0.3722  0.2431
16305TIP3   OH270329   6.734   3.517  15.986  0.0168 -0.0086  0.4516
16305TIP3    H170330   6.640   3.514  15.967 -0.4693  0.2861  2.5791
16305TIP3    H270331   6.752   3.434  16.032  0.8148 -0.0653  0.0623
16306TIP3   OH270332   3.719   3.501  16.305 -0.3133 -0.1049  0.0250
16306TIP3    H170333   3.754   3.422  16.347 -0.1423 -1.2218 -2.0520
16306TIP3    H270334   3.773   3.572  16.338  1.0851 -1.2012  0.1757
16307TIP3   OH270335   0.827   1.904   2.911  0.1851 -0.2871  0.6209
16307TIP3    H170336   0.878   1.925   2.989  1.8883  0.2329 -0.5758
16307TIP3    H270337   0.810   1.988   2.870 -0.3672 -0.5873  0.2230
16308TIP3   OH270338   2.968   1.754   5.709  0.3402  0.3252 -0.2347
16308TIP3    H170339   2.949   1.740   5.801 -0.0182 -0.9079 -0.4709
16308TIP3    H270340   2.909   1.825   5.683  1.1634  1.3688  0.7031
16309TIP3   OH270341   2.718   6.761   5.187 -0.1453 -0.0992  0.6887
16309TIP3    H170342   2.755   6.732   5.271  1.2292 -4.2890 -1.0764
16309TIP3    H270343   2.627   6.730   5.189  0.2265 -1.2775  0.2618
16310TIP3   OH270344   2.345   3.387  12.235 -0.6886 -0.2588 -0.8413
16310TIP3    H170345   2.251   3.400  12.238 -0.8240 -1.2706 -0.2838
16310TIP3    H270346   2.369   3.404  12.144 -1.1299  1.6974 -0.6261
16311TIP3   OH270347   0.283   2.308   4.957 -0.0171 -0.0100 -0.1090
16311TIP3    H170348   0.367   2.318   5.002 -0.6270  1.2855  0.7918
16311TIP3    H270349   0.217   2.320   5.025 -0.9476 -0.7554 -0.8475
16312TIP3   OH270350   5.910   1.928   2.632 -0.6854  0.0695  0.1624
16312TIP3    H170351   5.834   1.944   2.577 -0.0458 -0.8573 -1.0575
16312TIP3    H270352   5.958   2.011   2.630 -0.7257  0.0861 -0.6171
16313TIP3   OH270353   6.714   5.779  12.737  0.7932 -0.6577 -0.5426
16313TIP3    H170354   6.693   5.773  12.643 -0.8935  0.5234 -0.2854
16313TIP3    H270355   6.629   5.778  12.780  1.1801  3.4199  0.6886
16314TIP3   OH270356   5.884   2.826  11.768 -0.1041  0.2178 -0.4847
16314TIP3    H170357   5.837   2.815  11.851 -1.1550 -0.5335 -1.1633
16314TIP3    H270358   5.825   2.879  11.714 -0.9185 -1.9715 -1.8791
16315TIP3   OH270359   5.070   4.037  14.912 -0.0592 -0.4256  0.3535
16315TIP3    H170360   5.034   4.069  14.995  1.2221 -0.7082  1.0413
16315TIP3    H270361   5.163   4.056  14.917  0.3994 -2.3479 -0.1200
16316TIP3   OH270362   3.800   1.874   0.105 -0.0316  0.2360 -0.3723
16316TIP3    H170363   3.830   1.794   0.062  2.4612  0.5673  0.5751
16316TIP3    H270364   3.862   1.941   0.077 -0.9630  1.4239  0.2999
16317TIP3   OH270365   0.487   3.713  14.299 -0.1901  0.4578  0.4746
16317TIP3    H170366   0.568   3.668  14.325  0.3348  1.6305  0.9125
16317TIP3    H270367   0.502   3.805  14.320 -0.7966  1.0527 -1.4717
16318TIP3   OH270368   4.312   6.567  16.030  0.2242  0.4889 -0.0517
16318TIP3    H170369   4.353   6.594  16.112  0.8202  0.5042 -0.3486
16318TIP3    H270370   4.384   6.562  15.967 -0.4310  2.1129 -1.0079
16319TIP3   OH270371   5.101   4.923   6.099 -0.8563  0.3898  0.0571
16319TIP3    H170372   5.045   4.951   6.173 -1.0773  0.2653 -0.0625
16319TIP3    H270373   5.189   4.919   6.136 -1.0196 -0.0190  0.4076
16320TIP3   OH270374   0.529   5.642   2.524 -0.2515  0.0584  0.5069
16320TIP3    H170375   0.463   5.623   2.590 -0.2335 -2.3026 -0.0479
16320TIP3    H270376   0.482   5.689   2.456 -0.7440  0.6643  1.2503
16321TIP3   OH270377   2.054   0.909  13.229 -0.5456  0.4286 -0.1262
16321TIP3    H170378   2.087   0.959  13.154 -0.5772  0.2144 -0.2855
16321TIP3    H270379   2.124   0.913  13.294 -0.4928  0.5661 -0.1912
16322TIP3   OH270380   5.704   2.988   4.567 -0.1207  0.4315 -0.0762
16322TIP3    H170381   5.703   2.999   4.472  0.9189 -2.3504 -0.5250
16322TIP3    H270382   5.793   2.957   4.586 -0.3908  0.6923  1.7727
16323TIP3   OH270383   4.321   4.909  14.795 -0.0673  0.6715 -0.0790
16323TIP3    H170384   4.414   4.931  14.789 -0.0132  1.0820  1.5794
16323TIP3    H270385   4.316   4.817  14.771  0.4655  1.1190 -2.0820
16324TIP3   OH270386   5.709   2.328  12.926  0.2015 -0.4115 -0.1908
16324TIP3    H170387   5.614   2.343  12.921  0.2262  0.0407  0.5186
16324TIP3    H270388   5.721   2.279  13.007  0.5062 -1.0944 -0.6462
16325TIP3   OH270389   0.073   1.417  12.908 -0.8292  0.2037  0.0156
16325TIP3    H170390   0.017   1.340  12.904 -1.6007  0.7587 -0.2073
16325TIP3    H270391   0.102   1.422  12.999 -1.1618 -0.0892  0.1388
16326TIP3   OH270392   6.086   4.208  12.485  0.6802 -0.0052 -0.6326
16326TIP3    H170393   6.108   4.300  12.470  0.3046  0.9022  3.2260
16326TIP3    H270394   5.991   4.209  12.499  0.6587 -0.9948 -0.7034
16327TIP3   OH270395   0.968   2.598  16.005 -0.7453  0.7116  0.2800
16327TIP3    H170396   0.976   2.503  16.015 -1.9334  0.5825  0.1411
16327TIP3    H270397   0.875   2.613  15.990 -0.2696  1.6697 -2.2550
16328TIP3   OH270398   2.745   2.642   1.226  0.3934 -0.1157 -0.0810
16328TIP3    H170399   2.783   2.633   1.313  0.2720 -0.0396 -0.0195
16328TIP3    H270400   2.811   2.690   1.175 -0.3999  1.7578  0.5542
16329TIP3   OH270401   3.928   5.664  16.425  0.3910  0.5120  0.0778
16329TIP3    H170402   4.017   5.690  16.404  0.3468 -0.8503 -2.1722
16329TIP3    H270403   3.877   5.690  16.348 -1.3155  1.8599  1.5802
16330TIP3   OH270404   6.740   2.648  12.899 -0.2513 -0.1144  0.1364
16330TIP3    H170405   6.679   2.689  12.959  0.7356  0.6543  0.6312
16330TIP3    H270406   6.784   2.720  12.854 -0.4610 -0.6619 -1.0110
16331TIP3   OH270407   3.407   3.857   2.666 -0.1350 -0.4501 -0.5789
16331TIP3    H170408   3.405   3.878   2.759  0.3584  0.9540 -0.8651
16331TIP3    H270409   3.343   3.786   2.656 -4.0412  2.6207  0.0976
16332TIP3   OH270410   1.908   4.682  11.494 -0.2616  0.6653  0.6132
16332TIP3    H170411   1.966   4.609  11.516 -0.4510 -0.0953 -1.2255
16332TIP3    H270412   1.958   4.735  11.432 -1.7185 -0.4679 -1.6777
16333TIP3   OH270413   5.762   4.738  12.063 -0.4100 -0.0326 -0.1402
16333TIP3    H170414   5.853   4.756  12.041 -0.0386 -1.5703  0.0139
16333TIP3    H270415   5.752   4.771  12.152  0.5590 -1.5502  0.5586
16334TIP3   OH270416   6.271   6.006   0.936  0.3805 -0.3943 -0.5090
16334TIP3    H170417   6.288   6.100   0.926  0.3947 -0.2116  1.0609
16334TIP3    H270418   6.332   5.977   1.003  0.3621 -1.5444 -0.9560
16335TIP3   OH270419   0.100   6.675   4.258  0.0968 -0.3225 -0.1306
16335TIP3    H170420   0.185   6.698   4.296  0.3150 -0.2254 -0.6657
16335TIP3    H270421   0.096   6.727   4.178 -1.0157  0.6362  0.5156
16336TIP3   OH270422   5.149   1.631   1.172 -0.4524  0.4044 -0.1257
16336TIP3    H170423   5.164   1.717   1.132 -1.7568  0.6506 -0.1265
16336TIP3    H270424   5.071   1.643   1.226  0.0272 -0.4895  0.7947
16337TIP3   OH270425   2.777   6.227  17.120 -0.5960  0.4106  0.5523
16337TIP3    H170426   2.871   6.211  17.119 -0.4352  0.6286  3.8841
16337TIP3    H270427   2.758   6.260  17.032  2.3686  0.1650 -0.2857
16338TIP3   OH270428   1.229   5.908  15.932  0.2020  0.1618  0.0323
16338TIP3    H170429   1.134   5.913  15.944  0.0884  1.5495 -1.1127
16338TIP3    H270430   1.245   5.819  15.901 -0.4235 -0.7896  2.2281
16339TIP3   OH270431   4.932   1.144  15.932  0.3035  0.1510 -0.3539
16339TIP3    H170432   4.866   1.137  16.000  0.5557  1.8902  0.1044
16339TIP3    H270433   4.884   1.132  15.850 -0.1545 -0.9488  0.0490
16340TIP3   OH270434   3.360   5.495   0.359 -0.1764 -0.4600 -0.0631
16340TIP3    H170435   3.287   5.448   0.398 -0.3243 -1.2426 -1.2518
16340TIP3    H270436   3.437   5.440   0.377  0.0195 -0.0175  0.5101
16341TIP3   OH270437   5.006   4.504   6.154  0.4723 -0.4632  0.0176
16341TIP3    H170438   5.053   4.421   6.153  0.7016 -0.3574  1.2245
16341TIP3    H270439   5.059   4.562   6.209 -0.4479  0.0232  0.4193
16342TIP3   OH270440   4.791   0.821   6.089 -0.6493 -0.0399 -0.5536
16342TIP3    H170441   4.826   0.750   6.144  0.3362  0.6233 -0.2818
16342TIP3    H270442   4.834   0.809   6.005  0.2821  0.7656 -0.2257
16343TIP3   OH270443   6.692   5.974   2.841  0.0741 -0.2675 -0.3847
16343TIP3    H170444   6.774   6.013   2.872  0.0119 -1.8321  2.0439
16343TIP3    H270445   6.718   5.889   2.806 -0.0677  0.8948 -3.5466
16344TIP3   OH270446   2.896   2.705  11.851  0.7891 -0.2106  0.2648
16344TIP3    H170447   2.898   2.799  11.869  0.2606 -0.4254  1.5493
16344TIP3    H270448   2.913   2.698  11.757  2.0566  1.0874  0.3669
16345TIP3   OH270449   4.462   1.184   3.604  0.1100 -0.4063 -0.4224
16345TIP3    H170450   4.370   1.191   3.582 -0.0108  1.6238  0.5495
16345TIP3    H270451   4.464   1.132   3.685 -0.1429 -0.6583 -0.5771
16346TIP3   OH270452   4.544   4.786   4.935  0.6376 -0.2579  0.0729
16346TIP3    H170453   4.525   4.777   4.841  0.0453  1.2957  0.0213
16346TIP3    H270454   4.614   4.722   4.951 -0.2375 -1.5735 -1.1061
16347TIP3   OH270455   2.712   0.417   4.493 -0.5924 -0.3020  0.4659
16347TIP3    H170456   2.766   0.483   4.536 -1.0300  0.2641  0.1658
16347TIP3    H270457   2.712   0.342   4.554 -0.1660  0.0078  0.8512
16348TIP3   OH270458   2.489   2.905  14.754 -0.1279 -0.0389  0.0664
16348TIP3    H170459   2.417   2.915  14.691  0.1808  1.2452 -0.1087
16348TIP3    H270460   2.562   2.873  14.702  0.1005  0.9340 -0.2292
16349TIP3   OH270461   3.299   3.916   2.024  0.2135  0.0192 -0.0282
16349TIP3    H170462   3.361   3.924   2.096  0.1222  0.9454 -0.0384
16349TIP3    H270463   3.353   3.901   1.946  0.4674  1.2039 -0.0982
16350TIP3   OH270464   4.354   2.815  16.074  0.1451  0.2235 -0.6302
16350TIP3    H170465   4.260   2.805  16.056  0.3142 -0.6958 -1.0730
16350TIP3    H270466   4.364   2.907  16.095 -0.8536  0.3512 -0.6415
16351TIP3   OH270467   4.134   4.953  14.499 -0.2376  0.2943  0.0072
16351TIP3    H170468   4.136   4.963  14.594 -0.0351 -0.0022  0.0342
16351TIP3    H270469   4.043   4.931  14.479 -0.2220  0.0949  0.1555
16352TIP3   OH270470   3.297   1.040  15.379 -0.4915 -0.6053  0.7300
16352TIP3    H170471   3.331   1.063  15.465  0.7990 -2.3327  0.7451
16352TIP3    H270472   3.213   1.086  15.373 -0.1116  0.4060  2.4481
16353TIP3   OH270473   0.040   4.978   3.538  0.3248  0.1326 -0.2786
16353TIP3    H170474  -0.030   5.039   3.561 -0.4236  0.0848 -2.2364
16353TIP3    H270475   0.114   5.034   3.513  0.8833  0.1822  1.3661
16354TIP3   OH270476   0.618   4.499   2.593 -0.0866 -0.1099  0.4119
16354TIP3    H170477   0.629   4.408   2.620  0.5744 -0.0366  0.4060
16354TIP3    H270478   0.707   4.533   2.586 -0.3477  1.0810  2.2645
16355TIP3   OH270479   1.810   1.827  17.284  0.0276  0.3944 -0.2794
16355TIP3    H170480   1.854   1.912  17.292 -1.9878  1.5793 -0.7853
16355TIP3    H270481   1.726   1.841  17.328 -1.1208 -0.7312 -2.0114
16356TIP3   OH270482   0.343   3.358   2.981 -0.2803 -0.0350 -0.3222
16356TIP3    H170483   0.265   3.327   3.027  0.5071 -0.1660  0.9688
16356TIP3    H270484   0.383   3.278   2.945 -0.4145 -0.0351 -0.4734
16357TIP3   OH270485   4.761   5.661   0.911 -0.1759  0.2274 -0.2460
16357TIP3    H170486   4.721   5.740   0.875  0.3332  1.5257  1.8556
16357TIP3    H270487   4.855   5.674   0.898  0.0996  1.1769  2.2367
16358TIP3   OH270488   1.110   5.262  15.647 -0.1022  0.2343 -0.3978
16358TIP3    H170489   1.062   5.329  15.696  0.7247  0.1450  0.5528
16358TIP3    H270490   1.042   5.200  15.619 -0.3139 -1.8619  3.9577
16359TIP3   OH270491   1.777   0.353  12.438 -0.0987 -0.1344 -0.1496
16359TIP3    H170492   1.871   0.369  12.438 -0.1062 -0.0786 -0.8200
16359TIP3    H270493   1.768   0.259  12.424 -0.1715  0.1187 -1.9674
16360TIP3   OH270494   3.038   5.927   3.047 -0.1494  0.8675  0.0997
16360TIP3    H170495   2.968   5.865   3.028 -0.6227  1.6305 -0.7263
16360TIP3    H270496   3.067   5.958   2.961 -0.1277  2.0052  0.4911
16361TIP3   OH270497   6.108   6.096   4.669  0.0577 -0.0285 -0.0439
16361TIP3    H170498   6.160   6.038   4.614  1.7548 -1.0100  2.4444
16361TIP3    H270499   6.069   6.039   4.735  1.9515  1.5484  2.6194
16362TIP3   OH270500   0.855   0.689  10.939  0.2158 -0.0193 -0.0167
16362TIP3    H170501   0.950   0.689  10.926  0.2763  1.2578  0.2793
16362TIP3    H270502   0.820   0.639  10.865  0.9391  1.8486 -1.7021
16363TIP3   OH270503   2.311   5.988   1.361 -0.3347  0.3582 -0.3604
16363TIP3    H170504   2.244   6.036   1.313  0.2805  0.2698 -1.3217
16363TIP3    H270505   2.311   6.029   1.448 -1.9903  0.0114 -0.1462
16364TIP3   OH270506   1.850   2.305   5.150  0.0513 -0.0528  0.0835
16364TIP3    H170507   1.904   2.275   5.077 -1.9501  0.6429 -1.7902
16364TIP3    H270508   1.766   2.327   5.110 -1.3554 -0.2300  2.7203
16365TIP3   OH270509   3.727   1.827   1.721 -0.1646 -0.2859  0.1448
16365TIP3    H170510   3.667   1.755   1.739 -1.2752  0.7355  0.6364
16365TIP3    H270511   3.763   1.807   1.634  0.1062 -1.7914  0.5783
16366TIP3   OH270512   0.861   5.368   6.459  0.0331  0.1081  0.4255
16366TIP3    H170513   0.940   5.403   6.418 -0.4927  0.1490 -0.5941
16366TIP3    H270514   0.888   5.285   6.498  0.4080 -0.2496 -0.5828
16367TIP3   OH270515   5.836   0.749   3.110  0.3693 -0.7461  0.2050
16367TIP3    H170516   5.835   0.844   3.123  1.5682 -0.5552 -0.9448
16367TIP3    H270517   5.746   0.722   3.129 -0.4582  0.8781 -1.1637
16368TIP3   OH270518   5.837   5.093  11.125 -0.3444  0.0184  0.1022
16368TIP3    H170519   5.769   5.089  11.057 -2.0067  0.0844  1.6793
16368TIP3    H270520   5.902   5.154  11.089 -2.0317  1.4435 -0.7439
16369TIP3   OH270521   5.678   3.311  13.809  0.2098 -0.4155 -0.0150
16369TIP3    H170522   5.763   3.276  13.834  1.3773  1.3868 -1.2418
16369TIP3    H270523   5.653   3.259  13.732  0.4232 -0.6414  0.0660
16370TIP3   OH270524   2.051   3.584  16.928 -1.0437 -0.2061 -0.3372
16370TIP3    H170525   2.035   3.631  16.846 -1.0778  0.1998 -0.1032
16370TIP3    H270526   1.968   3.542  16.949 -0.8020 -1.0217 -0.9480
16371TIP3   OH270527   2.569   6.472  15.811  0.6217 -0.2686  0.3903
16371TIP3    H170528   2.486   6.428  15.828 -0.5804  1.4359 -0.6976
16371TIP3    H270529   2.602   6.429  15.731  0.2509 -0.2567  0.2257
16372TIP3   OH270530   5.978   5.052  11.726  0.1817 -0.1115 -0.2326
16372TIP3    H170531   6.013   5.028  11.641 -0.6782  2.0407 -1.2552
16372TIP3    H270532   5.918   4.980  11.748 -0.1055 -0.3750 -1.7632
16373TIP3   OH270533   3.287   5.261  11.557 -0.1024  0.0768 -0.5813
16373TIP3    H170534   3.256   5.271  11.646 -0.0255  0.3263 -0.5812
16373TIP3    H270535   3.237   5.325  11.506 -0.9611 -0.8319 -0.9265
16374TIP3   OH270536   1.788   4.409   2.542  0.5632 -0.4917  0.1911
16374TIP3    H170537   1.701   4.412   2.582  0.4041 -2.3964  0.0978
16374TIP3    H270538   1.804   4.498   2.511 -0.9973  0.0821  0.9444
16375TIP3   OH270539   6.676   4.546   4.578 -0.6970  0.4930 -0.0291
16375TIP3    H170540   6.766   4.515   4.573 -0.4773  0.3658  2.9173
16375TIP3    H270541   6.684   4.641   4.590 -0.9152  0.4356  0.6114
16376TIP3   OH270542   2.997   5.474  15.496 -0.1350  0.2464 -0.3471
16376TIP3    H170543   2.937   5.484  15.422  0.5257 -1.5458 -1.1856
16376TIP3    H270544   3.048   5.395  15.475 -0.5220 -0.8367  2.4458
16377TIP3   OH270545   6.267   2.445  12.582 -0.5039 -0.0059 -0.1157
16377TIP3    H170546   6.312   2.382  12.638 -2.2330 -0.6004  0.6825
16377TIP3    H270547   6.239   2.394  12.506 -2.4086 -0.4182  0.7943
16378TIP3   OH270548   4.260   5.199   5.683  0.0301  0.2477  0.2854
16378TIP3    H170549   4.248   5.172   5.774  0.6609  1.2124  0.6686
16378TIP3    H270550   4.197   5.270   5.671 -0.5680 -0.3520 -0.2703
16379TIP3   OH270551   4.263   3.693  12.585 -0.4346  1.1319  0.0261
16379TIP3    H170552   4.255   3.631  12.657 -0.9069  0.3250 -0.6869
16379TIP3    H270553   4.175   3.731  12.577 -1.2635 -0.9544 -1.9542
16380TIP3   OH270554   5.430   1.210   2.268 -0.9071 -0.2048 -0.0479
16380TIP3    H170555   5.361   1.213   2.335  0.2617 -2.2714  1.3421
16380TIP3    H270556   5.436   1.118   2.244  0.0808  0.2217 -1.5615
16381TIP3   OH270557   5.777   4.089  11.471  0.5747  0.7364  0.1160
16381TIP3    H170558   5.825   4.172  11.467  0.0575  1.0905  1.0817
16381TIP3    H270559   5.691   4.109  11.433  0.9554  0.2483 -1.0614
16382TIP3   OH270560   2.574   0.820   3.690  0.4861  0.4323  0.3162
16382TIP3    H170561   2.482   0.832   3.713 -0.0502  1.8534 -2.2617
16382TIP3    H270562   2.613   0.907   3.701  1.9439 -0.3877  2.6297
16383TIP3   OH270563   4.553   0.288   4.470 -0.3607  0.2054 -0.3425
16383TIP3    H170564   4.589   0.260   4.554 -0.7294 -0.5159 -0.4188
16383TIP3    H270565   4.471   0.332   4.492 -0.4440  0.0396 -0.3227
16384TIP3   OH270566   4.700   6.557  13.250  0.4657 -0.2978  0.1857
16384TIP3    H170567   4.775   6.540  13.194  0.1884 -1.2600  0.0753
16384TIP3    H270568   4.732   6.616  13.317  1.3208 -0.6823  0.1263
16385TIP3   OH270569   0.013   0.383   0.622 -0.2133 -0.4191  0.3565
16385TIP3    H170570   0.083   0.431   0.578 -0.0635 -1.5774 -0.7198
16385TIP3    H270571   0.052   0.354   0.705 -0.6103  2.0877  1.4996
16386TIP3   OH270572   3.379   5.608   5.996 -0.2035 -0.2535 -0.6174
16386TIP3    H170573   3.403   5.683   6.051 -1.0177  0.3083 -1.0110
16386TIP3    H270574   3.301   5.571   6.037 -1.7552  1.0987 -2.1826
16387TIP3   OH270575   4.916   4.855  13.897 -0.0376  0.2153 -0.1423
16387TIP3    H170576   4.935   4.949  13.894  0.0724  0.2211  0.4674
16387TIP3    H270577   4.851   4.841  13.828 -1.1759  1.0098  0.7261
16388TIP3   OH270578   6.738   4.091   2.035 -0.1663  0.2273 -0.0590
16388TIP3    H170579   6.820   4.139   2.030 -0.0840  0.3185  1.6022
16388TIP3    H270580   6.764   4.000   2.045 -0.2608  0.2896  0.7688
16389TIP3   OH270581   6.193   4.422   4.840  0.3594 -0.2156 -0.1218
16389TIP3    H170582   6.100   4.398   4.831  0.6693 -0.8645 -1.9680
16389TIP3    H270583   6.211   4.475   4.762  0.8126  2.5036  1.6878
16390TIP3   OH270584   5.540   4.165   3.265  0.0756 -0.3398 -0.5704
16390TIP3    H170585   5.630   4.166   3.233 -0.4014 -0.7395 -1.9852
16390TIP3    H270586   5.499   4.242   3.226 -0.1025  0.0716  0.4006
16391TIP3   OH270587   6.672   6.546  15.326  0.1581 -0.3975  0.5094
16391TIP3    H170588   6.731   6.491  15.273  0.6306  2.1679 -1.8737
16391TIP3    H270589   6.721   6.561  15.407  0.9923 -1.6080  0.2711
16392TIP3   OH270590   1.676   5.161  14.611  0.0012  0.3311  0.3606
16392TIP3    H170591   1.594   5.135  14.570  0.8596  0.7322 -1.7146
16392TIP3    H270592   1.676   5.256  14.606 -0.7090  0.5758  3.1136
16393TIP3   OH270593   1.155   4.059   6.122 -0.2259 -0.0534 -0.2432
16393TIP3    H170594   1.137   4.120   6.193 -1.6799 -1.6562  0.8726
16393TIP3    H270595   1.194   4.112   6.053  0.0144  1.8055  1.2505
16394TIP3   OH270596   2.261   2.654  12.362 -0.3869  0.1564  0.6101
16394TIP3    H170597   2.265   2.680  12.270 -1.0204 -0.0913  0.5049
16394TIP3    H270598   2.260   2.737  12.410 -0.1573  0.2885  0.3859
16395TIP3   OH270599   2.051   4.807  15.651  0.5250  0.2526 -0.0362
16395TIP3    H170600   2.106   4.816  15.573  1.6531  0.0086  0.7242
16395TIP3    H270601   2.057   4.892  15.694 -0.8825  0.7211 -0.6913
16396TIP3   OH270602   3.105   6.724   1.549  0.2206 -1.0952  0.1388
16396TIP3    H170603   3.086   6.724   1.643  1.2148  0.1442  0.3554
16396TIP3    H270604   3.198   6.703   1.543  0.5253  0.3062 -0.4639
16397TIP3   OH270605   4.462   2.885   6.616 -0.4472 -0.5905  0.2751
16397TIP3    H170606   4.497   2.824   6.681  0.7242  0.3600  0.5703
16397TIP3    H270607   4.485   2.972   6.650  0.5557 -0.0698 -1.5769
16398TIP3   OH270608   0.427   4.217   3.459 -0.0405 -0.1025  0.4032
16398TIP3    H170609   0.408   4.209   3.553 -0.1914  1.0151  0.4836
16398TIP3    H270610   0.389   4.301   3.434 -2.0973 -1.3939 -1.2014
16399TIP3   OH270611   1.956   4.464  16.186 -0.1473  0.1588  0.2809
16399TIP3    H170612   1.966   4.369  16.179 -3.1466 -0.1757 -1.1673
16399TIP3    H270613   2.046   4.497  16.191  1.2304 -2.5531 -2.6091
16400TIP3   OH270614   0.409   2.835  16.366  0.1938  0.3486 -0.4542
16400TIP3    H170615   0.420   2.921  16.405 -0.6277  0.8914 -1.3693
16400TIP3    H270616   0.316   2.816  16.376  0.6763 -1.3446  1.5188
16401TIP3   OH270617   4.180   1.995  14.125 -0.0809  0.1720  0.3057
16401TIP3    H170618   4.129   1.988  14.205 -1.4224  0.4025 -0.4931
16401TIP3    H270619   4.135   2.062  14.074  1.1704  0.5500 -0.3453
16402TIP3   OH270620   5.934   2.962   6.083  0.0706  0.2096 -0.3271
16402TIP3    H170621   5.956   3.034   6.024  0.5442 -1.2385 -2.0096
16402TIP3    H270622   5.920   3.003   6.168  1.2629  2.1568 -1.0281
16403TIP3   OH270623   1.324   6.665  15.508 -0.5972 -0.1436 -1.0005
16403TIP3    H170624   1.414   6.692  15.528 -0.8550 -0.1182  0.1831
16403TIP3    H270625   1.334   6.593  15.445  0.4695 -2.4988  1.6226
16404TIP3   OH270626   4.602   0.314  15.676 -0.4965  0.1895  0.3712
16404TIP3    H170627   4.567   0.265  15.601 -1.7955 -0.5146  1.3869
16404TIP3    H270628   4.666   0.256  15.715 -0.8793 -0.0571  0.6417
16405TIP3   OH270629   4.953   0.645  14.129 -0.4498 -0.6742 -0.2323
16405TIP3    H170630   5.035   0.611  14.165  1.0674  1.4185 -1.5040
16405TIP3    H270631   4.956   0.623  14.036 -1.6097 -1.0643 -0.1872
16406TIP3   OH270632   0.535   5.694   4.633  0.5669  0.0977 -0.6697
16406TIP3    H170633   0.630   5.694   4.618  0.7380  0.4747  0.3103
16406TIP3    H270634   0.515   5.784   4.659  0.2122 -0.3424  0.6408
16407TIP3   OH270635   6.627   2.561   2.149 -0.6086 -0.5789 -0.0292
16407TIP3    H170636   6.565   2.625   2.113  0.3945  0.5145  0.1303
16407TIP3    H270637   6.579   2.478   2.147 -2.0509  0.2135  0.0202
16408TIP3   OH270638   2.502   5.134   2.608  0.6227  0.1950  0.2652
16408TIP3    H170639   2.567   5.069   2.631  0.2342 -1.7023 -3.3378
16408TIP3    H270640   2.419   5.087   2.611  0.1139  0.9938 -0.7083
16409TIP3   OH270641   6.467   5.736  11.686 -0.7185 -0.1403 -0.6361
16409TIP3    H170642   6.480   5.648  11.722  1.2957  0.2524 -0.2867
16409TIP3    H270643   6.448   5.722  11.593  2.2871 -0.9331 -1.2363
16410TIP3   OH270644   0.319   5.182   1.292 -0.1359 -0.3496  0.2918
16410TIP3    H170645   0.296   5.185   1.200  0.2597  1.1229  0.2109
16410TIP3    H270646   0.343   5.272   1.314  3.0940 -1.2167  0.9461
16411TIP3   OH270647   4.918   6.349  16.844 -0.2207  0.3349 -0.0693
16411TIP3    H170648   4.964   6.311  16.919 -1.1276 -0.9068 -0.1132
16411TIP3    H270649   4.896   6.438  16.872  0.4289  0.2657  0.7033
16412TIP3   OH270650   0.022   0.614  12.501  0.0663 -0.0477  0.0019
16412TIP3    H170651  -0.015   0.702  12.511  0.3350  0.2656 -1.4548
16412TIP3    H270652   0.097   0.613  12.561  0.9712  1.2850 -1.0375
16413TIP3   OH270653   5.276   6.522   1.762 -0.4016 -0.2818  0.3578
16413TIP3    H170654   5.189   6.491   1.790 -0.2369  0.2467  1.5078
16413TIP3    H270655   5.337   6.465   1.808 -0.1215 -0.2294  0.0566
16414TIP3   OH270656   0.107   2.286   2.849 -0.2820 -0.8483  0.2109
16414TIP3    H170657   0.014   2.285   2.827 -0.3385  0.5615  0.3022
16414TIP3    H270658   0.113   2.237   2.931 -0.5245 -3.2792 -1.1271
16415TIP3   OH270659   2.675   6.261   3.433 -0.1370 -0.0522 -0.1896
16415TIP3    H170660   2.749   6.314   3.464 -0.7649 -0.0890  1.4980
16415TIP3    H270661   2.678   6.182   3.488 -1.8968  0.3205  0.4825
16416TIP3   OH270662   3.289   6.229   3.254  0.0356  0.1747 -0.0351
16416TIP3    H170663   3.321   6.319   3.257  2.5128 -0.6463  1.1320
16416TIP3    H270664   3.196   6.237   3.234 -0.1961  3.0716  1.5947
16417TIP3   OH270665   0.126   0.794  13.300  0.3633  0.4512  0.0388
16417TIP3    H170666   0.184   0.732  13.344 -0.6051 -0.5682 -0.0466
16417TIP3    H270667   0.151   0.789  13.208 -0.8820 -1.2386 -0.2609
16418TIP3   OH270668   4.719   2.902  16.644  0.8344 -0.2600  1.1263
16418TIP3    H170669   4.658   2.878  16.574  2.0161 -0.2750  0.0777
16418TIP3    H270670   4.693   2.846  16.718  0.4825 -1.3094  0.2401
16419TIP3   OH270671   4.077   2.213   0.528  0.0234 -0.5500 -0.4938
16419TIP3    H170672   4.022   2.148   0.571 -2.3902  2.3567  1.1450
16419TIP3    H270673   4.098   2.277   0.596 -0.4005  2.0423 -2.6144
16420TIP3   OH270674   6.568   4.302   2.595 -0.0031 -0.1443 -0.4541
16420TIP3    H170675   6.533   4.389   2.615  2.1663  1.3605 -2.7108
16420TIP3    H270676   6.556   4.292   2.501  2.3553 -1.0452 -0.7105
16421TIP3   OH270677   0.457   1.173   4.738 -0.2230 -0.3558  0.0715
16421TIP3    H170678   0.431   1.235   4.670  0.2028 -0.1798  0.0631
16421TIP3    H270679   0.552   1.184   4.745 -0.2407 -0.4867  0.5825
16422TIP3   OH270680   3.115   5.013   1.235  0.4662 -0.6111  0.5998
16422TIP3    H170681   3.051   5.074   1.197 -0.7844 -1.5874  1.0875
16422TIP3    H270682   3.139   4.955   1.163 -0.7552 -1.5054  0.8789
16423TIP3   OH270683   1.296   0.601   0.075 -0.3888  0.1623 -0.4629
16423TIP3    H170684   1.253   0.583  -0.008 -0.5418  0.8573 -0.5371
16423TIP3    H270685   1.263   0.687   0.102 -1.4037 -0.6337  0.9945
16424TIP3   OH270686   0.999   4.425   1.406  0.2947  0.1040 -0.2735
16424TIP3    H170687   0.934   4.495   1.400  0.3847  0.1459 -0.8713
16424TIP3    H270688   1.049   4.445   1.485 -0.5110 -0.0133  0.2825
16425TIP3   OH270689   0.086   5.125   5.559  0.3051  0.2322 -0.4356
16425TIP3    H170690   0.127   5.049   5.601  0.6686  1.2647  1.2038
16425TIP3    H270691   0.030   5.089   5.491 -0.1190 -1.5466  0.8104
16426TIP3   OH270692   2.931   5.388  13.857  0.0725 -0.2068 -0.2144
16426TIP3    H170693   2.884   5.465  13.889 -0.8556 -0.4762 -0.8858
16426TIP3    H270694   2.970   5.416  13.774  2.7174  0.5781  1.1864
16427TIP3   OH270695   2.614   2.033   5.594  0.4275 -0.0295 -0.2370
16427TIP3    H170696   2.668   2.088   5.650  0.4095 -1.4025  1.2182
16427TIP3    H270697   2.670   1.958   5.573 -0.0765 -0.2589 -0.8044
16428TIP3   OH270698   3.762   1.075  12.156 -0.2283  0.1413  0.0321
16428TIP3    H170699   3.848   1.050  12.190 -0.9341 -3.4441 -0.3849
16428TIP3    H270700   3.704   1.070  12.232 -0.5014 -0.2499 -0.1952
16429TIP3   OH270701   6.210   2.523   2.385  0.0711  0.1672  0.6957
16429TIP3    H170702   6.200   2.459   2.315 -1.4163  1.1353 -0.0365
16429TIP3    H270703   6.198   2.608   2.342 -1.5890  0.7556  2.1964
16430TIP3   OH270704   3.130   3.220   1.345 -0.2207 -0.0739  0.0672
16430TIP3    H170705   3.207   3.211   1.290 -0.7085 -1.2489 -0.4696
16430TIP3    H270706   3.148   3.296   1.400  1.5543 -0.6691  0.3644
16431TIP3   OH270707   5.592   3.830   3.215 -0.4871 -0.1185 -0.2101
16431TIP3    H170708   5.637   3.831   3.300 -0.7646  0.2677 -0.0663
16431TIP3    H270709   5.661   3.809   3.152 -0.4476 -1.3326  0.2065
16432TIP3   OH270710   1.140   6.379  12.345 -0.2540 -0.4815  0.4362
16432TIP3    H170711   1.079   6.429  12.292 -0.0803  0.1612  0.8293
16432TIP3    H270712   1.089   6.306  12.380 -0.2861 -1.1355 -0.8920
16433TIP3   OH270713   0.865   0.609   1.179  0.1895  0.1052 -0.1291
16433TIP3    H170714   0.811   0.647   1.110  0.4602 -0.7362 -0.8220
16433TIP3    H270715   0.950   0.652   1.170 -0.4367  1.6817  1.1827
16434TIP3   OH270716   4.284   0.507   3.545 -0.1208 -0.8130  0.3985
16434TIP3    H170717   4.271   0.504   3.640  0.3784  1.8136  0.6080
16434TIP3    H270718   4.361   0.562   3.533 -0.5428 -0.5886 -1.5678
16435TIP3   OH270719   3.931   5.735   4.905 -0.1250  0.2938 -0.1253
16435TIP3    H170720   3.835   5.739   4.908 -0.1761  0.9719 -1.8407
16435TIP3    H270721   3.959   5.819   4.941 -0.2895  1.3651 -2.3512
16436TIP3   OH270722   0.623   2.305  15.959 -0.3159 -0.3543 -0.4403
16436TIP3    H170723   0.624   2.261  16.044 -0.2682 -1.1417 -0.8406
16436TIP3    H270724   0.710   2.346  15.952 -1.2284  2.0385  1.0504
16437TIP3   OH270725   2.531   2.100  15.588 -0.3091 -0.6092  0.7249
16437TIP3    H170726   2.490   2.017  15.611 -0.8757 -0.8925 -1.1889
16437TIP3    H270727   2.604   2.076  15.531 -0.0288  0.1541  0.7445
16438TIP3   OH270728   2.565   2.711  11.326  0.1420  0.0203  0.2265
16438TIP3    H170729   2.523   2.752  11.251  0.7628  1.1765  0.4907
16438TIP3    H270730   2.659   2.725  11.312  0.2112  1.4007  1.8375
16439TIP3   OH270731   5.856   2.769  14.926 -0.4534 -0.1386  0.1863
16439TIP3    H170732   5.935   2.772  14.871  0.8965 -0.2636  1.9983
16439TIP3    H270733   5.791   2.819  14.877  0.3368 -1.0606 -1.9535
16440TIP3   OH270734   2.773   5.014   5.577  0.5788  0.5493 -0.2983
16440TIP3    H170735   2.859   5.054   5.562  0.6235  0.2984 -0.7180
16440TIP3    H270736   2.766   4.945   5.511  0.8779 -0.7564  0.9720
16441TIP3   OH270737   3.137   4.015  14.762  0.2559  0.1951 -0.0326
16441TIP3    H170738   3.208   4.079  14.759  0.9958 -0.6423 -1.1705
16441TIP3    H270739   3.078   4.042  14.692  1.1170 -0.9403 -1.2418
16442TIP3   OH270740   2.787   1.297  17.002  1.0743 -0.1732 -0.2913
16442TIP3    H170741   2.790   1.242  17.081 -0.3884 -0.6445 -0.5362
16442TIP3    H270742   2.731   1.371  17.027  1.2707  0.0969 -0.6406
16443TIP3   OH270743   3.132   4.142  14.001 -0.0973  0.2748  0.1126
16443TIP3    H170744   3.157   4.165  14.090 -0.1405  0.9411 -0.0394
16443TIP3    H270745   3.038   4.160  13.996 -0.2088 -0.2818  0.0866
16444TIP3   OH270746   0.595   2.475  11.234  0.2336  0.1902  0.1189
16444TIP3    H170747   0.511   2.483  11.189 -0.2213  1.3139  1.1072
16444TIP3    H270748   0.574   2.432  11.317  1.4268 -4.2654 -1.5731
16445TIP3   OH270749   2.257   0.269   2.516  0.5711  0.0332  0.3929
16445TIP3    H170750   2.349   0.274   2.491  0.5771 -0.2287  0.3554
16445TIP3    H270751   2.227   0.360   2.517  0.5277  0.0451 -0.6938
16446TIP3   OH270752   1.032   1.920  10.686 -0.3553 -0.1633  0.1108
16446TIP3    H170753   1.035   1.827  10.665 -0.7248 -0.6308  1.9899
16446TIP3    H270754   1.011   1.962  10.603  0.7791 -1.6560 -0.9842
16447TIP3   OH270755   0.412   2.091   4.067  0.2802  0.1607 -0.0665
16447TIP3    H170756   0.355   2.021   4.100  0.8783 -0.3093 -0.0149
16447TIP3    H270757   0.386   2.168   4.117  0.3186 -0.2623  0.6210
16448TIP3   OH270758   5.815   2.633   0.927 -0.0984  0.2825 -0.1604
16448TIP3    H170759   5.774   2.692   0.864  0.4624  0.4543 -0.3694
16448TIP3    H270760   5.890   2.596   0.881 -0.4356 -0.5837 -0.0200
16449TIP3   OH270761   4.528   2.368   3.570  0.1508 -0.4769  0.0751
16449TIP3    H170762   4.599   2.345   3.631 -1.5094 -1.2630  1.8189
16449TIP3    H270763   4.480   2.437   3.616 -1.2150 -1.1763 -0.2844
16450TIP3   OH270764   0.190   1.964  11.595 -0.3144 -0.2552 -0.7037
16450TIP3    H170765   0.136   1.919  11.659 -1.5883 -0.9532 -2.2249
16450TIP3    H270766   0.259   2.005  11.647  0.4837 -3.2880  0.8509
16451TIP3   OH270767   2.405   2.070  11.987 -0.0088  0.0392  0.1876
16451TIP3    H170768   2.381   1.978  12.001  1.7182 -1.0553 -2.9236
16451TIP3    H270769   2.373   2.115  12.065 -0.3183 -3.2991  2.2265
16452TIP3   OH270770   4.942   2.358   4.612  0.3916  0.3332 -0.1560
16452TIP3    H170771   5.033   2.336   4.593  1.1159  1.6190  1.4986
16452TIP3    H270772   4.948   2.419   4.686 -1.8311  0.2870  0.1156
16453TIP3   OH270773   5.004   6.758   1.700 -0.2807 -0.3190 -0.1959
16453TIP3    H170774   4.928   6.759   1.642 -0.6419 -2.7847  0.1415
16453TIP3    H270775   4.969   6.777   1.787 -0.7032 -2.1127  0.0747
16454TIP3   OH270776   1.317   3.710   3.994 -0.0372 -0.0115 -0.3395
16454TIP3    H170777   1.325   3.630   3.941 -0.1880  0.7665 -1.5904
16454TIP3    H270778   1.346   3.684   4.081  1.3220 -1.0807 -1.0559
16455TIP3   OH270779   6.146   1.285   5.848 -0.1602  0.5207  0.4772
16455TIP3    H170780   6.237   1.294   5.877 -0.3618  0.2939  1.2033
16455TIP3    H270781   6.109   1.372   5.859  0.3306  0.9744 -1.1574
16456TIP3   OH270782   2.157   0.440  17.325 -0.2120  0.2513  0.0528
16456TIP3    H170783   2.246   0.474  17.312 -0.0885 -0.1959 -0.3206
16456TIP3    H270784   2.101   0.500  17.276  0.2429 -1.3722 -2.7284
16457TIP3   OH270785   0.928   5.015   5.891 -0.2316 -0.4865  0.6868
16457TIP3    H170786   0.915   5.110   5.886  0.8021 -0.0744  3.5547
16457TIP3    H270787   0.931   4.986   5.800 -1.0565  2.1463 -0.2696
16458TIP3   OH270788   1.072   3.694   0.382  0.3105 -0.1713 -0.3651
16458TIP3    H170789   1.158   3.684   0.422  0.2838 -1.7116 -0.6163
16458TIP3    H270790   1.056   3.610   0.339 -1.2054  0.1824 -0.5548
16459TIP3   OH270791   0.041   1.878  16.646  0.3368 -0.2464  0.2764
16459TIP3    H170792   0.105   1.833  16.591  1.2513 -2.0181  2.5958
16459TIP3    H270793  -0.031   1.816  16.654  0.7834 -0.6080  2.0099
16460TIP3   OH270794   5.894   3.826   5.425 -0.1667  0.2097  0.2964
16460TIP3    H170795   5.964   3.890   5.437 -0.1313  0.1315  0.5243
16460TIP3    H270796   5.899   3.770   5.503 -0.3218  0.0499  0.1936
16461TIP3   OH270797   6.699   1.376  13.999 -0.5003  0.3899 -0.9014
16461TIP3    H170798   6.727   1.456  14.044 -2.5363  0.3277  0.6115
16461TIP3    H270799   6.696   1.309  14.068 -2.0729 -0.1446 -1.4513
16462TIP3   OH270800   4.543   2.529  17.214 -0.0155 -0.2327 -0.1337
16462TIP3    H170801   4.529   2.604  17.157  1.2228  1.5734  1.8076
16462TIP3    H270802   4.603   2.473  17.166  0.2252  0.7523 -1.0181
16463TIP3   OH270803   5.245   1.377  14.687 -0.2630  0.5841 -0.1401
16463TIP3    H170804   5.260   1.453  14.743  0.5296  0.8098 -0.6536
16463TIP3    H270805   5.301   1.391  14.611 -2.1387  0.8547 -1.5666
16464TIP3   OH270806   2.111   2.217   1.126  0.0647 -1.1460 -0.5908
16464TIP3    H170807   2.111   2.268   1.208 -0.5871  1.0671 -1.8796
16464TIP3    H270808   2.019   2.212   1.101  0.4140  1.1417 -2.8006
16465TIP3   OH270809   1.929   3.404  11.853  0.3004 -1.0597  0.0936
16465TIP3    H170810   1.895   3.487  11.885 -0.0885 -1.5338  0.9676
16465TIP3    H270811   2.024   3.411  11.865  0.2336 -0.8950  0.5678
16466TIP3   OH270812   5.296   0.381   5.276 -0.3020 -0.0201 -0.4234
16466TIP3    H170813   5.218   0.327   5.289  1.1527 -3.1813 -3.4769
16466TIP3    H270814   5.280   0.427   5.194 -1.4286  4.5669  1.9734
16467TIP3   OH270815   0.651   2.071  16.204  0.1394 -0.0946  0.7331
16467TIP3    H170816   0.561   2.101  16.217  0.4747  0.8900  0.8611
16467TIP3    H270817   0.705   2.149  16.219  0.8928 -0.1079 -1.4923
16468TIP3   OH270818   4.418   3.913  14.135  0.1210  0.3860 -0.3312
16468TIP3    H170819   4.500   3.872  14.164  0.8380  1.2991 -0.9774
16468TIP3    H270820   4.379   3.946  14.216 -0.1851 -1.0130  0.1261
16469TIP3   OH270821   2.895   5.400   5.552 -0.0375  0.5854  0.2186
16469TIP3    H170822   2.834   5.468   5.523 -0.0678  0.5194  0.1245
16469TIP3    H270823   2.896   5.406   5.647 -0.5829  0.2523  0.2532
16470TIP3   OH270824   5.445   4.829  11.992 -0.4728 -0.4966  0.5751
16470TIP3    H170825   5.412   4.906  11.946 -1.1635  0.1027  2.0220
16470TIP3    H270826   5.370   4.796  12.042  0.3806 -0.7592  1.7325
16471TIP3   OH270827   1.765   1.358   3.145  0.8858  0.1107  0.4521
16471TIP3    H170828   1.715   1.339   3.066 -0.5374  0.8805  1.1269
16471TIP3    H270829   1.748   1.283   3.202  1.0312  0.0689  0.4410
16472TIP3   OH270830   1.160   3.102   6.343  0.1888 -0.6370  0.1475
16472TIP3    H170831   1.221   3.171   6.319 -0.7008  0.2053  0.2597
16472TIP3    H270832   1.213   3.039   6.392  0.8512  0.3541  0.7270
16473TIP3   OH270833   6.301   2.042  14.119  0.4180  0.2381  0.6495
16473TIP3    H170834   6.329   2.110  14.181 -0.0959  0.2851  0.8415
16473TIP3    H270835   6.381   2.014  14.076  1.1302 -1.1922  2.7364
16474TIP3   OH270836   3.562   5.594  13.820 -0.6142 -0.1411 -0.0337
16474TIP3    H170837   3.597   5.669  13.868 -1.4306  0.0147  0.3406
16474TIP3    H270838   3.531   5.630  13.738  1.8214 -0.5869 -1.2336
16475TIP3   OH270839   1.141   2.933   2.264 -0.1621 -0.2500 -0.0378
16475TIP3    H170840   1.122   2.845   2.233  4.1249 -1.1023 -0.9070
16475TIP3    H270841   1.232   2.930   2.291 -0.1068  3.6992  0.8851
16476TIP3   OH270842   5.384   0.121   0.206 -0.4888  0.1876  0.0563
16476TIP3    H170843   5.406   0.213   0.214  0.2589 -0.0269  0.6125
16476TIP3    H270844   5.338   0.100   0.287 -1.1689  0.2033 -0.3202
16477TIP3   OH270845   4.596   3.328  17.007  0.0587 -0.0313 -0.4641
16477TIP3    H170846   4.672   3.383  17.023 -0.0341 -0.3239  1.1614
16477TIP3    H270847   4.630   3.238  17.011 -0.1910 -0.1457 -0.8027
16478TIP3   OH270848   6.445   1.384   4.731  0.8400  0.1012 -0.4835
16478TIP3    H170849   6.383   1.453   4.709 -0.2095 -0.5791  0.2311
16478TIP3    H270850   6.500   1.422   4.800 -1.1657 -0.4245  1.5380
16479TIP3   OH270851   5.640   5.244   5.914 -0.0216  0.0124 -0.5143
16479TIP3    H170852   5.666   5.164   5.869 -0.1150  0.3142 -1.1071
16479TIP3    H270853   5.646   5.313   5.848 -0.5652  0.3897 -0.1839
16480TIP3   OH270854   5.658   5.843   1.758 -0.0006  0.7536  0.1365
16480TIP3    H170855   5.734   5.880   1.803  0.8320  0.1757 -0.7707
16480TIP3    H270856   5.583   5.890   1.796  0.7677  1.0945  1.2818
16481TIP3   OH270857   3.961   4.952  13.450  0.4156 -0.1545  0.3388
16481TIP3    H170858   3.873   4.949  13.414  0.7800 -0.6996 -0.5734
16481TIP3    H270859   4.016   4.975  13.375  1.2168 -1.4557  0.4844
16482TIP3   OH270860   4.839   2.652   5.956 -0.0683 -0.5472 -0.6862
16482TIP3    H170861   4.919   2.642   6.007 -0.5503 -1.4200 -0.0811
16482TIP3    H270862   4.814   2.563   5.932 -1.6082 -0.4112  0.3143
16483TIP3   OH270863   3.271   6.588  14.898 -0.8212  0.6821 -0.3039
16483TIP3    H170864   3.188   6.552  14.866 -1.7662  2.9637 -0.6868
16483TIP3    H270865   3.269   6.680  14.869  1.9225  0.7736 -0.4312
16484TIP3   OH270866   2.864   0.870  15.048  0.2132 -0.3211  0.0851
16484TIP3    H170867   2.827   0.785  15.025 -0.7055 -0.0004  0.3386
16484TIP3    H270868   2.910   0.899  14.969 -0.0736 -0.7285 -0.2354
16485TIP3   OH270869   5.542   1.217   5.583  0.5482 -0.0994 -0.2463
16485TIP3    H170870   5.509   1.290   5.530  0.0939  0.6038  0.9795
16485TIP3    H270871   5.597   1.259   5.649  1.2039 -0.9837 -0.2144
16486TIP3   OH270872   1.154   0.284   3.558  0.2557 -0.7854 -0.0511
16486TIP3    H170873   1.223   0.270   3.494 -0.7265 -0.3995 -1.2291
16486TIP3    H270874   1.096   0.348   3.517 -0.5314 -0.7122  1.1279
16487TIP3   OH270875   0.083   1.651  15.356 -0.1244 -0.0823 -0.1611
16487TIP3    H170876   0.143   1.577  15.345  0.3396 -0.0860  1.9095
16487TIP3    H270877   0.027   1.626  15.430  0.4011  1.8117  0.9458
16488TIP3   OH270878   1.466   4.334   0.778  0.2831  0.4412 -0.3383
16488TIP3    H170879   1.478   4.320   0.684 -1.6357 -1.9281 -0.3627
16488TIP3    H270880   1.513   4.261   0.819 -1.0687 -0.1117  0.3138
16489TIP3   OH270881   1.275   1.488   3.496 -0.0956  0.1673  0.3281
16489TIP3    H170882   1.356   1.538   3.481  0.7020 -0.7889  1.2346
16489TIP3    H270883   1.206   1.554   3.495  0.7693  1.1102  0.1923
16490TIP3   OH270884   5.822   1.434  16.999 -0.0268 -0.5923  0.0755
16490TIP3    H170885   5.785   1.396  16.919 -0.4106  1.5683 -0.8450
16490TIP3    H270886   5.750   1.484  17.037  0.8367  0.4238  0.4264
16491TIP3   OH270887   3.203   5.417  14.851 -0.8570  0.1381  0.3891
16491TIP3    H170888   3.248   5.490  14.809 -1.1519 -0.1668 -0.4669
16491TIP3    H270889   3.273   5.363  14.888 -0.4443 -0.6184 -1.3886
16492TIP3   OH270890   5.749   2.637  13.100  0.7081  0.3609  0.1623
16492TIP3    H170891   5.700   2.555  13.110 -0.8989  1.3101  0.3496
16492TIP3    H270892   5.718   2.693  13.172  1.0775  1.4724 -0.5213
16493TIP3   OH270893   3.291   3.211   0.847  0.2486  0.5465  0.1144
16493TIP3    H170894   3.366   3.256   0.886  1.9306  0.5868 -2.8938
16493TIP3    H270895   3.327   3.167   0.770 -2.5398 -0.8518 -0.5129
16494TIP3   OH270896   3.769   4.197  15.775 -0.2442 -0.2314 -0.0001
16494TIP3    H170897   3.794   4.289  15.785 -0.3246  0.2051 -2.8040
16494TIP3    H270898   3.673   4.200  15.768 -0.2819 -0.5868  0.3836
16495TIP3   OH270899   5.472   6.763   1.773 -0.0573 -0.0525 -0.1713
16495TIP3    H170900   5.402   6.782   1.835  1.1484 -1.0404  1.5620
16495TIP3    H270901   5.438   6.690   1.721 -0.8303  0.3674 -0.2784
16496TIP3   OH270902   5.280   0.328  15.604 -0.4841  0.5140  0.0897
16496TIP3    H170903   5.208   0.341  15.665 -1.2504  2.9235 -1.2145
16496TIP3    H270904   5.238   0.316  15.519  0.6159 -0.7302 -0.3135
16497TIP3   OH270905   2.505   5.111   5.914 -0.2369  0.2441 -0.1073
16497TIP3    H170906   2.437   5.163   5.870 -0.4347  0.2031  0.1460
16497TIP3    H270907   2.492   5.128   6.007  1.5488  2.0299 -0.1177
16498TIP3   OH270908   4.283   2.072   1.257 -0.4813 -0.4715  0.6019
16498TIP3    H170909   4.308   2.016   1.185 -0.3840  0.9324 -0.5008
16498TIP3    H270910   4.195   2.102   1.235 -0.1679  0.5526  0.6639
16499TIP3   OH270911   3.684   0.316  16.500  0.1444 -0.2960 -0.2125
16499TIP3    H170912   3.602   0.276  16.530  0.5120 -0.7726  0.1579
16499TIP3    H270913   3.686   0.402  16.542 -0.2262 -0.2321 -0.3228
16500TIP3   OH270914   4.138   3.615  13.753  0.4215  0.5174 -0.3148
16500TIP3    H170915   4.206   3.670  13.791  0.6918 -0.5246  0.7515
16500TIP3    H270916   4.070   3.677  13.725  1.0235  1.4366  0.2205
16501TIP3   OH270917   5.513   2.184  14.339 -0.3726 -0.3062 -0.0727
16501TIP3    H170918   5.478   2.273  14.351 -0.2722 -0.1673 -0.7638
16501TIP3    H270919   5.437   2.127  14.349 -0.3796 -0.1719  0.7088
16502TIP3   OH270920   5.021   0.929   0.234  0.2599  0.0740  0.5871
16502TIP3    H170921   4.978   0.986   0.298 -0.0462  0.4800  0.0309
16502TIP3    H270922   5.056   0.856   0.286  0.6511  0.7622  1.3058
16503TIP3   OH270923   3.727   2.319  14.286 -0.1991  0.6277 -0.3147
16503TIP3    H170924   3.738   2.349  14.376  0.9192  0.7908 -0.4891
16503TIP3    H270925   3.645   2.270  14.287  0.2363 -0.1280  0.9952
16504TIP3   OH270926   0.008   4.726  15.849 -0.6017 -0.2491  0.0179
16504TIP3    H170927   0.099   4.738  15.876 -0.8561  1.2185  0.2977
16504TIP3    H270928  -0.030   4.668  15.915 -0.2701  0.4142  0.8062
16505TIP3   OH270929   5.897   1.511   4.489 -0.5605 -0.0519  0.4966
16505TIP3    H170930   5.924   1.587   4.541 -0.3922  1.6367 -1.9092
16505TIP3    H270931   5.801   1.508   4.498 -0.4951 -0.0804  1.2416
16506TIP3   OH270932   3.465   4.169   1.767  0.4242 -0.0413  0.4873
16506TIP3    H170933   3.475   4.261   1.740  0.1483 -0.4636 -1.1428
16506TIP3    H270934   3.551   4.146   1.801  1.4299  0.0096 -1.8254
16507TIP3   OH270935   4.110   4.666  14.472  0.5093  0.0153 -0.2095
16507TIP3    H170936   4.124   4.608  14.547  0.3042 -0.3709 -0.4671
16507TIP3    H270937   4.015   4.669  14.462  0.5642 -1.9662 -2.0074
16508TIP3   OH270938   6.463   5.964  14.893 -0.1115 -0.3425  0.3053
16508TIP3    H170939   6.438   6.056  14.890 -1.7572 -0.7660 -0.4041
16508TIP3    H270940   6.451   5.933  14.803  2.4357 -0.7962  0.0480
16509TIP3   OH270941   0.010   0.034   4.507 -0.6444 -0.0615  0.1871
16509TIP3    H170942   0.063  -0.030   4.555 -1.7170 -1.1100  0.0097
16509TIP3    H270943   0.047   0.035   4.419 -1.4694 -1.4894 -0.2002
16510TIP3   OH270944   6.732   5.467  16.532  0.0218  0.0405  0.1258
16510TIP3    H170945   6.687   5.451  16.615 -1.8234 -0.5281 -0.9165
16510TIP3    H270946   6.787   5.543  16.548 -0.6951  0.2583  1.7255
16511TIP3   OH270947   6.195   2.489  13.183  0.5567  0.2458 -0.5455
16511TIP3    H170948   6.166   2.543  13.257 -1.5438 -1.7784  0.2364
16511TIP3    H270949   6.123   2.493  13.121 -0.1780 -2.3805  0.0063
16512TIP3   OH270950   6.339   6.253   0.912 -0.1995 -0.0761  0.2391
16512TIP3    H170951   6.344   6.298   0.996 -0.7645 -0.4298  0.4667
16512TIP3    H270952   6.305   6.318   0.851 -0.4449 -0.0219  0.4357
16513TIP3   OH270953   6.599   2.279   6.896 -0.5675 -0.4463 -0.0732
16513TIP3    H170954   6.618   2.372   6.898 -0.7362 -0.3888 -0.8848
16513TIP3    H270955   6.503   2.273   6.901 -0.6490 -0.5058 -1.3184
16514TIP3   OH270956   5.712   0.675  12.327 -0.2482 -0.1785 -0.0930
16514TIP3    H170957   5.782   0.730  12.292 -0.6890  0.8046  0.5108
16514TIP3    H270958   5.723   0.591  12.284  1.8507 -0.3300  0.6378
16515TIP3   OH270959   5.511   4.612  12.379 -0.4238 -0.2198  0.5939
16515TIP3    H170960   5.520   4.524  12.344  1.6986  0.3180 -0.3576
16515TIP3    H270961   5.434   4.648  12.335 -1.1374 -1.4650  0.7770
16516TIP3   OH270962   5.441   2.715  16.425 -0.1856 -0.4180 -0.4604
16516TIP3    H170963   5.494   2.636  16.416 -2.1287 -1.7808 -0.5913
16516TIP3    H270964   5.426   2.744  16.335  3.2003  2.0977 -0.3796
16517TIP3   OH270965   1.909   4.043   5.582  0.1589  0.1723 -0.0888
16517TIP3    H170966   1.834   3.984   5.568 -1.0324  1.6151 -0.0035
16517TIP3    H270967   1.973   3.989   5.628 -0.1906 -1.5375 -1.4998
16518TIP3   OH270968   2.255   2.407   2.558 -0.0859  0.4217 -0.2789
16518TIP3    H170969   2.280   2.476   2.620 -3.9521  0.5335  1.4799
16518TIP3    H270970   2.212   2.453   2.486 -0.6404  0.0068 -0.2220
16519TIP3   OH270971   5.402   2.978   4.264 -0.5230 -0.0573 -0.2416
16519TIP3    H170972   5.309   2.994   4.253 -0.7630 -2.5058 -2.8999
16519TIP3    H270973   5.408   2.916   4.337 -1.1639 -1.0113 -0.9750
16520TIP3   OH270974   6.569   0.173   0.771  0.2644  0.6208  0.2252
16520TIP3    H170975   6.634   0.117   0.813  1.6354  1.4337 -0.7442
16520TIP3    H270976   6.503   0.112   0.739 -0.1580 -0.1231  2.3484
16521TIP3   OH270977   3.601   4.883  15.218  0.4311  0.2772 -0.2684
16521TIP3    H170978   3.662   4.841  15.280 -0.8550 -1.3873 -0.0329
16521TIP3    H270979   3.568   4.959  15.265 -1.2905 -1.5001  1.6550
16522TIP3   OH270980   3.086   1.511  12.149 -0.2088  0.0504 -0.5000
16522TIP3    H170981   3.036   1.462  12.083 -0.0512 -1.0735  0.1764
16522TIP3    H270982   3.146   1.566  12.099  0.6437 -1.5489 -1.3141
16523TIP3   OH270983   2.417   5.915  13.628 -0.8370 -0.3866 -0.5871
16523TIP3    H170984   2.405   5.828  13.665  1.2188 -0.9851 -1.2006
16523TIP3    H270985   2.385   5.907  13.538 -0.7789 -0.4737 -0.6005
16524TIP3   OH270986   1.405   2.571  10.791  0.0309  0.9869 -0.0010
16524TIP3    H170987   1.500   2.569  10.806 -0.0484  0.2789  0.4489
16524TIP3    H270988   1.371   2.623  10.864 -0.1103 -0.4153  0.9714
16525TIP3   OH270989   4.733   1.048  13.919 -0.0717  0.3367  0.0407
16525TIP3    H170990   4.645   1.047  13.882 -0.8499 -3.9127  1.4924
16525TIP3    H270991   4.744   0.962  13.958  3.3620  1.9607  3.3278
16526TIP3   OH270992   3.370   3.780   4.064 -0.4374 -0.3514  0.4567
16526TIP3    H170993   3.446   3.722   4.060 -1.0472 -1.3703  2.3667
16526TIP3    H270994   3.369   3.824   3.979  1.6669 -1.0686 -0.0055
16527TIP3   OH270995   6.387   1.857   4.999 -0.7822 -0.0468 -0.0741
16527TIP3    H170996   6.440   1.823   5.071  0.0123 -2.4476 -1.6773
16527TIP3    H270997   6.297   1.835   5.022 -0.6161 -0.1267  0.5054
16528TIP3   OH270998   0.983   0.432  11.980  0.5781 -0.0319 -0.0482
16528TIP3    H170999   1.049   0.363  11.987  0.5695 -0.1963 -1.2950
16528TIP3    H271000   0.970   0.462  12.069  0.8802 -1.3736  0.4699
16529TIP3   OH271001   0.240   2.749   3.074  0.0568 -0.0169  0.0952
16529TIP3    H171002   0.199   2.665   3.098  1.5377 -2.0189 -3.5174
16529TIP3    H271003   0.182   2.785   3.007  0.0920  1.2436  0.7275
16530TIP3   OH271004   4.015   4.706  16.560  0.1273 -0.2858  0.1121
16530TIP3    H171005   4.050   4.644  16.497 -0.4711  1.0067 -1.5594
16530TIP3    H271006   3.920   4.694  16.556  0.0846 -0.3508  0.9789
16531TIP3   OH271007   2.950   5.983  16.582  0.0386  0.5477  0.0351
16531TIP3    H171008   2.972   5.917  16.517  3.1635  2.3077 -0.9054
16531TIP3    H271009   3.011   5.967  16.655 -1.0059  0.7710  0.9912
16532TIP3   OH271010   4.672   2.567   2.463 -0.8009 -0.2758  0.1107
16532TIP3    H171011   4.707   2.535   2.380  2.4162  0.7309  0.9466
16532TIP3    H271012   4.723   2.521   2.530 -0.4163  1.9338  1.4247
16533TIP3   OH271013   5.347   2.079  11.769  0.3237 -0.2324 -0.0211
16533TIP3    H171014   5.403   2.134  11.824  0.8519 -0.4372 -0.3482
16533TIP3    H271015   5.358   1.991  11.804  1.1215 -0.4592 -0.8106
16534TIP3   OH271016   1.767   2.491   2.198 -0.0389 -0.0681 -0.1694
16534TIP3    H171017   1.819   2.518   2.123 -0.7671  0.1901 -0.5963
16534TIP3    H271018   1.695   2.440   2.161 -1.5571  1.7386  0.1100
16535TIP3   OH271019   0.015   0.731  14.101 -0.3283  0.0634  0.2739
16535TIP3    H171020   0.070   0.751  14.026 -1.4594  1.9648 -0.0979
16535TIP3    H271021  -0.074   0.749  14.071 -0.9435 -0.6261  1.6053
16536TIP3   OH271022   2.821   3.370   4.992 -0.1543 -0.1324 -0.4275
16536TIP3    H171023   2.842   3.330   5.076 -0.5914  0.7487  0.1142
16536TIP3    H271024   2.748   3.429   5.011  0.1208  0.5157 -1.3043
16537TIP3   OH271025   0.763   1.492   6.095 -0.5036  0.2060  0.1790
16537TIP3    H171026   0.850   1.452   6.085  1.4008  3.2900  2.5586
16537TIP3    H271027   0.722   1.442   6.165  0.8891  0.8733  1.5288
16538TIP3   OH271028   2.066   4.239   1.153 -0.4144  0.0281 -0.7589
16538TIP3    H171029   2.064   4.144   1.143 -0.4493  0.1693 -2.2992
16538TIP3    H271030   1.981   4.262   1.190 -0.0445 -0.6081  0.5507
16539TIP3   OH271031   2.793   4.022   4.820 -0.1838  0.0346  0.3345
16539TIP3    H171032   2.810   4.008   4.913 -0.5344 -1.2335  0.2234
16539TIP3    H271033   2.735   3.950   4.795 -0.7865  0.8349 -0.6789
16540TIP3   OH271034   6.312   1.954   5.805  0.0562 -0.6678  0.2185
16540TIP3    H171035   6.317   1.961   5.900  1.1481 -0.4240  0.1504
16540TIP3    H271036   6.401   1.972   5.774  0.0085 -1.9499 -0.7672
16541TIP3   OH271037   0.678   4.326  13.270 -0.0805 -0.0460 -0.1259
16541TIP3    H171038   0.695   4.233  13.258 -2.4092 -0.5057 -0.1303
16541TIP3    H271039   0.589   4.339  13.239 -0.0937  2.0427  0.6327
16542TIP3   OH271040   2.807   0.854  11.804  0.2287  0.1808  0.9712
16542TIP3    H171041   2.879   0.912  11.825 -0.4625  0.6165  2.2692
16542TIP3    H271042   2.733   0.913  11.789  0.1493 -0.2523 -0.4200
16543TIP3   OH271043   4.965   4.045   1.418  0.1805  0.7284  0.3811
16543TIP3    H171044   5.055   4.030   1.446  0.5497  1.1805 -0.5367
16543TIP3    H271045   4.912   4.016   1.492  1.1227  1.6787  1.4745
16544TIP3   OH271046   5.264   0.602  16.562  0.0859  0.6864 -0.0852
16544TIP3    H171047   5.325   0.667  16.528  0.8308 -1.1352 -2.4799
16544TIP3    H271048   5.197   0.593  16.494 -0.7478 -0.0852  0.7938
16545TIP3   OH271049   5.976   4.808  11.907 -0.5256 -0.6720 -0.4076
16545TIP3    H171050   6.049   4.752  11.934  0.5543 -0.2534 -2.2949
16545TIP3    H271051   5.927   4.754  11.846 -1.7867 -0.9031  0.7537
16546TIP3   OH271052   0.283   4.854  12.162  0.0659  0.0670 -0.2367
16546TIP3    H171053   0.316   4.813  12.082  0.2129  1.1880 -0.7640
16546TIP3    H271054   0.332   4.935  12.170  0.5989 -0.3768  1.4223
16547TIP3   OH271055   3.631   0.410  10.758  0.3035  0.2879 -0.7800
16547TIP3    H171056   3.617   0.327  10.713  2.3088 -1.1711  1.0579
16547TIP3    H271057   3.695   0.455  10.703  0.1022  0.0985 -1.1797
16548TIP3   OH271058   6.437   6.180  14.336 -0.0688  0.5336 -0.5204
16548TIP3    H171059   6.444   6.269  14.301  0.2009  0.6037 -0.2870
16548TIP3    H271060   6.390   6.191  14.419 -1.4350  0.2791 -1.2183
16549TIP3   OH271061   2.488   6.519   4.833  0.2857 -0.2464 -0.3303
16549TIP3    H171062   2.395   6.534   4.847  0.0897 -0.4287 -1.3786
16549TIP3    H271063   2.493   6.434   4.789  0.9921 -0.5225  0.2632
16550TIP3   OH271064   2.202   1.039   1.736  0.0677 -0.0399  0.3059
16550TIP3    H171065   2.111   1.052   1.711  0.5021 -2.6752 -3.4070
16550TIP3    H271066   2.248   1.116   1.702 -0.3213 -0.4442 -1.1981
16551TIP3   OH271067   6.375   1.525   2.340  0.0683 -0.0934  0.6127
16551TIP3    H171068   6.380   1.546   2.247  0.9620 -0.2493  0.6119
16551TIP3    H271069   6.381   1.609   2.384  0.0729 -0.0535  0.5365
16552TIP3   OH271070   5.452   0.296  11.426  0.1446 -0.0359 -0.1346
16552TIP3    H171071   5.436   0.229  11.492  1.0536  0.3913  0.5500
16552TIP3    H271072   5.423   0.257  11.344 -1.1419 -0.5287  0.5288
16553TIP3   OH271073   5.420   4.248   3.576 -0.0243 -0.4627  0.6283
16553TIP3    H171074   5.490   4.189   3.547  2.0267  1.0644  2.1262
16553TIP3    H271075   5.450   4.335   3.550 -1.5034  0.2115  1.1059
16554TIP3   OH271076   6.326   3.348  13.557 -0.5410  0.0926  0.2829
16554TIP3    H171077   6.382   3.334  13.481  0.1896  2.6417  0.2421
16554TIP3    H271078   6.386   3.350  13.631 -0.8038  0.9137  0.4843
16555TIP3   OH271079   0.609   4.967   0.861 -0.5911  0.4802  0.3128
16555TIP3    H171080   0.623   5.015   0.943  0.4484  0.9050 -0.0945
16555TIP3    H271081   0.675   5.003   0.801  0.6321 -1.8392  0.1455
16556TIP3   OH271082   5.011   4.981  13.177  0.1988  0.3491  0.2341
16556TIP3    H171083   5.106   4.970  13.169  0.1518  0.0581  0.0602
16556TIP3    H271084   4.981   4.997  13.088  0.0211 -0.0835  0.2142
16557TIP3   OH271085   6.342   5.087   4.047  0.1747  0.1506  0.7663
16557TIP3    H171086   6.372   5.047   3.965 -0.0797  0.5991  0.4501
16557TIP3    H271087   6.322   5.013   4.104  0.8879 -0.1639  0.6208
16558TIP3   OH271088   0.965   6.176  12.415  0.6231  0.0115 -0.3975
16558TIP3    H171089   0.925   6.115  12.477  0.4823 -0.7157 -1.1730
16558TIP3    H271090   0.893   6.203  12.358  0.4289  1.8769  0.6627
16559TIP3   OH271091   3.147   3.580  17.314  0.5715 -0.2736  0.9151
16559TIP3    H171092   3.214   3.513  17.301 -0.4139 -1.1352  0.0061
16559TIP3    H271093   3.193   3.655  17.352  2.1989 -0.5476 -0.4227
16560TIP3   OH271094   5.129   3.038   2.869 -0.1926  0.2100 -0.0378
16560TIP3    H171095   5.219   3.063   2.888 -0.0421 -0.1037 -0.3439
16560TIP3    H271096   5.115   2.959   2.921  1.0148 -2.1419 -2.9794
16561TIP3   OH271097   6.060   0.782  16.698  0.7820  0.1460 -0.1961
16561TIP3    H171098   5.988   0.784  16.635  0.3519  1.4105  0.3069
16561TIP3    H271099   6.115   0.856  16.674  0.8348  0.3900  0.6366
16562TIP3   OH271100   2.070   1.345   4.736  0.4514 -0.0426  0.1138
16562TIP3    H171101   2.028   1.380   4.657  0.0120 -0.9473 -0.0675
16562TIP3    H271102   2.151   1.304   4.705  1.1374  1.0833  0.3710
16563TIP3   OH271103   0.623   2.089   0.208 -0.3510  0.0896 -0.0460
16563TIP3    H171104   0.599   2.170   0.253 -3.7024 -1.2064  0.8222
16563TIP3    H271105   0.662   2.034   0.276 -0.1506  0.1647 -0.0996
16564TIP3   OH271106   5.610   2.964  15.267  0.6943 -0.2841 -0.2414
16564TIP3    H171107   5.595   3.057  15.246 -0.7576 -0.4727 -0.1429
16564TIP3    H271108   5.640   2.965  15.358 -1.2920  0.0031  0.4699
16565TIP3   OH271109   4.279   6.209   0.918 -0.1022 -0.1761  0.7417
16565TIP3    H171110   4.254   6.120   0.892 -0.1779  0.4689 -1.5982
16565TIP3    H271111   4.198   6.260   0.909  0.4491  0.5609 -0.2572
16566TIP3   OH271112   6.615   6.606   3.723 -0.0679 -0.2023  0.8531
16566TIP3    H171113   6.669   6.684   3.736 -1.0837  0.5061  1.0253
16566TIP3    H271114   6.634   6.578   3.633 -0.3475  0.8026  0.4610
16567TIP3   OH271115   5.743   2.361  15.144  0.1427 -0.3088 -0.2364
16567TIP3    H171116   5.727   2.332  15.234 -0.2719 -0.6033 -0.3976
16567TIP3    H271117   5.689   2.439  15.134  1.1656  0.4758  0.1573
16568TIP3   OH271118   5.032   2.678  15.806  0.2872  0.0548 -0.2159
16568TIP3    H171119   5.058   2.704  15.894  0.8469 -1.2869  0.0277
16568TIP3    H271120   5.108   2.632  15.771 -0.2663 -0.2458 -1.0569
16569TIP3   OH271121   6.121   3.188  13.665  0.1128 -0.3885  0.2617
16569TIP3    H171122   6.184   3.247  13.623  0.3050 -1.4533 -1.0308
16569TIP3    H271123   6.042   3.196  13.611 -0.6761  0.4471  1.4865
16570TIP3   OH271124   0.336   3.383  12.368 -0.3791 -0.5642 -0.1618
16570TIP3    H171125   0.307   3.423  12.285 -2.2954  1.1233  1.1919
16570TIP3    H271126   0.427   3.411  12.378 -0.0084 -1.0872 -1.8385
16571TIP3   OH271127   1.982   3.983  15.788  0.0273  0.0165 -0.5194
16571TIP3    H171128   1.928   4.062  15.782 -0.8374 -0.4146  0.9903
16571TIP3    H271129   1.974   3.955  15.880 -0.1590 -2.1350 -1.1212
16572TIP3   OH271130   2.628   2.578  15.683 -0.3508 -0.4434 -0.4555
16572TIP3    H171131   2.647   2.660  15.637 -0.5583  0.7023  1.3960
16572TIP3    H271132   2.557   2.539  15.633  0.9893 -0.4869 -2.4702
16573TIP3   OH271133   4.451   5.691  16.384 -0.2332 -0.4135 -0.1630
16573TIP3    H171134   4.490   5.707  16.298 -1.8141  1.7301 -0.5524
16573TIP3    H271135   4.512   5.733  16.446 -0.7440  1.0018 -0.5740
16574TIP3   OH271136   1.330   0.889   0.395 -0.1746 -0.4644  0.8286
16574TIP3    H171137   1.418   0.927   0.388  0.0188 -0.6123  2.1848
16574TIP3    H271138   1.346   0.798   0.418 -0.5795 -1.9595 -3.8389
16575TIP3   OH271139   2.187   0.061  16.592  0.5001 -0.2463  0.3352
16575TIP3    H171140   2.248   0.124  16.554  1.1104 -0.2161  1.3285
16575TIP3    H271141   2.193   0.076  16.686  0.1648 -1.3441  0.5462
16576TIP3   OH271142   4.967   5.814   2.100  0.0162 -0.0187  0.2960
16576TIP3    H171143   4.947   5.797   2.192  1.9847 -1.5474  0.5178
16576TIP3    H271144   5.028   5.888   2.103  0.8519 -0.6863  0.3492
16577TIP3   OH271145   0.179   4.931  15.106  0.1358  0.3644 -0.6888
16577TIP3    H171146   0.201   4.965  15.019 -1.7019  0.6617 -1.0915
16577TIP3    H271147   0.101   4.877  15.091  0.3600 -0.3797  0.6445
16578TIP3   OH271148   1.539   5.583   0.090 -0.6520 -0.1788  0.4313
16578TIP3    H171149   1.635   5.592   0.090 -0.5746 -0.9337  0.4400
16578TIP3    H271150   1.508   5.652   0.149 -0.0921 -0.1738  0.7232
16579TIP3   OH271151   0.749   0.581   5.550  0.1617  0.4461 -0.5289
16579TIP3    H171152   0.819   0.617   5.605 -0.2792  0.8799 -0.2467
16579TIP3    H271153   0.791   0.567   5.465  0.6335  0.5592 -0.3211
16580TIP3   OH271154   5.202   3.179  11.625  0.3886 -0.0030 -0.8924
16580TIP3    H171155   5.241   3.093  11.615 -1.0123 -0.6881 -0.7078
16580TIP3    H271156   5.111   3.162  11.648  0.8955  1.4870  2.8624
16581TIP3   OH271157   2.712   6.174  13.083 -0.4570  0.2080  0.2393
16581TIP3    H171158   2.635   6.201  13.132 -0.2648  0.3372  0.4754
16581TIP3    H271159   2.781   6.235  13.112 -0.0168 -0.5350  0.7754
16582TIP3   OH271160   1.964   3.167  15.568  0.2059 -0.2190  0.0493
16582TIP3    H171161   1.931   3.243  15.521 -0.0173  0.7375  1.6767
16582TIP3    H271162   1.916   3.166  15.650  0.3689 -2.0022  0.1720
16583TIP3   OH271163   4.153   2.038   0.986  0.0010 -0.1738  0.3477
16583TIP3    H171164   4.060   2.035   1.008 -0.6449  2.7098 -1.3716
16583TIP3    H271165   4.164   1.972   0.918 -0.8522 -0.3827  0.4013
16584TIP3   OH271166   6.267   1.934  12.494  0.8924  0.1852 -0.2059
16584TIP3    H171167   6.235   2.015  12.455  1.5627  1.0477  0.9454
16584TIP3    H271168   6.261   1.949  12.588  0.9752 -1.1392  0.0300
16585TIP3   OH271169   0.233   2.806   2.365  0.3773 -0.6968  0.2653
16585TIP3    H171170   0.260   2.717   2.343  0.3102 -0.7645  0.4490
16585TIP3    H271171   0.139   2.808   2.346  0.6464 -0.2230 -1.1310
16586TIP3   OH271172   4.149   4.367   1.880  0.2820 -0.3244  0.5222
16586TIP3    H171173   4.116   4.400   1.964 -2.1924 -2.3265  0.4506
16586TIP3    H271174   4.071   4.335   1.835  1.9471 -2.1313 -1.2594
16587TIP3   OH271175   1.714   1.572  14.793 -0.0534 -0.1399 -0.2487
16587TIP3    H171176   1.757   1.601  14.713 -0.8674  0.0782 -0.6192
16587TIP3    H271177   1.674   1.488  14.769  0.3716 -0.4597  0.1605
16588TIP3   OH271178   2.653   2.813  12.068  0.0174  0.0051 -0.0416
16588TIP3    H171179   2.655   2.751  12.141  1.9358  0.8707  0.7072
16588TIP3    H271180   2.642   2.759  11.990 -0.5523 -1.0683  0.7717
16589TIP3   OH271181   6.279   2.265  12.044 -0.3838 -0.1276 -0.1869
16589TIP3    H171182   6.361   2.265  11.996  0.5140 -0.6122  1.2882
16589TIP3    H271183   6.219   2.214  11.990 -0.1137  1.2537 -1.8720
16590TIP3   OH271184   3.136   3.374  14.992 -0.5694  0.3403  1.0592
16590TIP3    H171185   3.122   3.372  15.087  1.0016 -1.1106  1.3254
16590TIP3    H271186   3.230   3.390  14.983 -0.1607 -2.1881 -0.1253
16591TIP3   OH271187   3.182   5.660  17.166  0.4481  0.5009 -0.1470
16591TIP3    H171188   3.186   5.618  17.252  0.9268  2.5182  0.8788
16591TIP3    H271189   3.263   5.633  17.123  0.8308  0.4837  0.5541
16592TIP3   OH271190   5.654   6.213   1.855  0.4359  0.1800 -0.6594
16592TIP3    H171191   5.640   6.129   1.900 -0.2227  0.4142 -0.4085
16592TIP3    H271192   5.609   6.203   1.771 -0.6029  0.6618 -0.1739
16593TIP3   OH271193   0.226   2.514   0.689 -0.0516  0.0086  0.8670
16593TIP3    H171194   0.284   2.470   0.751  1.5398 -0.8243 -1.1034
16593TIP3    H271195   0.155   2.451   0.675  1.3376 -1.3068 -0.6477
16594TIP3   OH271196   5.956   2.251  15.963 -0.1842  0.0972 -0.4142
16594TIP3    H171197   5.977   2.282  16.051 -1.1922 -0.7940  0.1748
16594TIP3    H271198   5.919   2.163  15.977 -0.7578  0.1094 -1.6862
16595TIP3   OH271199   1.603   5.734  15.532 -0.4530  0.4104 -0.3673
16595TIP3    H171200   1.689   5.715  15.495 -0.2160 -0.5580  0.6212
16595TIP3    H271201   1.621   5.788  15.609 -0.8117  0.9915 -0.6840
16596TIP3   OH271202   2.885   0.883   5.133  0.2188  0.4639  0.3670
16596TIP3    H171203   2.974   0.917   5.145  0.4409  0.1958 -0.4668
16596TIP3    H271204   2.834   0.960   5.108  0.5949  0.3169 -0.9135
16597TIP3   OH271205   0.660   2.658  14.203  0.2795 -0.2083  0.5362
16597TIP3    H171206   0.713   2.608  14.264  0.4354 -1.3666 -0.5079
16597TIP3    H271207   0.698   2.639  14.117  2.0824  3.7760  0.2080
16598TIP3   OH271208   0.760   1.750   5.155 -0.1565  0.4242  0.0760
16598TIP3    H171209   0.822   1.774   5.224  1.0883 -1.3467 -0.3301
16598TIP3    H271210   0.767   1.820   5.091  1.1895  0.4448  0.2210
16599TIP3   OH271211   6.069   2.208   3.928 -0.9895  0.2076  0.1830
16599TIP3    H171212   6.010   2.282   3.937  1.3158  2.1804  0.0235
16599TIP3    H271213   6.093   2.207   3.836  0.5645  0.6086  0.5449
16600TIP3   OH271214   3.398   4.184  12.931  0.2251 -0.7187  0.9019
16600TIP3    H171215   3.367   4.216  13.015  0.3080 -1.4555  1.2197
16600TIP3    H271216   3.458   4.112  12.953 -1.7987 -2.7552  0.1820
16601TIP3   OH271217   2.469   1.529  14.143 -0.4807  0.6875  0.0550
16601TIP3    H171218   2.454   1.546  14.050 -0.4107  0.1396 -0.0598
16601TIP3    H271219   2.563   1.545  14.156 -0.4839  0.7311  0.0193
16602TIP3   OH271220   2.702   1.864   5.295  0.1191  0.4773 -0.2176
16602TIP3    H171221   2.628   1.815   5.259 -0.6484  0.8761  0.7725
16602TIP3    H271222   2.701   1.844   5.388  1.6820 -0.0309 -0.2791
16603TIP3   OH271223   0.515   1.238  16.860  0.0017 -0.1851 -0.1399
16603TIP3    H171224   0.462   1.190  16.797 -0.1042  0.1305 -0.2959
16603TIP3    H271225   0.508   1.329  16.832  0.2862 -0.0922  0.0858
16604TIP3   OH271226   5.412   6.688   2.142  0.2307 -0.1850  0.0999
16604TIP3    H171227   5.428   6.595   2.126  0.8381 -0.2852  1.2160
16604TIP3    H271228   5.435   6.701   2.234  1.9488  1.4537 -0.5029
16605TIP3   OH271229   0.843   4.422  14.208 -0.6509  0.2033 -0.6704
16605TIP3    H171230   0.843   4.513  14.236 -2.0504  0.5868 -1.7678
16605TIP3    H271231   0.785   4.377  14.270  2.2594 -0.6254  1.6473
16606TIP3   OH271232   6.349   6.509   3.743 -0.3685 -0.2441 -0.3573
16606TIP3    H171233   6.339   6.416   3.722 -0.2253 -0.7382  1.5828
16606TIP3    H271234   6.442   6.528   3.729 -0.3900 -0.3881 -0.7112
16607TIP3   OH271235   4.611   5.737   4.002 -0.1409  0.1728 -0.1234
16607TIP3    H171236   4.666   5.781   4.067 -0.8927 -0.4244  0.9504
16607TIP3    H271237   4.549   5.803   3.973  0.0290  0.3671 -0.0440
16608TIP3   OH271238   6.671   0.107   1.887 -0.4192 -0.1848  0.0031
16608TIP3    H171239   6.707   0.032   1.935 -0.8109 -0.8833 -0.7691
16608TIP3    H271240   6.576   0.095   1.891 -0.5343  0.7794  0.6477
16609TIP3   OH271241   0.990   2.106   1.195 -0.3289  0.2692  0.4169
16609TIP3    H171242   1.069   2.127   1.244  0.8613 -1.9575 -0.3797
16609TIP3    H271243   0.920   2.154   1.240  1.4726  2.4887  1.0064
16610TIP3   OH271244   3.963   3.787   0.396  0.0741  0.1815  0.2338
16610TIP3    H171245   3.976   3.859   0.335 -0.6733 -0.9989 -1.4138
16610TIP3    H271246   3.969   3.708   0.342 -1.5939 -0.8957  1.4843
16611TIP3   OH271247   3.445   6.510  16.637 -0.3387  0.0775 -0.1424
16611TIP3    H171248   3.462   6.604  16.640  0.5395 -0.0697 -0.2047
16611TIP3    H271249   3.500   6.473  16.707  1.0542 -0.6169 -1.5349
16612TIP3   OH271250   0.971   0.905   4.964 -0.4737  0.0938  0.0167
16612TIP3    H171251   0.906   0.842   4.933 -1.5617  0.1553  2.0783
16612TIP3    H271252   0.933   0.990   4.945  0.1511  0.1621 -1.0248
16613TIP3   OH271253   2.033   4.413  13.688 -0.0694  0.1696  0.0048
16613TIP3    H171254   2.070   4.501  13.685  0.0370  0.0909 -1.2502
16613TIP3    H271255   1.942   4.425  13.659  0.0801 -0.1925 -0.6263
16614TIP3   OH271256   4.937   4.809  13.368  0.4596 -0.7226  0.2295
16614TIP3    H171257   4.941   4.849  13.455  1.6694 -0.3503  0.0316
16614TIP3    H271258   4.966   4.878  13.309 -0.0215 -1.0812 -0.4356
16615TIP3   OH271259   2.288   5.105  16.191 -0.5666  0.3197  0.4936
16615TIP3    H171260   2.369   5.089  16.240 -0.9882 -1.0985  0.7649
16615TIP3    H271261   2.317   5.148  16.111  0.6820 -1.7723 -0.2542
16616TIP3   OH271262   6.068   2.918  15.436  0.4266  0.0888  0.3631
16616TIP3    H171263   6.160   2.901  15.416  0.7474  1.0613  0.9476
16616TIP3    H271264   6.037   2.972  15.364  0.7047  0.9091  0.8414
16617TIP3   OH271265   6.455   2.754  14.106 -0.0677  0.3484 -0.7098
16617TIP3    H171266   6.510   2.776  14.182  1.6595  1.1331 -2.1279
16617TIP3    H271267   6.427   2.664  14.123  0.4583  0.4248  0.7475
16618TIP3   OH271268   3.503   2.243  11.287  0.7278 -0.0474 -0.4269
16618TIP3    H171269   3.587   2.283  11.312  2.3465 -1.6591 -2.8529
16618TIP3    H271270   3.473   2.294  11.213  0.0638 -0.1028 -0.2023
16619TIP3   OH271271   1.435   6.567  11.601  0.0830  0.2193 -0.4503
16619TIP3    H171272   1.396   6.514  11.532  1.1894  0.1238 -1.0218
16619TIP3    H271273   1.420   6.658  11.573  1.6310  0.1911 -1.5024
16620TIP3   OH271274   4.465   4.416  13.040 -0.0784  0.1578  0.5660
16620TIP3    H171275   4.485   4.452  13.126  0.3462  0.6432  0.2646
16620TIP3    H271276   4.387   4.464  13.012 -0.4188 -0.2358  0.8162
16621TIP3   OH271277   3.449   3.234  11.241  0.2503 -0.1760 -0.1327
16621TIP3    H171278   3.393   3.309  11.261  2.0926  0.6691  2.3379
16621TIP3    H271279   3.524   3.272  11.196 -0.1730 -1.0366 -1.6511
16622TIP3   OH271280   3.486   1.319  12.874 -0.1072  0.4503  0.8691
16622TIP3    H171281   3.439   1.306  12.791 -1.0276 -0.6360  1.5225
16622TIP3    H271282   3.565   1.367  12.849 -1.1136  1.5340 -0.4017
16623TIP3   OH271283   1.205   0.140  10.894  0.0678  0.8025 -0.9575
16623TIP3    H171284   1.141   0.069  10.890 -1.8845  2.4450 -1.0235
16623TIP3    H271285   1.245   0.141  10.807  1.0238 -0.9434 -0.5736
16624TIP3   OH271286   0.703   4.269  12.235  0.5367  0.5617  0.4565
16624TIP3    H171287   0.615   4.302  12.251 -0.5475 -1.9110  0.0826
16624TIP3    H271288   0.723   4.215  12.312  1.1178  0.0004 -0.0722
16625TIP3   OH271289   4.859   3.248   1.681  0.0482 -0.1388 -0.4190
16625TIP3    H171290   4.894   3.290   1.602  0.8649 -1.1061 -0.5989
16625TIP3    H271291   4.934   3.239   1.739  0.2378 -2.4916 -0.9092
16626TIP3   OH271292   3.215   6.207  11.255 -0.1029 -0.0578  0.2797
16626TIP3    H171293   3.294   6.217  11.308  0.7538 -1.2258 -0.7237
16626TIP3    H271294   3.172   6.130  11.292 -1.2020  0.9991  1.2973
16627TIP3   OH271295   1.887   3.210  16.125  0.3756  0.3179 -0.3801
16627TIP3    H171296   1.873   3.123  16.164 -0.2092  0.4788 -0.2325
16627TIP3    H271297   1.948   3.194  16.053  1.2985 -0.0203  0.4503
16628TIP3   OH271298   3.413   0.027  14.778  0.1695 -0.9142 -0.6760
16628TIP3    H171299   3.490   0.028  14.835  0.7833  0.2629 -1.4921
16628TIP3    H271300   3.445  -0.004  14.694  0.7270  3.2637 -2.2240
16629TIP3   OH271301   1.011   5.037  14.917  0.0052  0.2678 -0.2838
16629TIP3    H171302   1.101   5.010  14.936  0.5520  0.4296 -2.4097
16629TIP3    H271303   0.989   5.098  14.987  1.8401  0.8396 -0.1626
16630TIP3   OH271304   4.238   2.886   4.972 -0.8659  0.1234  0.3184
16630TIP3    H171305   4.271   2.973   4.991 -1.6662  0.3925  0.5518
16630TIP3    H271306   4.153   2.901   4.931 -0.5386 -0.5314 -0.6297
16631TIP3   OH271307   1.847   1.920  14.156 -0.1338 -0.0994 -0.0715
16631TIP3    H171308   1.790   1.905  14.232 -1.3985 -0.8638 -1.1218
16631TIP3    H271309   1.931   1.945  14.194  0.1462 -3.2166  1.7341
16632TIP3   OH271310   0.438   0.562  14.455 -0.1940  0.4844 -0.7677
16632TIP3    H171311   0.508   0.557  14.520  0.1110  0.3653 -1.1042
16632TIP3    H271312   0.359   0.579  14.506  0.2926  2.1416 -0.4886
16633TIP3   OH271313   2.846   6.527   2.196  0.6710  0.1872  0.3952
16633TIP3    H171314   2.762   6.510   2.240  2.0235 -0.4449  2.8853
16633TIP3    H271315   2.845   6.470   2.119 -0.9893 -0.1152  0.6080
16634TIP3   OH271316   2.916   1.993   5.497 -0.2924 -0.5066 -0.2980
16634TIP3    H171317   2.886   1.947   5.418 -2.6487  1.7939 -0.8824
16634TIP3    H271318   2.972   2.063   5.464 -1.2391  0.4266  0.0129
16635TIP3   OH271319   1.477   1.581  16.950  0.0713 -0.0445 -0.4121
16635TIP3    H171320   1.543   1.532  16.901  1.4249  0.9830  0.3188
16635TIP3    H271321   1.439   1.516  17.009 -1.3156 -1.2107 -2.4545
16636TIP3   OH271322   0.387   0.201  13.702  0.1555  0.4245  0.0932
16636TIP3    H171323   0.297   0.233  13.705  1.1415  3.3762  1.2864
16636TIP3    H271324   0.419   0.225  13.615 -0.0393 -0.2619 -0.1800
16637TIP3   OH271325   4.745   0.828  17.025 -0.1613 -0.2002  0.0771
16637TIP3    H171326   4.781   0.739  17.019  1.2809  0.3017  0.8413
16637TIP3    H271327   4.693   0.827  17.105  0.3484 -0.1821  0.4084
16638TIP3   OH271328   1.298   4.446  13.148 -0.3915  0.5721  0.2225
16638TIP3    H171329   1.342   4.408  13.073 -0.3089  0.5780  0.2671
16638TIP3    H271330   1.272   4.533  13.119 -0.6390  0.4557  0.0993
16639TIP3   OH271331   3.354   2.781  14.932  0.3704 -0.3828 -0.2392
16639TIP3    H171332   3.347   2.741  14.845  1.9162  0.9073 -1.0301
16639TIP3    H271333   3.442   2.758  14.961 -0.2641 -1.1051  1.1813
16640TIP3   OH271334   4.339   4.474  12.100 -0.0994  0.1663 -0.5827
16640TIP3    H171335   4.400   4.418  12.148  1.3751  1.9637 -0.2314
16640TIP3    H271336   4.255   4.463  12.144  0.8120  0.3763  1.2802
16641TIP3   OH271337   6.765   2.987   5.024 -0.1167  0.0169  0.0962
16641TIP3    H171338   6.810   3.040   5.090 -0.4267 -1.1243  1.2733
16641TIP3    H271339   6.828   2.977   4.953  0.1576  1.4309  0.1219
16642TIP3   OH271340   1.062   5.195  14.024  0.1242  0.3286 -0.3884
16642TIP3    H171341   0.976   5.195  13.982 -0.7972  0.5595  1.3630
16642TIP3    H271342   1.125   5.191  13.952 -1.3667 -2.1210 -1.6793
16643TIP3   OH271343   6.051   4.682   0.833 -0.4730 -0.8340  0.1090
16643TIP3    H171344   6.044   4.641   0.919  0.3514 -3.5551 -1.0134
16643TIP3    H271345   6.092   4.616   0.777 -0.7021  0.9142 -2.3388
16644TIP3   OH271346   1.880   1.615  15.034 -0.1067 -0.1219  0.1088
16644TIP3    H171347   1.838   1.669  14.966 -0.0649 -1.0113 -0.6469
16644TIP3    H271348   1.822   1.622  15.110 -1.2997 -0.7993 -0.6999
16645TIP3   OH271349   5.657   5.998   0.146  0.4020 -0.2583 -0.6997
16645TIP3    H171350   5.615   5.960   0.069  0.5109  0.2310 -1.0032
16645TIP3    H271351   5.750   6.001   0.125  1.1187 -4.0346  1.0709
16646TIP3   OH271352   6.386   3.250  15.001 -0.1108  0.0894 -0.0764
16646TIP3    H171353   6.413   3.216  15.087  1.2611  2.2747  0.4351
16646TIP3    H271354   6.304   3.205  14.983 -0.7890  0.0010  2.7039
16647TIP3   OH271355   4.609   0.296  12.553  0.1581  0.1687  0.6663
16647TIP3    H171356   4.514   0.287  12.545  0.1804  0.4987 -0.0527
16647TIP3    H271357   4.627   0.284  12.647 -0.4822 -0.8051  0.6719
16648TIP3   OH271358   6.227   2.915  13.546 -0.1086 -0.7564 -0.7370
16648TIP3    H171359   6.167   2.988  13.558 -0.4501 -1.0715 -0.5166
16648TIP3    H271360   6.172   2.837  13.549  0.1552 -0.9999 -1.6422
16649TIP3   OH271361   4.958   2.390   1.983 -0.4140 -0.3031 -0.9871
16649TIP3    H171362   5.044   2.412   1.948  0.7690 -2.9134  0.0233
16649TIP3    H271363   4.960   2.423   2.073 -0.2524 -0.7838 -0.8091
16650TIP3   OH271364   1.444   2.218  13.464  0.1084  0.3332  0.1706
16650TIP3    H171365   1.439   2.137  13.514  2.5392  0.2116  0.3405
16650TIP3    H271366   1.478   2.192  13.378 -1.8830  0.8353 -0.8383
16651TIP3   OH271367   5.865   0.126   6.272 -0.1983  0.1839 -0.5319
16651TIP3    H171368   5.845   0.067   6.345 -1.7281 -0.5653 -1.5228
16651TIP3    H271369   5.812   0.204   6.290 -0.2610  0.1671 -0.6488
16652TIP3   OH271370   1.870   5.756   6.072  0.4544  0.0148  0.7148
16652TIP3    H171371   1.813   5.685   6.103  0.3646  0.4205  1.4963
16652TIP3    H271372   1.825   5.836   6.097  0.3074  0.3730 -0.6190
16653TIP3   OH271373   6.432   6.452   4.107 -0.5548 -0.5024 -0.3578
16653TIP3    H171374   6.462   6.442   4.198 -0.3597  0.4550 -0.3116
16653TIP3    H271375   6.460   6.371   4.064  0.8655 -0.2448  0.0281
16654TIP3   OH271376   2.866   4.269  13.699 -0.4410  0.0940 -0.0493
16654TIP3    H171377   2.933   4.337  13.698 -0.5346  0.2255 -1.7718
16654TIP3    H271378   2.805   4.295  13.629  0.0484 -2.2149 -1.4520
16655TIP3   OH271379   2.345   3.260  14.283  0.3593  0.4246 -0.7100
16655TIP3    H171380   2.324   3.322  14.214 -1.1803  0.7178 -0.0332
16655TIP3    H271381   2.411   3.304  14.337 -0.2409  1.2228 -0.6075
16656TIP3   OH271382   1.330   2.183  15.442 -0.0921  0.0287  0.1522
16656TIP3    H171383   1.388   2.253  15.413  0.6960 -1.3484 -1.8269
16656TIP3    H271384   1.243   2.222  15.442  0.5260  1.4991  0.9425
16657TIP3   OH271385   1.797   1.752   4.409 -0.2522 -0.4550 -0.4990
16657TIP3    H171386   1.745   1.678   4.441 -1.0351 -1.1890 -3.1969
16657TIP3    H271387   1.829   1.724   4.324 -0.1675  2.1450 -1.4109
16658TIP3   OH271388   5.530   1.499  10.323 -0.0012  0.1772 -0.5357
16658TIP3    H171389   5.594   1.482  10.393  0.3341 -0.2307 -0.9309
16658TIP3    H271390   5.584   1.520  10.246 -0.1342 -3.4105 -1.7902
16659TIP3   OH271391   3.180   5.870  15.338  0.8798  0.1618 -0.4066
16659TIP3    H171392   3.096   5.868  15.292  1.5459  1.9592 -1.8189
16659TIP3    H271393   3.206   5.778  15.343 -0.9578 -0.3935 -0.3221
16660TIP3   OH271394   5.283   1.632   0.016  0.6208  0.1477  0.8218
16660TIP3    H171395   5.243   1.565  -0.039 -0.7628 -0.6904  2.7816
16660TIP3    H271396   5.337   1.584   0.078  1.8170  1.0599  0.5439
16661TIP3   OH271397   1.598   1.742  10.260  0.0296  0.3606 -0.1860
16661TIP3    H171398   1.597   1.837  10.257 -1.3577  0.3675 -0.2374
16661TIP3    H271399   1.670   1.720  10.319 -1.0945  1.5256  1.7037
16662TIP3   OH271400   3.907   2.804   1.301 -0.3244 -0.6247 -0.2976
16662TIP3    H171401   3.913   2.884   1.353 -0.2957 -0.4108 -0.6247
16662TIP3    H271402   3.875   2.834   1.216  2.2892 -0.5512 -1.3429
16663TIP3   OH271403   3.508   4.896  14.371 -0.4260  0.2247 -0.2482
16663TIP3    H171404   3.505   4.945  14.454  1.0177  0.1574 -0.1335
16663TIP3    H271405   3.464   4.813  14.391 -1.7043  0.9227 -0.0727
16664TIP3   OH271406   5.684   3.940   0.301 -0.5401  0.4878 -0.0504
16664TIP3    H171407   5.702   3.957   0.393 -0.0820  0.3970 -0.1163
16664TIP3    H271408   5.639   3.856   0.300 -1.6077  1.0413  0.1760
16665TIP3   OH271409   4.235   3.334   1.909  0.2728  0.0376 -0.0529
16665TIP3    H171410   4.198   3.408   1.955 -3.2235  0.6104 -3.2696
16665TIP3    H271411   4.330   3.348   1.913 -0.1200  3.0027  1.9741
16666TIP3   OH271412   1.319   2.757   0.246  0.0081  0.2059 -0.1048
16666TIP3    H171413   1.291   2.739   0.157  0.8057 -0.1515 -0.2865
16666TIP3    H271414   1.329   2.852   0.249 -2.3629  0.5180  0.3171
16667TIP3   OH271415   5.351   2.334  12.325  0.0047  0.2237  0.3561
16667TIP3    H171416   5.426   2.372  12.370  0.2809  0.3961 -0.2490
16667TIP3    H271417   5.348   2.378  12.240  1.3987 -2.2786 -1.1201
16668TIP3   OH271418   0.528   6.775  15.116 -0.0052 -0.0026 -0.2027
16668TIP3    H171419   0.594   6.823  15.166  0.6822  0.7633 -1.7715
16668TIP3    H271420   0.560   6.776  15.026 -2.3563  0.8038 -1.1214
16669TIP3   OH271421   0.735   1.657  15.675  0.5144  0.1268 -0.0934
16669TIP3    H171422   0.689   1.660  15.591  0.8919 -2.1167 -0.4428
16669TIP3    H271423   0.665   1.653  15.741  0.2030 -0.6716 -0.4639
16670TIP3   OH271424   4.805   4.762   4.387  0.0045  0.0350  0.2590
16670TIP3    H171425   4.716   4.795   4.395 -0.0416  0.3497 -1.2122
16670TIP3    H271426   4.820   4.756   4.292  0.7736 -2.1213  0.4699
16671TIP3   OH271427   2.461   2.245   2.681 -0.1203  0.1627  0.2401
16671TIP3    H171428   2.499   2.315   2.734 -1.0147  0.4207  0.5520
16671TIP3    H271429   2.386   2.285   2.638  0.3141 -0.1731 -0.8670
16672TIP3   OH271430   5.285   4.463  14.174 -0.1441 -0.0565 -0.0466
16672TIP3    H171431   5.291   4.425  14.087 -0.2977 -1.2175  0.4364
16672TIP3    H271432   5.369   4.506  14.187  0.2902 -0.7887 -0.3582
16673TIP3   OH271433   3.541   5.011  12.435  0.4245 -0.0410  0.3314
16673TIP3    H171434   3.629   4.998  12.399  0.3616 -0.7864  0.4346
16673TIP3    H271435   3.548   4.984  12.527  0.2965  0.7230  0.5690
16674TIP3   OH271436   1.837   1.433   0.425 -0.9425  0.2541  0.3066
16674TIP3    H171437   1.910   1.406   0.481 -0.9842 -1.6112 -0.4616
16674TIP3    H271438   1.880   1.476   0.350 -0.5860 -0.9061 -0.1817
16675TIP3   OH271439   4.330   6.710   6.474  0.2075  0.0208 -0.5176
16675TIP3    H171440   4.303   6.627   6.513 -1.5529  0.2840 -1.0999
16675TIP3    H271441   4.295   6.708   6.385  0.5152  1.2112 -0.6900
16676TIP3   OH271442   3.196   2.185  15.901  0.5676 -0.2571  0.1584
16676TIP3    H171443   3.122   2.176  15.840 -0.7059 -3.7060  1.9447
16676TIP3    H271444   3.163   2.241  15.971  0.0132 -0.8384  0.3746
16677TIP3   OH271445   2.577   6.280   0.767 -0.1185  0.1532  0.4264
16677TIP3    H171446   2.610   6.341   0.833 -1.1418 -0.2224  1.3315
16677TIP3    H271447   2.625   6.301   0.687  0.8455  0.9116  1.1887
16678TIP3   OH271448   0.993   0.657  11.216  0.6606  0.2137  0.0727
16678TIP3    H171449   0.970   0.569  11.246  0.4742  0.1745 -0.1834
16678TIP3    H271450   0.983   0.653  11.121  1.1169  0.3787  0.0198
16679TIP3   OH271451   1.206   3.454   1.792 -0.3696 -0.2227  0.1894
16679TIP3    H171452   1.249   3.518   1.735  0.2513 -1.3106 -0.5959
16679TIP3    H271453   1.151   3.402   1.733 -0.6173 -0.6272  0.7693
16680TIP3   OH271454   2.821   2.946   3.136  0.1175 -0.0142  0.4297
16680TIP3    H171455   2.898   2.912   3.091  0.6964  0.8107  0.7598
16680TIP3    H271456   2.761   2.970   3.066  0.7612  0.6843  0.1002
16681TIP3   OH271457   5.883   4.473   6.050 -0.1730  0.3240  0.2493
16681TIP3    H171458   5.796   4.508   6.070  0.7516  2.4839  0.7512
16681TIP3    H271459   5.939   4.511   6.117  1.3861 -0.0117 -0.8316
16682TIP3   OH271460   5.453   4.619  14.432 -0.2127 -0.6233  0.3384
16682TIP3    H171461   5.512   4.562  14.382 -0.5195 -1.3451  0.7826
16682TIP3    H271462   5.385   4.644  14.370 -0.3074 -1.0905  0.2549
16683TIP3   OH271463   4.421   6.361  16.402  0.8275  0.1400  0.5108
16683TIP3    H171464   4.454   6.277  16.434  1.6275  0.8591  1.6371
16683TIP3    H271465   4.464   6.373  16.317  1.9275  0.1240  1.0547
16684TIP3   OH271466   5.915   6.396  13.508 -0.5841  0.0020 -0.3062
16684TIP3    H171467   5.998   6.432  13.539 -1.5897  1.1525  1.1776
16684TIP3    H271468   5.850   6.464  13.529 -1.7040 -0.1468 -2.8988
16685TIP3   OH271469   3.173   4.782   6.087  0.2690 -0.2301 -0.4467
16685TIP3    H171470   3.094   4.829   6.061 -0.0094 -1.2705 -1.5513
16685TIP3    H271471   3.167   4.777   6.183 -0.7623  0.1001 -0.4801
16686TIP3   OH271472   5.948   6.397  15.161  0.4519 -0.5903 -0.3041
16686TIP3    H171473   5.878   6.359  15.214 -0.6545 -1.3150 -2.1989
16686TIP3    H271474   6.025   6.395  15.218 -0.9880  0.0735  1.7824
16687TIP3   OH271475   5.945   3.128  13.452 -1.0260  0.3570 -0.3335
16687TIP3    H171476   5.875   3.192  13.439  1.0630  2.6411 -1.2409
16687TIP3    H271477   5.975   3.107  13.363  1.2415  1.6583  0.0585
16688TIP3   OH271478   4.757   3.499  13.406  0.6984  0.1175  0.3159
16688TIP3    H171479   4.828   3.559  13.430  0.0956  1.3006 -0.7479
16688TIP3    H271480   4.686   3.557  13.378  0.2107 -1.0999 -1.0619
16689TIP3   OH271481   0.164   3.080   1.420  0.0751 -0.1137  0.1767
16689TIP3    H171482   0.133   3.066   1.509  0.6427 -1.2031  0.2166
16689TIP3    H271483   0.136   3.003   1.372 -1.2997  1.0112 -0.9097
16690TIP3   OH271484   2.674   5.097   3.411  0.5492 -0.1163 -0.1881
16690TIP3    H171485   2.636   5.147   3.483  0.8342 -1.9306  1.2912
16690TIP3    H271486   2.615   5.023   3.399  1.1493 -0.4737 -1.0047
16691TIP3   OH271487   5.758   4.862  16.204  0.1793 -0.3993  0.1556
16691TIP3    H171488   5.683   4.809  16.177  0.3657 -1.0225  0.8301
16691TIP3    H271489   5.802   4.809  16.270 -0.4067  1.1691  1.8795
16692TIP3   OH271490   2.486   4.795  14.285 -0.5631 -0.3180  0.3248
16692TIP3    H171491   2.425   4.863  14.255 -0.6076 -0.5743 -0.1643
16692TIP3    H271492   2.520   4.829  14.368 -0.5940  0.2966  0.0922
16693TIP3   OH271493   3.968   2.815  17.163 -0.1096 -0.0355  0.0242
16693TIP3    H171494   3.965   2.910  17.150  0.5725  0.0009  0.0804
16693TIP3    H271495   4.056   2.799  17.198 -0.8450 -0.4628  1.7696
16694TIP3   OH271496   3.690   5.482   6.036 -0.4706  0.6092  0.2136
16694TIP3    H171497   3.645   5.533   6.103 -1.2351  1.0502 -0.6178
16694TIP3    H271498   3.624   5.424   5.999  0.0773 -0.0422  0.2194
16695TIP3   OH271499   3.534   5.520  12.004 -0.6209  0.5984  0.2311
16695TIP3    H171500   3.459   5.563  11.963 -0.9887 -1.2853 -1.2575
16695TIP3    H271501   3.548   5.441  11.951  1.7720  0.3533  1.0919
16696TIP3   OH271502   5.392   6.710  15.309 -0.0338 -0.3328  0.3950
16696TIP3    H171503   5.426   6.635  15.358 -0.9835  0.4304  2.3305
16696TIP3    H271504   5.430   6.786  15.353  1.9281  0.3976 -2.3126
16697TIP3   OH271505   6.547   3.854   3.544  0.5695  0.7672  0.2775
16697TIP3    H171506   6.471   3.857   3.602 -0.8746 -1.9211 -1.2497
16697TIP3    H271507   6.587   3.769   3.563  2.0198  1.2753 -0.3797
16698TIP3   OH271508   4.325   3.738   2.828 -0.4340 -0.2686  0.0745
16698TIP3    H171509   4.374   3.733   2.910  0.9250  0.9416 -0.6077
16698TIP3    H271510   4.233   3.741   2.854  0.0004  0.8177  1.5952
16699TIP3   OH271511   0.660   5.900  14.994  0.1165  0.2457 -0.4049
16699TIP3    H171512   0.718   5.866  14.926 -0.3857 -2.4517  0.3960
16699TIP3    H271513   0.572   5.884  14.960 -0.1418  0.8310 -0.0117
16700TIP3   OH271514   2.564   0.048  15.261 -0.4714  0.3609  0.1098
16700TIP3    H171515   2.538  -0.044  15.268 -0.5206  0.2030 -1.7766
16700TIP3    H271516   2.483   0.097  15.275 -0.1755  0.2479  2.7587
16701TIP3   OH271517   0.107   3.123   2.217  0.2424  0.0526 -0.3015
16701TIP3    H171518   0.063   3.197   2.257 -0.7070 -0.5936 -0.1106
16701TIP3    H271519   0.197   3.128   2.248  0.2892  1.3253 -0.5919
16702TIP3   OH271520   4.410   3.479  16.122  0.5427  0.8473  0.7093
16702TIP3    H171521   4.395   3.491  16.216  0.3292  0.3398  0.7439
16702TIP3    H271522   4.347   3.412  16.096 -0.1200  1.7320 -0.0153
16703TIP3   OH271523   3.798   3.482   0.941  0.0106 -0.1717 -0.5951
16703TIP3    H171524   3.753   3.398   0.939 -1.3193  0.5211 -2.1448
16703TIP3    H271525   3.831   3.493   0.851  1.3347  0.3677 -0.0647
16704TIP3   OH271526   5.645   3.711   2.124 -0.0145 -0.1348 -0.2881
16704TIP3    H171527   5.584   3.779   2.094  0.0964  0.1687  0.1617
16704TIP3    H271528   5.632   3.638   2.063  0.6138  0.6747 -1.4131
16705TIP3   OH271529   1.555   1.170  16.451 -0.2871 -0.2354  0.2020
16705TIP3    H171530   1.590   1.123  16.375  0.0373 -1.6145  1.1723
16705TIP3    H271531   1.460   1.155  16.446 -0.4101  0.6692 -0.5526
16706TIP3   OH271532   0.043   5.498   4.929  0.0800 -0.2081 -0.3199
16706TIP3    H171533  -0.043   5.538   4.915 -0.4688 -0.4889  1.8805
16706TIP3    H271534   0.047   5.426   4.866 -1.1087  0.0874 -0.7520
16707TIP3   OH271535   1.441   3.690   2.173  0.1608  0.0245  0.5729
16707TIP3    H171536   1.369   3.696   2.236  1.4973 -1.2403  2.3167
16707TIP3    H271537   1.514   3.654   2.223  1.5557 -0.2294 -1.5178
16708TIP3   OH271538   1.200   1.387  13.796  0.4569 -0.1427 -0.2264
16708TIP3    H171539   1.195   1.464  13.853  0.6485 -0.9290  0.8630
16708TIP3    H271540   1.163   1.316  13.847 -0.1008 -0.7130 -1.3796
16709TIP3   OH271541   4.003   2.625   2.008 -0.4571 -0.4620 -0.3912
16709TIP3    H171542   4.081   2.654   2.055 -1.1039  0.2176  0.3032
16709TIP3    H271543   3.948   2.704   2.002 -1.5564 -1.1752  0.0992
16710TIP3   OH271544   2.379   1.817   3.931  0.0491  0.0430  0.0734
16710TIP3    H171545   2.404   1.803   4.022 -0.8417 -1.3789  0.1339
16710TIP3    H271546   2.461   1.840   3.886  0.4461  1.0829  1.2608
16711TIP3   OH271547   2.628   1.057   2.433 -0.6194  0.1623  0.1467
16711TIP3    H171548   2.652   1.114   2.360 -0.9789  1.0640  0.7251
16711TIP3    H271549   2.549   1.097   2.470 -1.5243 -1.2986 -0.0956
16712TIP3   OH271550   2.825   4.557  11.762  0.1509  0.1511  0.5238
16712TIP3    H171551   2.862   4.643  11.782  0.4082 -0.0567  0.9677
16712TIP3    H271552   2.731   4.570  11.760  0.1721  0.3710  0.9432
16713TIP3   OH271553   0.392   1.180   5.637 -0.3757 -0.0464 -0.2771
16713TIP3    H171554   0.363   1.271   5.637 -1.0689 -0.2544 -0.9860
16713TIP3    H271555   0.420   1.163   5.727  2.4554  1.6872 -0.7215
16714TIP3   OH271556   1.399   2.422   0.644 -0.1584  0.3539 -0.7107
16714TIP3    H171557   1.366   2.504   0.607  1.0991  0.9085 -0.6478
16714TIP3    H271558   1.452   2.384   0.574 -1.2666 -0.7608 -0.9766
16715TIP3   OH271559   5.176   3.694  14.791  0.5187 -0.3683 -0.4324
16715TIP3    H171560   5.232   3.617  14.795  1.1659  0.1439  1.3165
16715TIP3    H271561   5.237   3.768  14.789 -0.0994  0.1379 -1.4142
16716TIP3   OH271562   2.304   5.249  12.586 -0.0220  0.2905  0.4440
16716TIP3    H171563   2.227   5.271  12.639  0.5451  2.3876  0.4673
16716TIP3    H271564   2.361   5.325  12.594  1.5581 -0.7457 -0.5184
16717TIP3   OH271565   6.399   2.469  14.226 -0.0670 -0.2133  0.0740
16717TIP3    H171566   6.482   2.480  14.273  0.0707  0.0395 -0.2236
16717TIP3    H271567   6.334   2.453  14.295  0.3312 -1.0636  0.2657
16718TIP3   OH271568   5.577   3.967  13.009  0.3907 -0.1040 -0.2394
16718TIP3    H171569   5.588   3.883  12.964 -1.5606  0.1902 -1.4139
16718TIP3    H271570   5.557   3.943  13.100 -0.5721 -0.9478 -0.6561
16719TIP3   OH271571   2.141   0.941  14.191  0.1727 -0.2904 -0.9829
16719TIP3    H171572   2.107   1.006  14.129  2.7515  2.1162 -0.1066
16719TIP3    H271573   2.234   0.934  14.170  0.6613 -1.1130  1.1565
16720TIP3   OH271574   2.187   4.080   3.341 -0.2461  0.2968  0.1247
16720TIP3    H171575   2.096   4.104   3.361 -0.2959  0.1642  0.0593
16720TIP3    H271576   2.229   4.071   3.426  0.4136  2.9853  0.1792
16721TIP3   OH271577   1.547   0.063  16.036 -0.2561 -0.1691  0.0359
16721TIP3    H171578   1.600  -0.005  15.994  0.6365 -0.1522  1.0967
16721TIP3    H271579   1.499   0.018  16.105  1.4732  0.4723  1.7430
16722TIP3   OH271580   2.076   1.945  12.768  0.0619  0.4385  0.5191
16722TIP3    H171581   2.007   1.933  12.703  0.1618  2.2967  0.0166
16722TIP3    H271582   2.138   2.005  12.727  0.8714  0.5077  1.7846
16723TIP3   OH271583   0.687   0.845   4.549  0.7377 -0.1911  0.0186
16723TIP3    H171584   0.729   0.797   4.478  0.0955 -0.0676 -0.4525
16723TIP3    H271585   0.675   0.934   4.514  0.8449 -0.0030  0.4504
16724TIP3   OH271586   3.015   0.703  11.622  0.1467 -0.7518 -0.0401
16724TIP3    H171587   2.961   0.723  11.699  0.1768  0.8512 -0.4021
16724TIP3    H271588   3.069   0.629  11.649 -0.3409 -0.6687  1.2362
16725TIP3   OH271589   0.302   3.158  16.826 -0.4329 -0.7148 -0.5297
16725TIP3    H171590   0.237   3.211  16.781 -1.0193  0.5397  1.6066
16725TIP3    H271591   0.258   3.128  16.905  0.9019 -1.7277 -0.1340
16726TIP3   OH271592   3.830   1.274  12.839 -0.0909  0.0264 -0.1307
16726TIP3    H171593   3.781   1.208  12.789 -1.5242 -0.3627  1.6745
16726TIP3    H271594   3.820   1.354  12.788  0.2776 -0.7711 -1.5201
16727TIP3   OH271595   0.621   4.246   3.890 -0.0883 -0.1058  0.4787
16727TIP3    H171596   0.709   4.208   3.897 -0.1768 -0.5561 -0.6315
16727TIP3    H271597   0.623   4.296   3.808 -0.9729 -0.4152  0.2548
16728TIP3   OH271598   0.315   1.442  14.888 -0.2980 -0.0410 -0.2475
16728TIP3    H171599   0.313   1.385  14.965 -1.5540 -0.1912 -0.3819
16728TIP3    H271600   0.391   1.412  14.839  0.1982 -0.3099  0.6495
16729TIP3   OH271601   6.349   2.900   3.856 -0.7532  0.9484 -0.3158
16729TIP3    H171602   6.314   2.895   3.767  1.6801  0.4684 -1.3199
16729TIP3    H271603   6.407   2.976   3.855 -0.0051  0.4045  0.6038
16730TIP3   OH271604   3.001   4.849  16.648 -0.5565 -0.2264 -0.0405
16730TIP3    H171605   2.998   4.758  16.617 -1.1674  0.1941 -1.3156
16730TIP3    H271606   3.029   4.843  16.739 -1.6130 -1.7744  0.2224
16731TIP3   OH271607   4.760   2.332   5.334  0.0456 -0.6098  0.1336
16731TIP3    H171608   4.805   2.364   5.412 -2.0459  2.1882  0.3621
16731TIP3    H271609   4.807   2.252   5.310  1.8049 -0.6744  3.2476
16732TIP3   OH271610   6.635   4.961  14.291  0.1796  0.2415  0.4498
16732TIP3    H171611   6.600   5.044  14.259 -1.2382 -0.4195  0.2133
16732TIP3    H271612   6.688   4.986  14.368  0.5234  1.4380 -0.1415
16733TIP3   OH271613   3.434   6.032   5.440  0.1456 -0.2790  0.0458
16733TIP3    H171614   3.511   6.083   5.464 -0.5247  0.9710 -0.3796
16733TIP3    H271615   3.410   6.064   5.353 -0.3254 -1.3053 -0.2222
16734TIP3   OH271616   6.413   2.628  13.099 -0.3597  0.7429 -0.1447
16734TIP3    H171617   6.379   2.714  13.075 -2.2338  0.0102 -0.2930
16734TIP3    H271618   6.335   2.573  13.108  0.4994 -0.1770  3.1539
16735TIP3   OH271619   2.218   5.905   4.163  0.3392  0.5813 -1.0342
16735TIP3    H171620   2.146   5.885   4.223  1.3386 -1.4039 -0.4318
16735TIP3    H271621   2.255   5.987   4.195  1.1738 -0.6750  1.4228
16736TIP3   OH271622   5.681   3.299  12.357  0.1560  0.7554 -0.4327
16736TIP3    H171623   5.659   3.210  12.331  0.1982  1.1442 -1.8813
16736TIP3    H271624   5.728   3.289  12.440  0.8614 -0.6303 -0.9665
16737TIP3   OH271625   4.016   3.142  14.795  0.2309 -0.0253 -0.1394
16737TIP3    H171626   4.027   3.051  14.767  2.7431 -0.3857  1.6546
16737TIP3    H271627   4.069   3.192  14.734  2.0801 -0.2991  1.1562
16738TIP3   OH271628   3.502   5.943   4.620  0.2128 -0.2217 -0.0470
16738TIP3    H171629   3.448   6.014   4.587 -0.6726  0.6130  2.8910
16738TIP3    H271630   3.546   5.908   4.543 -0.7770  2.2651 -1.8553
16739TIP3   OH271631   2.516   4.278   0.867  0.1156 -0.3759 -0.4044
16739TIP3    H171632   2.431   4.234   0.871  0.0592 -0.1708  1.0325
16739TIP3    H271633   2.575   4.221   0.917  0.8565 -0.5517 -1.4435
16740TIP3   OH271634   2.395   3.689  15.059 -0.1592  0.1088 -0.3050
16740TIP3    H171635   2.397   3.717  14.968  1.9277 -0.5374 -0.5325
16740TIP3    H271636   2.400   3.593  15.054 -0.2450  0.0567  0.4791
16741TIP3   OH271637   4.336   1.340   5.192  0.3674  0.1590 -0.0952
16741TIP3    H171638   4.387   1.311   5.267  0.4412 -1.6536 -0.8032
16741TIP3    H271639   4.387   1.412   5.154  0.5434  0.7969  1.2973
16742TIP3   OH271640   2.999   0.708  15.929  0.0109 -0.8381 -0.2383
16742TIP3    H171641   2.993   0.688  15.836  2.8609  0.5829 -0.8366
16742TIP3    H271642   3.087   0.681  15.954 -0.1982  0.0884  1.7203
16743TIP3   OH271643   0.861   4.688  14.294 -0.4817  0.2173 -0.1767
16743TIP3    H171644   0.916   4.713  14.368 -0.0749 -0.9390 -0.0603
16743TIP3    H271645   0.774   4.722  14.315 -0.5307 -0.6853  1.1751
16744TIP3   OH271646   4.168   2.334   6.335  0.0405 -0.0082  1.0562
16744TIP3    H171647   4.211   2.249   6.338  0.6895  0.2619 -0.0185
16744TIP3    H271648   4.240   2.397   6.326 -0.4030  0.6894  2.2238
16745TIP3   OH271649   6.700   6.643  11.361  0.6541 -0.3211  0.2079
16745TIP3    H171650   6.631   6.579  11.376  1.9007 -1.7277  0.1492
16745TIP3    H271651   6.660   6.727  11.382 -1.7361 -0.8302 -1.8436
16746TIP3   OH271652   6.203   2.493   3.603  0.0236  0.0535 -0.4995
16746TIP3    H171653   6.186   2.399   3.616 -1.8297  0.1557 -1.8049
16746TIP3    H271654   6.171   2.511   3.515  1.3513  1.7145 -0.6921
16747TIP3   OH271655   5.419   3.157   2.561 -0.1493  1.2084 -0.0307
16747TIP3    H171656   5.382   3.101   2.492 -0.2982  1.6069 -0.2806
16747TIP3    H271657   5.508   3.176   2.531 -0.3641  1.7629 -0.3627
16748TIP3   OH271658   6.410   4.445  10.902 -0.0205 -0.9442  0.0046
16748TIP3    H171659   6.353   4.482  10.970  0.6053 -3.1525  1.8397
16748TIP3    H271660   6.411   4.351  10.920  1.5280 -1.3931 -2.0801
16749TIP3   OH271661   1.954   1.227   4.021  0.3766 -0.0691  0.4012
16749TIP3    H171662   2.024   1.173   4.057  0.7947  1.5631  2.1640
16749TIP3    H271663   1.997   1.277   3.951  0.3674 -0.8436 -0.1665
16750TIP3   OH271664   5.614   3.904   2.483  0.0828  0.2411  0.0303
16750TIP3    H171665   5.599   3.896   2.577 -0.5565  0.2994 -0.0668
16750TIP3    H271666   5.705   3.935   2.476  0.7087 -1.3941  0.5653
16751TIP3   OH271667   6.285   2.209  15.423  0.4569  0.5453 -0.6937
16751TIP3    H171668   6.334   2.274  15.372 -0.7190  0.4009 -2.0365
16751TIP3    H271669   6.198   2.207  15.383 -0.9124  1.2377  1.9968
16752TIP3   OH271670   6.262   0.986  13.090 -0.2710  0.4682 -0.3024
16752TIP3    H171671   6.345   1.010  13.050  1.4996 -0.7498  2.3153
16752TIP3    H271672   6.275   0.895  13.118 -2.9846 -0.1990 -0.9547
16753TIP3   OH271673   6.443   3.445   5.170 -0.4538 -0.0303 -0.4838
16753TIP3    H171674   6.488   3.365   5.142  2.0821  1.5113 -1.1880
16753TIP3    H271675   6.440   3.499   5.091 -2.6982  0.3726 -0.1816
16754TIP3   OH271676   0.980   5.419  15.465  0.1091 -0.0088  0.5588
16754TIP3    H171677   1.042   5.362  15.511  0.7438  1.4230  1.5727
16754TIP3    H271678   1.035   5.467  15.402  0.0804  1.3178  1.5089
16755TIP3   OH271679   6.273   4.782   5.935  0.3618  0.0099 -0.9234
16755TIP3    H171680   6.207   4.715   5.917  0.1124  0.2155 -0.7774
16755TIP3    H271681   6.314   4.754   6.017 -1.3493  1.2455  0.4544
16756TIP3   OH271682   5.740   5.295  15.507 -0.2807  0.0603 -0.0835
16756TIP3    H171683   5.743   5.238  15.585  2.0493  0.1991 -0.0124
16756TIP3    H271684   5.715   5.236  15.436 -3.2870  0.0817  0.7994
16757TIP3   OH271685   1.573   2.463   1.765  0.6893  0.0445  0.0422
16757TIP3    H171686   1.539   2.391   1.818 -0.4653  0.6519  0.1472
16757TIP3    H271687   1.509   2.476   1.696  1.7171 -0.1141 -0.9734
16758TIP3   OH271688   1.895   0.674   5.574  0.2916 -0.2031  0.1784
16758TIP3    H171689   1.944   0.707   5.649  0.7409 -0.8001  0.1532
16758TIP3    H271690   1.810   0.718   5.580  0.4214 -0.0292  0.8712
16759TIP3   OH271691   3.875   6.319   4.998  0.8590  0.6383  0.4298
16759TIP3    H171692   3.910   6.407   5.008 -1.1405  1.6073 -0.5057
16759TIP3    H271693   3.899   6.294   4.908  0.5536  0.6486  0.3441
16760TIP3   OH271694   5.780   4.510  13.189  0.1824  0.7612 -0.2626
16760TIP3    H171695   5.685   4.499  13.176  0.2442 -0.3829  0.1410
16760TIP3    H271696   5.794   4.492  13.282  0.6607  2.0951 -0.0447
16761TIP3   OH271697   0.414   2.618   5.640  0.6002  0.0613 -0.0729
16761TIP3    H171698   0.334   2.565   5.637 -0.0219  0.9694  0.1887
16761TIP3    H271699   0.383   2.708   5.636  1.4648  0.5116  1.8997
16762TIP3   OH271700   6.395   4.825  14.379  0.2442  0.3911 -0.3990
16762TIP3    H171701   6.473   4.873  14.350  0.7715  0.0507  0.4216
16762TIP3    H271702   6.391   4.749  14.321 -0.2132  1.0648 -1.2704
16763TIP3   OH271703   4.649   4.901   6.276 -0.1040  0.5215  0.5887
16763TIP3    H171704   4.555   4.902   6.293 -0.3989  1.6609 -0.9050
16763TIP3    H271705   4.684   4.972   6.331 -0.5817  2.0522 -0.9918
16764TIP3   OH271706   2.778   4.067   2.480 -0.5766  0.1038  0.7183
16764TIP3    H171707   2.867   4.085   2.511  0.3906  1.7236 -2.5593
16764TIP3    H271708   2.742   4.154   2.460 -1.7382 -0.6908 -0.8238
16765TIP3   OH271709   0.259   4.464   5.524 -0.4140  0.7637 -0.2930
16765TIP3    H171710   0.296   4.483   5.611  0.7328  1.3781 -0.8877
16765TIP3    H271711   0.331   4.482   5.464 -0.9379 -0.4443 -1.3174
16766TIP3   OH271712   5.441   4.350   5.949 -0.5360 -0.1092  0.2438
16766TIP3    H171713   5.537   4.350   5.941 -0.5859 -0.4658 -0.3073
16766TIP3    H271714   5.416   4.258   5.943 -1.0417  0.0982 -1.1336
16767TIP3   OH271715   1.895   1.339  13.703 -0.4419  0.5664 -0.1473
16767TIP3    H171716   1.884   1.413  13.643  1.0740  0.1954 -0.9393
16767TIP3    H271717   1.858   1.369  13.786 -2.0556  1.3142 -1.0847
16768TIP3   OH271718   5.059   0.847   3.349 -0.7064  0.4205 -0.3306
16768TIP3    H171719   5.088   0.761   3.320  0.7402  0.9168 -0.4030
16768TIP3    H271720   5.059   0.901   3.270 -1.0738  0.6437 -0.1840
16769TIP3   OH271721   5.467   1.591  14.999 -0.4536 -0.0016  0.1091
16769TIP3    H171722   5.547   1.640  14.978  0.7671 -1.2085  1.7186
16769TIP3    H271723   5.409   1.607  14.924  1.2500  0.9683 -1.0729
16770TIP3   OH271724   5.216   5.119  14.448  0.1455 -0.7771  0.2858
16770TIP3    H171725   5.295   5.070  14.470  1.1539 -0.1528 -1.7435
16770TIP3    H271726   5.144   5.064  14.480  1.3436 -1.5233  1.8412
16771TIP3   OH271727   4.606   3.153   1.741  0.2534  0.1194 -0.0863
16771TIP3    H171728   4.628   3.069   1.782 -0.0072 -0.0509 -0.2942
16771TIP3    H271729   4.691   3.188   1.712  0.1888 -1.0107 -1.8106
16772TIP3   OH271730   1.528   4.088   0.905  0.3781 -0.5393 -0.3769
16772TIP3    H171731   1.445   4.040   0.908 -0.3557  0.6646 -0.3195
16772TIP3    H271732   1.543   4.115   0.996 -0.0811  0.6792 -0.6360
16773TIP3   OH271733   0.899   5.138   2.184 -0.2524  0.2326 -0.0205
16773TIP3    H171734   0.914   5.069   2.120  0.6605 -1.3938  1.8636
16773TIP3    H271735   0.935   5.217   2.143 -1.1306 -0.3901 -2.1305
16774TIP3   OH271736   5.884   1.521   4.152  0.0433  0.2278 -0.2192
16774TIP3    H171737   5.925   1.597   4.111  0.9473  0.5065  1.1361
16774TIP3    H271738   5.955   1.478   4.200 -0.9772  0.0008  1.1423
16775TIP3   OH271739   3.875   5.796  12.190 -0.0171  0.3464 -0.1504
16775TIP3    H171740   3.922   5.749  12.122  0.3200  1.1023 -0.4513
16775TIP3    H271741   3.782   5.782  12.170  0.0786 -0.3826 -0.0927
16776TIP3   OH271742   1.884   4.982   5.178 -0.7951  0.6705  0.1870
16776TIP3    H171743   1.944   4.976   5.103 -1.0801  1.2341 -0.0973
16776TIP3    H271744   1.879   5.076   5.197  1.1744  0.4017  2.4769
16777TIP3   OH271745   6.069   6.553  12.005  0.4708 -0.7191  0.5664
16777TIP3    H171746   6.073   6.555  11.909  0.4412 -0.1317  0.5717
16777TIP3    H271747   6.035   6.639  12.029 -1.2069 -1.4774  1.0365
16778TIP3   OH271748   0.201   6.608  11.314 -0.2709 -0.6898  0.2386
16778TIP3    H171749   0.197   6.692  11.359 -0.9440  0.1850 -1.3826
16778TIP3    H271750   0.135   6.554  11.359 -0.3782 -0.1015  0.8021
16779TIP3   OH271751   1.673   5.677   3.296  0.2069 -0.2743 -0.4995
16779TIP3    H171752   1.634   5.757   3.259  0.0852  0.3735  0.9761
16779TIP3    H271753   1.656   5.610   3.229 -2.9900  0.0839 -0.2181
16780TIP3   OH271754   6.693   4.635   1.985  0.2943  0.3981  0.0479
16780TIP3    H171755   6.745   4.669   2.058  0.0994 -1.8606  1.3402
16780TIP3    H271756   6.758   4.605   1.922  0.4818  1.1622 -0.1311
16781TIP3   OH271757   6.712   3.097   0.600 -0.0812 -0.5455 -0.3892
16781TIP3    H171758   6.625   3.137   0.601 -0.0198 -0.2931  1.8407
16781TIP3    H271759   6.772   3.169   0.577 -0.2244  0.0562  0.9882
16782TIP3   OH271760   0.142   2.093  17.200  0.3361  0.3657  0.1891
16782TIP3    H171761   0.233   2.121  17.205  0.2260  0.8035 -0.1897
16782TIP3    H271762   0.119   2.102  17.108 -0.6187  1.9722  0.5377
16783TIP3   OH271763   0.143   0.819  16.417  0.0549 -0.2824 -0.0527
16783TIP3    H171764   0.168   0.815  16.324  1.4617 -3.6373  0.3413
16783TIP3    H271765   0.049   0.803  16.416 -0.1002  0.5354 -0.9049
16784TIP3   OH271766   1.301   3.413  11.514 -0.4411 -0.2533  0.3605
16784TIP3    H171767   1.289   3.370  11.599  0.1183  1.9679  1.6683
16784TIP3    H271768   1.213   3.422  11.479 -0.9151  0.4387  1.6387
16785TIP3   OH271769   3.467   5.787  12.542  0.1445  0.5853 -0.2042
16785TIP3    H171770   3.550   5.745  12.520  0.5466  1.2146  0.1130
16785TIP3    H271771   3.418   5.787  12.460 -0.3357 -1.5202  0.0074
16786TIP3   OH271772   0.044   5.949  16.572  0.5626  0.1040  0.1791
16786TIP3    H171773   0.098   5.991  16.506 -1.1360 -0.1573 -1.4584
16786TIP3    H271774   0.088   5.969  16.655  2.1747  1.3497 -0.9051
16787TIP3   OH271775   4.858   0.298  17.094 -0.0799 -0.0812  0.1543
16787TIP3    H171776   4.871   0.225  17.033  0.2591 -0.6979  0.9472
16787TIP3    H271777   4.781   0.344  17.060  1.5140  1.0890 -2.1505
16788TIP3   OH271778   6.367   2.594  11.539  0.2992 -0.3826  0.2973
16788TIP3    H171779   6.384   2.510  11.497 -0.2616 -0.4713  0.2408
16788TIP3    H271780   6.434   2.601  11.608  1.0288 -0.3726 -0.3954
16789TIP3   OH271781   1.075   4.044  14.643  0.6550 -0.1990  0.2025
16789TIP3    H171782   1.122   3.961  14.640  0.1293 -0.5228  0.7027
16789TIP3    H271783   1.074   4.074  14.553  0.4150 -0.9890 -0.0701
16790TIP3   OH271784   0.843   0.183   5.725  0.6587  0.3010 -0.5103
16790TIP3    H171785   0.807   0.118   5.786 -0.7814  0.3361 -1.2921
16790TIP3    H271786   0.937   0.165   5.725  0.7180  0.3078  1.7199
16791TIP3   OH271787   6.229   0.871   5.031  0.3525 -0.0691  0.1856
16791TIP3    H171788   6.210   0.807   5.099 -0.0371  0.7196  0.8313
16791TIP3    H271789   6.180   0.841   4.955 -0.0807 -0.3594  0.5781
16792TIP3   OH271790   4.215   4.275  12.464  0.1275 -0.0508 -0.5764
16792TIP3    H171791   4.252   4.256  12.378  0.0746  2.2967 -1.2045
16792TIP3    H271792   4.179   4.363  12.455  0.3194  0.3650  1.9254
16793TIP3   OH271793   4.589   6.286   4.580 -0.2658 -0.6151  0.1734
16793TIP3    H171794   4.568   6.272   4.672 -0.1342 -0.2610  0.2605
16793TIP3    H271795   4.685   6.291   4.578 -0.2866 -0.2427  0.0720
16794TIP3   OH271796   1.933   2.790  16.967 -0.0324  0.5820  0.2457
16794TIP3    H171797   1.955   2.844  17.044 -1.9725  1.6468  0.0958
16794TIP3    H271798   2.005   2.727  16.962  1.3566  1.9636  1.5448
16795TIP3   OH271799   1.118   2.956   3.005 -0.0666  0.1500 -0.0533
16795TIP3    H171800   1.190   3.009   2.971  0.6277 -0.4909  0.3623
16795TIP3    H271801   1.078   3.010   3.073 -1.2390  1.2945 -1.5838
16796TIP3   OH271802   0.391   2.974  11.802  0.2556  0.1833 -0.0799
16796TIP3    H171803   0.474   3.022  11.811  0.6240 -0.5427  0.6053
16796TIP3    H271804   0.414   2.884  11.823 -0.5322 -0.1959 -0.8079
16797TIP3   OH271805   3.314   5.166  16.133 -0.4842  0.0776  0.2435
16797TIP3    H171806   3.367   5.140  16.209  0.0483  0.7485  0.1126
16797TIP3    H271807   3.244   5.101  16.130  0.5759 -1.1137  0.1605
16798TIP3   OH271808   6.582   4.062   3.019 -0.0378  0.3190 -0.1342
16798TIP3    H171809   6.570   4.155   3.041 -2.8506  0.3559 -1.3325
16798TIP3    H271810   6.550   4.015   3.096 -0.4799  0.3884 -0.2686
16799TIP3   OH271811   6.021   4.371  17.219  0.5082  0.6731 -0.3924
16799TIP3    H171812   6.014   4.312  17.144  0.3913 -0.3634  0.3988
16799TIP3    H271813   5.989   4.455  17.187 -3.2916 -0.6159 -0.5478
16800TIP3   OH271814   2.077   2.657   1.592  0.6592 -0.2268  0.3535
16800TIP3    H171815   2.128   2.690   1.518  0.0322  1.3547  0.5952
16800TIP3    H271816   2.136   2.595   1.635  2.7783  2.1748  1.1478
16801TIP3   OH271817   3.038   6.026   1.750 -0.1450  0.2056  0.0522
16801TIP3    H171818   3.029   6.038   1.845  0.0765  0.3164  0.0599
16801TIP3    H271819   3.080   6.106   1.720  0.2941 -0.0640 -0.0613
16802TIP3   OH271820   6.398   6.342   5.404  0.2054 -0.4362  0.7027
16802TIP3    H171821   6.406   6.389   5.486 -0.1746  0.7082  0.1015
16802TIP3    H271822   6.465   6.273   5.409  0.3519 -0.2235  1.8459
16803TIP3   OH271823   0.748   5.802  14.760  1.0800  0.0184 -0.1790
16803TIP3    H171824   0.695   5.724  14.745 -0.5306  0.6639  1.6347
16803TIP3    H271825   0.730   5.858  14.685 -1.6969  0.6083  0.7898
16804TIP3   OH271826   0.821   3.873   1.342  0.6937  0.3588  0.1081
16804TIP3    H171827   0.779   3.811   1.282 -1.7175 -0.2366  2.2196
16804TIP3    H271828   0.892   3.823   1.382  1.7659  0.4961 -1.5391
16805TIP3   OH271829   1.046   2.719   6.595  0.7847  0.2964 -0.4733
16805TIP3    H171830   0.967   2.665   6.594  1.2248 -0.5425  2.1742
16805TIP3    H271831   1.038   2.771   6.675  1.0533  3.2243 -2.1943
16806TIP3   OH271832   2.755   2.788   4.685 -0.7028  0.8164 -0.1213
16806TIP3    H171833   2.837   2.833   4.704  0.1071  0.5531 -2.6195
16806TIP3    H271834   2.687   2.850   4.711  0.2873  1.5583  0.7938
16807TIP3   OH271835   0.516   4.347   6.129 -0.7027  0.0812 -0.7254
16807TIP3    H171836   0.584   4.298   6.176 -0.0787  0.2934 -1.3844
16807TIP3    H271837   0.538   4.439   6.146 -1.6804  0.1568  0.2428
16808TIP3   OH271838   1.060   0.562   3.956 -0.5476  0.4512 -0.2948
16808TIP3    H171839   1.146   0.524   3.969 -0.8911  0.1222  1.1443
16808TIP3    H271840   1.059   0.589   3.864  0.7083 -0.4669 -0.5953
16809TIP3   OH271841   4.127   0.626   0.069  0.2057  0.7837 -0.6241
16809TIP3    H171842   4.127   0.682   0.147  1.0844  0.3433 -0.2906
16809TIP3    H271843   4.086   0.680   0.001 -2.0360  0.6079  0.5074
16810TIP3   OH271844   6.227   5.255  13.971 -0.2561 -0.2574 -0.5150
16810TIP3    H171845   6.199   5.181  14.025 -1.4024  0.3435 -0.2344
16810TIP3    H271846   6.146   5.306  13.958  0.3954  0.6292 -1.1741
16811TIP3   OH271847   4.544   1.898  15.362 -0.0284 -0.2620  0.2088
16811TIP3    H171848   4.456   1.897  15.324 -0.3903 -2.6459  0.9395
16811TIP3    H271849   4.585   1.977  15.326 -0.3450 -2.1122 -5.0596
16812TIP3   OH271850   0.092   5.152  15.316  0.3210  0.2144  0.4390
16812TIP3    H171851   0.169   5.113  15.274  0.3136 -1.2892  1.7257
16812TIP3    H271852   0.129   5.206  15.387  0.2223 -0.7329  1.2387
16813TIP3   OH271853   4.212   0.319  14.346 -0.0917  0.4957 -0.2930
16813TIP3    H171854   4.236   0.280  14.430 -0.1559  0.9718 -0.0481
16813TIP3    H271855   4.137   0.376  14.367 -1.2951 -0.7663 -0.9857
16814TIP3   OH271856   0.152   4.168  14.316 -0.7312  0.2151 -0.3649
16814TIP3    H171857   0.078   4.108  14.330  0.2902 -0.8653  0.7348
16814TIP3    H271858   0.197   4.170  14.401  0.3714  1.0272 -0.9413
16815TIP3   OH271859   5.104   6.628   2.422  0.1279 -0.1807  0.0421
16815TIP3    H171860   5.163   6.562   2.458  0.3908  0.5664  1.0319
16815TIP3    H271861   5.045   6.650   2.494  0.2066  0.8300 -0.1847
16816TIP3   OH271862   5.236   3.673  15.256 -0.2173  0.1119  0.3163
16816TIP3    H171863   5.189   3.601  15.213  1.1016 -0.1315 -0.8095
16816TIP3    H271864   5.167   3.735  15.282 -1.1430  0.1148 -1.9078
16817TIP3   OH271865   6.452   2.702   1.247 -1.1655  0.1897 -0.3664
16817TIP3    H171866   6.479   2.738   1.162  0.9674  1.7276  0.8627
16817TIP3    H271867   6.362   2.734   1.259  0.2015  4.5564  0.1663
16818TIP3   OH271868   3.135   1.023   5.265  0.2503 -0.4780 -0.4342
16818TIP3    H171869   3.225   0.999   5.287  0.4662  0.5413 -0.1569
16818TIP3    H271870   3.087   1.013   5.347  0.8289  2.2433  0.3373
16819TIP3   OH271871   2.080   0.439   5.820 -0.3253  0.5852  0.1881
16819TIP3    H171872   2.133   0.515   5.845 -1.1440  1.6084 -1.0833
16819TIP3    H271873   2.074   0.444   5.725 -0.9332 -0.7221  0.1401
16820TIP3   OH271874   4.049   2.833   5.452  0.0936 -0.0990 -0.1732
16820TIP3    H171875   4.016   2.745   5.471 -0.4668 -0.5399 -2.7836
16820TIP3    H271876   4.080   2.828   5.361  2.2326  1.8082  0.3655
16821TIP3   OH271877   2.528   0.761  12.236 -0.9574 -0.5369 -0.0373
16821TIP3    H171878   2.545   0.856  12.235 -1.9679 -0.3471 -0.9574
16821TIP3    H271879   2.579   0.727  12.163 -0.1278 -0.8125  0.6501
16822TIP3   OH271880   2.139   6.586  13.147  0.3411 -0.6115 -0.7651
16822TIP3    H171881   2.054   6.543  13.153  0.3724 -0.4801  2.0192
16822TIP3    H271882   2.123   6.667  13.099 -1.4328  0.0725  0.8664
16823TIP3   OH271883   2.465   5.623   6.550 -0.1050 -0.2520 -0.6575
16823TIP3    H171884   2.482   5.537   6.590 -0.5157 -0.0332 -0.0017
16823TIP3    H271885   2.375   5.616   6.518 -0.6725  0.4373  0.7382
16824TIP3   OH271886   0.192   4.173   5.475  0.2591 -0.1261  0.5239
16824TIP3    H171887   0.209   4.266   5.458 -0.3470 -0.1760 -0.3833
16824TIP3    H271888   0.275   4.140   5.510  0.1984  0.9607  1.7945
16825TIP3   OH271889   5.648   3.831   0.662 -0.2678 -0.8712 -0.0033
16825TIP3    H171890   5.703   3.862   0.734 -0.0304 -1.0205 -0.1211
16825TIP3    H271891   5.699   3.762   0.620 -0.3322 -0.6630 -0.4244
16826TIP3   OH271892   1.734   3.391  14.041  0.0899  0.7791  0.3204
16826TIP3    H171893   1.778   3.468  14.006  3.7504 -0.5326  1.5707
16826TIP3    H271894   1.673   3.364  13.972 -1.2538  4.5643 -0.2219
16827TIP3   OH271895   1.515   4.424  11.138 -0.3542  0.7329 -0.3140
16827TIP3    H171896   1.561   4.508  11.137 -1.5774  1.4527  0.9667
16827TIP3    H271897   1.545   4.381  11.218 -0.9380  0.6432 -0.1403
16828TIP3   OH271898   2.154   3.332  13.368  0.5129  0.0782 -0.8307
16828TIP3    H171899   2.205   3.257  13.338 -0.0235 -0.1459 -1.2018
16828TIP3    H271900   2.219   3.396  13.397  0.9584 -1.2404  1.2871
16829TIP3   OH271901   3.226   5.576  13.511 -0.0213 -0.3801 -0.5865
16829TIP3    H171902   3.220   5.613  13.423  0.3797 -0.2953 -0.5825
16829TIP3    H271903   3.272   5.643  13.562  1.2169 -1.0917 -0.7136
16830TIP3   OH271904   0.280   5.513  15.875 -0.5298 -0.2705 -0.4114
16830TIP3    H171905   0.360   5.564  15.859  0.1187 -1.2806 -0.5158
16830TIP3    H271906   0.265   5.520  15.969  0.2113 -0.7944 -0.2398
16831TIP3   OH271907   2.375   5.908  11.189  0.4968  0.1088 -0.1612
16831TIP3    H171908   2.452   5.851  11.190 -0.5900 -1.5033  2.5403
16831TIP3    H271909   2.371   5.945  11.277 -2.5952 -1.0847  0.3376
16832TIP3   OH271910   3.335   3.042   2.591  0.4374  0.0955  0.6277
16832TIP3    H171911   3.318   3.136   2.581 -2.4768 -0.1485  2.0685
16832TIP3    H271912   3.403   3.036   2.657 -0.1835  1.2135  1.3894
16833TIP3   OH271913   6.623   2.949   0.161 -0.0041  0.3560  0.0411
16833TIP3    H171914   6.698   3.003   0.137  0.7015  0.1054  1.6055
16833TIP3    H271915   6.565   3.008   0.208  2.0664 -0.6714  4.3834
16834TIP3   OH271916   4.068   1.734   1.919 -0.4353  0.5850 -0.6232
16834TIP3    H171917   4.024   1.802   1.868  0.7300 -0.1604 -2.7808
16834TIP3    H271918   4.080   1.662   1.857  0.2126 -0.7969  1.0137
16835TIP3   OH271919   4.816   5.731  12.323  0.0411  1.3180  0.8166
16835TIP3    H171920   4.794   5.672  12.395  3.1744 -1.5637 -0.3253
16835TIP3    H271921   4.886   5.786  12.358  0.4487  1.0352  0.4437
16836TIP3   OH271922   6.536   1.983  14.021 -0.3485  1.1849 -0.3194
16836TIP3    H171923   6.558   1.933  13.942  1.2946  2.4681 -0.7588
16836TIP3    H271924   6.610   2.043  14.031  0.5416 -0.2660  3.3740
16837TIP3   OH271925   2.482   5.588   3.805 -0.3872  0.1543 -0.2040
16837TIP3    H171926   2.459   5.659   3.865 -2.5872  1.0562 -1.9523
16837TIP3    H271927   2.517   5.632   3.727 -0.3422 -0.7678 -0.7282
16838TIP3   OH271928   1.618   3.716  17.279  0.0992 -0.1948  0.0649
16838TIP3    H171929   1.640   3.625  17.297  0.9258  0.3233  1.9226
16838TIP3    H271930   1.650   3.731  17.190  0.8031 -1.4617  0.0785
16839TIP3   OH271931   0.645   3.468  16.528  0.1076 -0.3677 -0.5326
16839TIP3    H171932   0.715   3.469  16.463 -0.3873 -0.3014 -1.0782
16839TIP3    H271933   0.595   3.389  16.508 -0.6468  0.1869 -0.8943
16840TIP3   OH271934   1.752   3.545   2.849  0.2691 -0.1254  0.1486
16840TIP3    H171935   1.739   3.470   2.908  0.8815  0.9511  1.7400
16840TIP3    H271936   1.846   3.560   2.849  0.1423  0.7504  0.0204
16841TIP3   OH271937   4.003   0.810   1.929 -0.6413 -0.5459  0.2804
16841TIP3    H171938   4.004   0.893   1.883  0.9858  1.1254  3.0466
16841TIP3    H271939   4.093   0.778   1.922 -1.1813 -1.9691 -0.5086
16842TIP3   OH271940   0.974   4.591  15.116  0.3014 -0.0099  0.6106
16842TIP3    H171941   1.059   4.627  15.092  1.6225 -2.7340  0.8650
16842TIP3    H271942   0.916   4.615  15.043  2.5025 -2.1891 -2.0673
16843TIP3   OH271943   1.259   0.886   3.975 -0.3897 -0.1932 -0.3313
16843TIP3    H171944   1.344   0.912   4.011  1.0716 -0.6274 -3.2001
16843TIP3    H271945   1.276   0.804   3.929 -2.2354 -0.0324 -1.4088
16844TIP3   OH271946   1.800   2.090   3.198  0.1835  0.1576  0.0835
16844TIP3    H171947   1.742   2.018   3.222  1.2141 -0.7560 -0.0497
16844TIP3    H271948   1.772   2.163   3.253  0.4634 -0.9762  1.8144
16845TIP3   OH271949   2.609   3.846   0.941  0.1760 -0.9123  0.1112
16845TIP3    H171950   2.665   3.884   0.873 -1.1340 -1.0847 -1.1089
16845TIP3    H271951   2.660   3.772   0.975  1.2846 -0.2043  0.0552
16846TIP3   OH271952   4.859   5.443   1.887  0.2871 -0.1209  0.0075
16846TIP3    H171953   4.885   5.351   1.882 -0.7357 -0.3388 -2.1078
16846TIP3    H271954   4.905   5.485   1.814 -0.3786  0.7544  0.0743
16847TIP3   OH271955   4.366   5.835  12.554 -0.1633  0.2815 -0.4889
16847TIP3    H171956   4.400   5.809  12.469 -0.2272 -0.3500 -0.3309
16847TIP3    H271957   4.276   5.864  12.537  0.4181  1.9217 -0.9011
16848TIP3   OH271958   3.522   2.246   2.824 -0.4999  0.7821 -0.6539
16848TIP3    H171959   3.569   2.323   2.856  2.8759 -0.5495 -1.9956
16848TIP3    H271960   3.571   2.218   2.747 -1.3837 -2.9148 -0.0591
16849TIP3   OH271961   4.416   0.058  15.813 -0.1491 -0.9445  0.1597
16849TIP3    H171962   4.481   0.028  15.750 -0.6201  0.0660 -0.8316
16849TIP3    H271963   4.344  -0.005  15.805 -0.5211 -0.4034 -0.8622
16850TIP3   OH271964   4.062   5.523   5.908  0.5596 -0.1413  0.3593
16850TIP3    H171965   4.047   5.565   5.824  0.4700  0.9894  0.9171
16850TIP3    H271966   4.157   5.524   5.919  0.6717 -1.4409 -0.2732
16851TIP3   OH271967   6.377   4.503   3.667 -0.5412  0.3953  0.2299
16851TIP3    H171968   6.374   4.580   3.610 -1.5457  0.3863  0.2383
16851TIP3    H271969   6.344   4.431   3.613 -0.8991  0.2587  0.6158
16852TIP3   OH271970   4.833   3.854  16.719 -0.2302  0.4203 -0.2212
16852TIP3    H171971   4.778   3.897  16.653  0.3322  1.5641  0.0334
16852TIP3    H271972   4.859   3.772  16.678 -0.5779  0.7346 -1.1013
16853TIP3   OH271973   2.893   0.694   4.266 -0.1928  0.2580 -0.3348
16853TIP3    H171974   2.988   0.696   4.283 -0.1724  2.2199 -0.4335
16853TIP3    H271975   2.870   0.601   4.268  1.6162 -0.2170  0.3422
16854TIP3   OH271976   0.193   2.657   6.295  0.1530 -0.1529 -0.3367
16854TIP3    H171977   0.283   2.678   6.320 -0.2914  0.6887  0.6005
16854TIP3    H271978   0.150   2.742   6.287 -0.1408 -0.4445 -2.4961
16855TIP3   OH271979   6.721   2.356  10.545 -0.0509 -0.0291 -0.1264
16855TIP3    H171980   6.636   2.330  10.579 -0.0618  1.1859  0.8602
16855TIP3    H271981   6.702   2.393  10.459 -0.4051 -0.5052 -0.2571
16856TIP3   OH271982   1.672   2.638  13.180 -0.1860 -0.3598 -0.2617
16856TIP3    H171983   1.767   2.634  13.185 -0.0936  1.2529 -0.3300
16856TIP3    H271984   1.642   2.595  13.260  0.6634  0.8449  0.7445
16857TIP3   OH271985   2.946   1.896  12.409  0.1237 -0.2221  0.1403
16857TIP3    H171986   2.902   1.945  12.479 -0.5202 -0.1322 -0.3186
16857TIP3    H271987   2.989   1.824  12.455  1.8521  1.2494  0.9509
16858TIP3   OH271988   2.315   3.298   1.664 -0.4851  0.1243 -0.1141
16858TIP3    H171989   2.403   3.271   1.690 -0.7554 -0.0215  0.6946
16858TIP3    H271990   2.301   3.255   1.580 -0.2608 -0.9001  0.3542
16859TIP3   OH271991   2.915   5.114   1.813  0.1738  0.3843 -0.4236
16859TIP3    H171992   2.981   5.089   1.877  0.0953 -0.1292 -0.5444
16859TIP3    H271993   2.886   5.032   1.773 -0.8917  0.5459 -0.0351
16860TIP3   OH271994   4.598   5.065  16.620  0.5382 -0.2652  0.3205
16860TIP3    H171995   4.617   5.155  16.646  1.6821  0.3383 -2.2738
16860TIP3    H271996   4.514   5.071  16.575  1.1493 -0.2240 -0.8628
16861TIP3   OH271997   2.641   3.496   5.925  0.0218 -0.2640 -0.3875
16861TIP3    H171998   2.567   3.525   5.979 -1.2472 -1.2409 -1.5311
16861TIP3    H271999   2.710   3.475   5.989 -1.1587 -0.6489  0.8069
16862TIP3   OH272000   0.677   2.323   1.015  0.3440  0.4992  0.0527
16862TIP3    H172001   0.726   2.320   0.933  0.6724 -0.3730  0.2691
16862TIP3    H272002   0.736   2.366   1.077  0.7512 -0.3110  0.2436
16863TIP3   OH272003   0.873   2.218  10.743  0.5263  0.4843 -0.1648
16863TIP3    H172004   0.863   2.277  10.668  1.2365  1.3941  0.4394
16863TIP3    H272005   0.927   2.146  10.709 -1.3834 -0.5107 -1.2532
16864TIP3   OH272006   0.335   2.603   1.522 -0.2767  0.6913  0.2481
16864TIP3    H172007   0.374   2.577   1.438  0.0711  1.1364  0.2664
16864TIP3    H272008   0.243   2.619   1.501 -0.9338 -2.1681  0.5774
16865TIP3   OH272009   5.355   3.085  13.041  0.3120 -0.3776 -0.0351
16865TIP3    H172010   5.441   3.055  13.071  0.7607  1.3353  0.5263
16865TIP3    H272011   5.372   3.127  12.956 -0.0228 -0.3356 -0.0843
16866TIP3   OH272012   5.103   0.108  14.237  0.2121  0.1468 -0.4431
16866TIP3    H172013   5.010   0.119  14.258  0.4455  0.4788  0.4267
16866TIP3    H272014   5.134   0.042  14.298  0.8895  1.1099  0.2947
16867TIP3   OH272015   1.167   2.999  11.635 -0.4782 -0.1749  0.2447
16867TIP3    H172016   1.210   2.980  11.718  2.2339  1.4169 -0.6799
16867TIP3    H272017   1.216   2.950  11.569  0.4083  2.1000 -0.9102
16868TIP3   OH272018   0.240   0.800  13.050 -0.5213 -0.1909 -0.2605
16868TIP3    H172019   0.334   0.803  13.033 -0.5721  2.0430 -0.4374
16868TIP3    H272020   0.203   0.757  12.973  0.2462  0.1260 -0.8225
16869TIP3   OH272021   3.741   3.241  16.945 -0.4067  0.1950 -0.1165
16869TIP3    H172022   3.733   3.177  17.016  0.3507 -1.4108 -1.4131
16869TIP3    H272023   3.834   3.245  16.927 -0.4383  1.7687 -0.0088
16870TIP3   OH272024   4.444   0.342  12.983 -0.0666 -0.2297  0.4541
16870TIP3    H172025   4.429   0.382  12.898  3.1000 -1.4186 -0.8072
16870TIP3    H272026   4.374   0.277  12.992  0.4660 -1.2911 -2.1090
16871TIP3   OH272027   4.779   1.797  13.959 -0.2346 -0.2041  0.0601
16871TIP3    H172028   4.741   1.820  14.043 -1.8844  0.7483 -0.8912
16871TIP3    H272029   4.873   1.810  13.971 -0.4754  0.3062  1.6177
16872TIP3   OH272030   1.166   5.980  15.429  0.0970  0.1143 -0.1274
16872TIP3    H172031   1.137   5.893  15.402 -0.3002  0.3894 -0.6271
16872TIP3    H272032   1.145   6.036  15.354  0.5015  0.6087  0.1218
16873TIP3   OH272033   2.099   3.020   0.090 -0.4629 -0.1218 -0.2030
16873TIP3    H172034   2.118   3.080   0.163  1.8780 -0.5748 -0.3469
16873TIP3    H272035   2.104   3.075   0.012 -2.0938  0.1870 -0.1262
16874TIP3   OH272036   4.053   5.422   6.245 -0.5844 -0.2266  0.3579
16874TIP3    H172037   4.047   5.377   6.161 -1.2033 -0.5332  0.5580
16874TIP3    H272038   4.124   5.484   6.234 -0.4426 -0.4936 -0.2861
16875TIP3   OH272039   4.914   2.164   0.540 -0.2674 -0.1090 -0.7940
16875TIP3    H172040   4.828   2.123   0.546 -0.2977 -0.1229 -1.2928
16875TIP3    H272041   4.947   2.163   0.629 -0.6813 -0.3290 -0.6404
16876TIP3   OH272042   4.404   5.100  15.367 -0.5132  0.0628 -0.5071
16876TIP3    H172043   4.347   5.089  15.291 -0.5087  1.0523 -0.6771
16876TIP3    H272044   4.368   5.042  15.434 -0.7698 -0.5014 -1.1330
16877TIP3   OH272045   0.713   0.577  15.640 -0.4158 -0.3207  0.1572
16877TIP3    H172046   0.723   0.649  15.703  1.1252  0.4079 -0.8668
16877TIP3    H272047   0.658   0.613  15.570  0.0624 -0.2570 -0.1863
16878TIP3   OH272048   2.538   4.515  15.584  0.8845  0.4048  0.1151
16878TIP3    H172049   2.519   4.434  15.536  1.7819  0.5040 -0.4203
16878TIP3    H272050   2.538   4.583  15.517  2.4734  0.4994  0.1739
16879TIP3   OH272051   2.526   4.681  11.578  0.0669  0.4096 -0.0891
16879TIP3    H172052   2.431   4.683  11.572  0.0240  0.2491  0.4582
16879TIP3    H272053   2.556   4.720  11.496 -0.4760  1.1804  0.0632
16880TIP3   OH272054   2.382   1.679  14.676 -0.1275  0.2433  0.5234
16880TIP3    H172055   2.331   1.603  14.648 -0.0767 -0.3583  1.9901
16880TIP3    H272056   2.352   1.698  14.765 -0.3036  2.1083  0.1163
16881TIP3   OH272057   2.373   6.134   4.251 -0.5134 -0.1794  0.1002
16881TIP3    H172058   2.307   6.203   4.256  0.0163  0.2804  1.0814
16881TIP3    H272059   2.442   6.170   4.196 -0.0001  0.2912  1.0382
16882TIP3   OH272060   2.250   0.496   5.423  0.6382  0.1548  0.1606
16882TIP3    H172061   2.163   0.482   5.460 -0.3319  1.2351 -1.5467
16882TIP3    H272062   2.299   0.543   5.491 -0.4830  0.5363  0.7219
16883TIP3   OH272063   5.650   0.144   3.461  0.2372  0.0764 -0.0002
16883TIP3    H172064   5.723   0.103   3.415 -0.8483 -0.8283 -0.9721
16883TIP3    H272065   5.590   0.072   3.481 -0.5092  0.8297  0.5651
16884TIP3   OH272066   4.983   3.365   5.011 -0.4634  0.5832  0.0020
16884TIP3    H172067   5.052   3.309   4.977 -0.5604  0.1056  0.5662
16884TIP3    H272068   4.912   3.356   4.948  0.4781  2.2149 -1.3649
16885TIP3   OH272069   2.647   6.436  12.246  0.1806  0.4469 -0.6465
16885TIP3    H172070   2.638   6.455  12.153 -1.0628 -0.1663 -0.6782
16885TIP3    H272071   2.741   6.444  12.264  0.1425  3.9522 -1.1945
16886TIP3   OH272072   2.349   0.933   2.293  0.3974  0.0318  0.0785
16886TIP3    H172073   2.308   0.917   2.208 -1.2922  1.8050  0.4742
16886TIP3    H272074   2.385   0.848   2.319 -1.4520 -1.2158 -1.1674
16887TIP3   OH272075   2.706   0.017  15.678  0.3133 -0.2143  0.2386
16887TIP3    H172076   2.713  -0.037  15.599 -0.9323  0.3348 -0.2734
16887TIP3    H272077   2.732  -0.042  15.749  1.4497 -0.7226 -0.5633
16888TIP3   OH272078   1.820   5.616  11.275 -0.6220 -0.3228  0.0046
16888TIP3    H172079   1.762   5.676  11.228 -0.1228 -1.9703 -2.9639
16888TIP3    H272080   1.762   5.546  11.305 -0.4136 -1.5495 -2.2409
16889TIP3   OH272081   5.384   1.294   6.105 -0.2468 -0.3783  0.0652
16889TIP3    H172082   5.330   1.309   6.182 -0.7751  0.9686 -0.5304
16889TIP3    H272083   5.343   1.220   6.061 -2.1746  1.1177 -0.8057
16890TIP3   OH272084   4.073   0.906   3.208  0.1382  0.4405 -0.0524
16890TIP3    H172085   4.105   0.825   3.247 -0.0931  0.3133 -0.1282
16890TIP3    H272086   4.143   0.932   3.147 -0.5351 -0.6381 -1.3383
16891TIP3   OH272087   6.267   0.023  13.829 -0.1047 -0.4414 -0.5748
16891TIP3    H172088   6.330   0.035  13.758 -0.0744  0.0563 -0.4633
16891TIP3    H272089   6.211  -0.049  13.799 -0.2226 -0.0932 -1.1988
16892TIP3   OH272090   5.699   3.334   1.531 -0.2062 -0.2845  0.8428
16892TIP3    H172091   5.671   3.286   1.609 -0.4874 -0.3435  0.7074
16892TIP3    H272092   5.653   3.291   1.459 -0.2152 -0.0102  0.6844
16893TIP3   OH272093   3.843   3.341  12.154  0.2917 -0.3051 -0.5570
16893TIP3    H172094   3.860   3.391  12.074  0.5341  0.9956  0.2790
16893TIP3    H272095   3.750   3.357  12.173  1.2237  3.3198  1.9218
16894TIP3   OH272096   4.409   4.370  15.031  0.6236  0.2650  0.6198
16894TIP3    H172097   4.370   4.326  15.107  2.2594  1.3668  2.2042
16894TIP3    H272098   4.484   4.315  15.008  1.0158  0.7294  0.7848
16895TIP3   OH272099   3.819   0.410   4.476  0.5312 -0.6640  0.1931
16895TIP3    H172100   3.789   0.439   4.562  1.5062 -0.3249  0.4292
16895TIP3    H272101   3.801   0.483   4.417  2.5336  0.2811  0.6910
16896TIP3   OH272102   3.509   4.731  12.704  0.2609 -0.4828 -0.1287
16896TIP3    H172103   3.456   4.686  12.639 -0.2694 -0.2247  0.1183
16896TIP3    H272104   3.456   4.807  12.729  1.4732  0.7732 -1.1621
16897TIP3   OH272105   1.238   5.853   2.556  0.5532  0.5310  0.4884
16897TIP3    H172106   1.157   5.857   2.607 -0.2926 -0.7917 -0.6552
16897TIP3    H272107   1.306   5.832   2.620 -0.3307 -0.1890  1.2250
16898TIP3   OH272108   1.036   2.331  12.901  0.6209 -0.3032  0.5049
16898TIP3    H172109   1.007   2.331  12.810  0.7978 -1.5374  0.4269
16898TIP3    H272110   1.087   2.411  12.911  0.2485  0.0500 -0.3589
16899TIP3   OH272111   0.206   1.669  13.844 -0.2829 -0.1965 -0.1176
16899TIP3    H172112   0.179   1.583  13.812  1.8243 -1.0258  0.2131
16899TIP3    H272113   0.275   1.651  13.907 -2.7488  1.4748  3.4239
16900TIP3   OH272114   4.009   1.579  14.951 -0.7675 -0.1807  0.2987
16900TIP3    H172115   4.058   1.636  15.010 -0.4112  0.0026 -0.1723
16900TIP3    H272116   4.037   1.491  14.974 -2.3627 -0.2987  1.9995
16901TIP3   OH272117   1.165   1.855   6.004 -0.5011 -0.4737 -1.0744
16901TIP3    H172118   1.177   1.767   5.969  0.0449 -0.2280 -1.5072
16901TIP3    H272119   1.239   1.868   6.063 -1.2868 -0.7949  0.0325
16902TIP3   OH272120   0.009   4.614   0.853  0.4951  0.8647  0.1813
16902TIP3    H172121  -0.072   4.647   0.889 -0.7360 -1.3283 -0.3969
16902TIP3    H272122   0.076   4.637   0.917 -0.5575  2.6849  0.6800
16903TIP3   OH272123   0.158   1.569  12.143 -0.7952 -0.7833 -0.2564
16903TIP3    H172124   0.104   1.641  12.176  0.8971  0.5101 -0.1689
16903TIP3    H272125   0.243   1.581  12.186 -0.1888 -2.2927 -0.9587
16904TIP3   OH272126   0.513   0.691  12.963  0.1858  0.0102  0.2235
16904TIP3    H172127   0.594   0.741  12.959 -1.3856  2.7306 -0.2297
16904TIP3    H272128   0.490   0.676  12.871 -0.4407  0.4051  0.3062
16905TIP3   OH272129   4.509   1.954   5.141 -0.3599  0.0450  0.0539
16905TIP3    H172130   4.478   2.041   5.119  2.4816  1.1282 -0.0265
16905TIP3    H272131   4.544   1.963   5.230 -2.5849 -1.7796  1.2123
16906TIP3   OH272132   4.649   4.533   5.750  0.4066 -0.2999  0.1938
16906TIP3    H172133   4.612   4.541   5.837  0.4536  0.7294  0.1264
16906TIP3    H272134   4.742   4.515   5.764  0.6874  1.1530  0.3824
16907TIP3   OH272135   6.564   3.449  14.963 -0.4934  0.5957 -0.3274
16907TIP3    H172136   6.643   3.423  14.917 -1.1651 -0.4845 -0.9010
16907TIP3    H272137   6.515   3.368  14.977 -0.8376  1.0299  1.3210
16908TIP3   OH272138   6.139   3.552   4.311 -0.2667  0.9328  0.4790
16908TIP3    H172139   6.199   3.477   4.309 -0.3313  0.8908 -1.0120
16908TIP3    H272140   6.138   3.579   4.402 -0.4633 -1.0525  1.1157
16909TIP3   OH272141   6.325   0.205  13.348  0.4688 -0.8967 -0.0023
16909TIP3    H172142   6.312   0.250  13.431 -2.7693 -2.6388  0.5962
16909TIP3    H272143   6.324   0.275  13.282  0.6429  0.2849  1.2145
16910TIP3   OH272144   0.266   2.322   1.778 -0.2819  0.4417 -0.4194
16910TIP3    H172145   0.176   2.354   1.768 -0.2641  0.4563 -0.5380
16910TIP3    H272146   0.297   2.310   1.688  0.3111  1.7698 -0.4079
16911TIP3   OH272147   3.289   4.800   6.766  0.3133 -0.4687  0.8250
16911TIP3    H172148   3.376   4.819   6.801  0.4601  2.9765 -0.9328
16911TIP3    H272149   3.306   4.760   6.681  0.3043  0.9896  0.0950
16912TIP3   OH272150   0.938   3.852   5.699 -0.2674 -0.3017  0.1050
16912TIP3    H172151   0.887   3.926   5.732 -1.2060 -0.0223 -1.8017
16912TIP3    H272152   0.873   3.791   5.666  0.5616 -1.1485 -0.0123
16913TIP3   OH272153   1.079   4.467  11.469  0.0854 -0.5296  0.4801
16913TIP3    H172154   1.039   4.382  11.453 -0.6541 -0.3119  1.0997
16913TIP3    H272155   1.078   4.511  11.384  0.5458 -1.1656  0.1420
16914TIP3   OH272156   6.593   1.564  12.327  0.4885 -0.3305 -0.3649
16914TIP3    H172157   6.587   1.659  12.335  0.2335 -0.3813  0.1079
16914TIP3    H272158   6.672   1.540  12.375 -0.3394 -0.5086  0.9729
16915TIP3   OH272159   6.545   3.731   4.730 -0.1134 -0.5213 -0.0614
16915TIP3    H172160   6.521   3.761   4.642  0.6416  2.2050  0.5865
16915TIP3    H272161   6.637   3.706   4.723 -0.5858 -2.3710 -0.4552
16916TIP3   OH272162   1.371   4.649   2.232 -0.1523 -0.3045 -0.1446
16916TIP3    H172163   1.296   4.617   2.182  1.0929 -2.6165 -0.6773
16916TIP3    H272164   1.395   4.576   2.289  2.4420 -0.1632 -0.9004
16917TIP3   OH272165   2.812   4.332  12.946  0.2628  0.2527 -0.3722
16917TIP3    H172166   2.732   4.348  12.995 -1.1129 -1.0104 -2.0497
16917TIP3    H272167   2.785   4.337  12.854  2.5711  1.8383 -1.0408
16918TIP3   OH272168   3.429   5.747   3.621 -0.4443 -0.0502  0.0835
16918TIP3    H172169   3.477   5.670   3.650 -1.5956 -0.4745  0.9452
16918TIP3    H272170   3.475   5.776   3.542  1.5000 -0.1266  1.1293
16919TIP3   OH272171   4.466   2.096   0.928 -0.4024 -0.1768 -0.5976
16919TIP3    H172172   4.429   2.012   0.904  1.7743 -1.1007 -1.0126
16919TIP3    H272173   4.463   2.149   0.849 -0.7561 -0.2705 -0.6440
16920TIP3   OH272174   5.951   1.241   2.277 -0.4129  0.2098  0.2455
16920TIP3    H172175   5.861   1.272   2.287 -0.2055  0.8667  0.0654
16920TIP3    H272176   6.004   1.320   2.273  0.2527 -0.1733  1.0223
16921TIP3   OH272177   1.439   1.673  11.806  0.1784  0.0558 -0.5044
16921TIP3    H172178   1.407   1.723  11.731  2.1875  0.4004 -1.1917
16921TIP3    H272179   1.534   1.671  11.795  0.4241 -1.0001  1.3527
16922TIP3   OH272180   2.932   2.339  17.239 -0.3396  0.0255 -0.2067
16922TIP3    H172181   2.899   2.368  17.324 -1.2945 -2.1654  0.2406
16922TIP3    H272182   3.014   2.294  17.260 -0.4339 -0.2769 -0.4822
16923TIP3   OH272183   4.522   2.424   0.953 -0.1331  0.0121  0.0476
16923TIP3    H172184   4.470   2.499   0.980  0.3380  0.0332  0.9447
16923TIP3    H272185   4.587   2.460   0.893 -0.3913  0.1855 -0.1314
16924TIP3   OH272186   1.317   5.890   6.410 -0.6907 -0.1790 -0.3037
16924TIP3    H172187   1.224   5.914   6.419 -0.4875  0.5805 -0.0954
16924TIP3    H272188   1.360   5.971   6.382  0.3284  0.2784  2.2645
16925TIP3   OH272189   5.557   0.715  15.388 -0.3472  0.2308 -0.1245
16925TIP3    H172190   5.485   0.725  15.325 -0.7201  1.4063  0.4732
16925TIP3    H272191   5.635   0.742  15.339 -0.2203 -1.3811 -0.8857
16926TIP3   OH272192   2.516   5.414   0.277 -0.0941  0.1926 -0.3285
16926TIP3    H172193   2.532   5.471   0.352  1.3218  0.0437 -0.4919
16926TIP3    H272194   2.564   5.454   0.205 -0.9532  0.0091 -1.0189
16927TIP3   OH272195   0.085   1.913   0.692  0.7787 -0.0878  0.0566
16927TIP3    H172196   0.072   1.991   0.637  1.5240  0.4055  0.5604
16927TIP3    H272197   0.059   1.840   0.636 -0.4133  0.5499 -0.2634
16928TIP3   OH272198   4.182   6.641   0.598  0.2121 -0.0007  0.2962
16928TIP3    H172199   4.122   6.572   0.570  1.0237 -1.2974  1.5842
16928TIP3    H272200   4.125   6.712   0.627 -0.6864 -0.7021  0.3045
16929TIP3   OH272201   1.960   5.709   5.781 -0.2100  0.3778  0.4149
16929TIP3    H172202   1.890   5.735   5.842 -0.7142  1.3919 -0.5436
16929TIP3    H272203   2.005   5.791   5.761 -0.6910  0.2609 -1.3171
16930TIP3   OH272204   3.478   1.037   4.933 -0.2643 -0.5029  0.0323
16930TIP3    H172205   3.516   1.104   4.876  0.6441 -1.3540 -0.3872
16930TIP3    H272206   3.538   1.030   5.007  0.5724 -2.0255 -0.7508
16931TIP3   OH272207   4.383   5.745   2.207  1.0439  0.5575 -0.3637
16931TIP3    H172208   4.407   5.742   2.114  0.4604  0.0523 -0.5095
16931TIP3    H272209   4.329   5.824   2.215 -1.5471 -0.9989 -1.1602
16932TIP3   OH272210   4.071   3.809   5.707 -0.1901  0.7261 -0.9471
16932TIP3    H172211   4.014   3.833   5.780 -1.1362  0.0425 -1.4357
16932TIP3    H272212   4.073   3.713   5.709  3.1156  0.6761  0.6863
16933TIP3   OH272213   5.721   1.489  11.673  0.0845  0.3812 -0.8763
16933TIP3    H172214   5.641   1.449  11.640  0.1191 -0.9562  0.5771
16933TIP3    H272215   5.791   1.433  11.639  0.1607 -0.5767  0.7864
16934TIP3   OH272216   5.988   6.246  13.285 -0.0330  0.1576  0.1221
16934TIP3    H172217   5.986   6.325  13.340  1.4257  1.6699 -1.8344
16934TIP3    H272218   6.052   6.189  13.327 -0.0476  0.6278  0.7954
16935TIP3   OH272219   6.614   4.898  11.885  0.2351  0.0024 -0.0993
16935TIP3    H172220   6.695   4.875  11.930  0.2378  0.7417  0.2966
16935TIP3    H272221   6.561   4.818  11.887  0.3958 -0.0935  0.8821
16936TIP3   OH272222   1.153   0.445  15.305 -0.2852  0.3703 -0.5031
16936TIP3    H172223   1.092   0.377  15.276  1.7730 -2.0678  0.5170
16936TIP3    H272224   1.236   0.423  15.264  1.8872 -1.2417  4.1091
16937TIP3   OH272225   5.112   1.862  13.459  0.4047 -0.4090  0.1313
16937TIP3    H172226   5.139   1.782  13.414 -0.4433 -0.4533 -0.3300
16937TIP3    H272227   5.180   1.878  13.523  0.8604 -1.2042 -0.1405
16938TIP3   OH272228   3.422   6.481  13.888  0.1331 -0.7729 -0.2735
16938TIP3    H172229   3.453   6.418  13.953  0.3094 -2.3293 -1.7826
16938TIP3    H272230   3.494   6.545  13.880  0.8609 -1.5709 -0.2134
16939TIP3   OH272231   4.463   4.997  15.657  0.5672  0.3226 -0.3131
16939TIP3    H172232   4.494   4.908  15.676 -0.5800 -0.0383 -0.0497
16939TIP3    H272233   4.468   5.042  15.741  0.9810  0.4686 -0.4104
16940TIP3   OH272234   4.961   4.125  12.480 -0.0958 -0.1736  0.4719
16940TIP3    H172235   4.951   4.031  12.469  1.8286 -0.2306 -1.3161
16940TIP3    H272236   4.871   4.158  12.489 -0.8677 -2.0513  0.0419
16941TIP3   OH272237   1.975   2.194   0.782  0.2685 -0.2728  0.2959
16941TIP3    H172238   1.941   2.186   0.871  2.8036  1.1604  1.4905
16941TIP3    H272239   2.061   2.153   0.785  0.4991 -0.0202 -1.4795
16942TIP3   OH272240   6.269   6.343   2.727 -0.8128 -0.1164 -0.5446
16942TIP3    H172241   6.256   6.389   2.644 -2.3243  0.2433 -0.1328
16942TIP3    H272242   6.230   6.256   2.713 -0.7148 -0.1959 -0.3345
16943TIP3   OH272243   2.709   0.170   5.660 -0.0595 -0.2787  0.2658
16943TIP3    H172244   2.772   0.161   5.589  0.6854 -0.5403  0.9385
16943TIP3    H272245   2.708   0.264   5.679  0.1741 -0.2798  0.2899
16944TIP3   OH272246   4.677   4.904  12.343 -0.0149 -0.1666 -0.1383
16944TIP3    H172247   4.747   4.862  12.294 -0.2412 -1.2600  0.4404
16944TIP3    H272248   4.722   4.956  12.409  0.2653 -0.4264 -0.1225
16945TIP3   OH272249   0.655   2.948  14.260  0.2570 -0.1932  0.5899
16945TIP3    H172250   0.726   2.999  14.222  0.4591  0.7122  2.1082
16945TIP3    H272251   0.695   2.863  14.280  1.9069  1.2131  4.1965
16946TIP3   OH272252   2.720   3.861  13.308 -0.4595 -0.4098  0.4939
16946TIP3    H172253   2.811   3.833  13.302 -1.0444 -2.5170  0.8540
16946TIP3    H272254   2.725   3.951  13.340  1.5108 -0.1385 -0.4195
16947TIP3   OH272255   5.672   5.075  13.777 -0.0038  0.2208  0.0420
16947TIP3    H172256   5.757   5.118  13.781  0.7236 -1.1149 -0.3703
16947TIP3    H272257   5.650   5.074  13.684 -0.6882  0.9433  0.1861
16948TIP3   OH272258   4.038   5.232  17.278  0.0660  0.2884 -0.3853
16948TIP3    H172259   3.964   5.252  17.220  1.1218  0.2274 -1.8048
16948TIP3    H272260   4.025   5.290  17.353 -2.0589 -0.5656 -0.0084
16949TIP3   OH272261   0.253   3.850   5.599  0.4469  0.1477  0.4679
16949TIP3    H172262   0.167   3.885   5.621  0.4917 -0.0519  0.9578
16949TIP3    H272263   0.256   3.852   5.503  1.1196  3.0846  0.4666
16950TIP3   OH272264   1.712   4.657  15.360  0.4407 -0.3905 -0.3693
16950TIP3    H172265   1.745   4.571  15.336  1.0620 -2.1093  5.2605
16950TIP3    H272266   1.789   4.715  15.353  2.1113 -2.0406  2.5431
16951TIP3   OH272267   2.553   1.988  11.460  0.4392  0.3822 -0.2455
16951TIP3    H172268   2.613   1.924  11.421  1.0060 -0.2474  1.5751
16951TIP3    H272269   2.605   2.033  11.527 -0.8025  0.6213  0.5955
16952TIP3   OH272270   0.190   1.562   1.433 -0.1895 -0.3300  0.3253
16952TIP3    H172271   0.243   1.543   1.510  0.7399  0.8966  0.0288
16952TIP3    H272272   0.120   1.619   1.465  0.4256  0.5074  0.2198
16953TIP3   OH272273   1.670   1.475  17.253  0.5674  0.2831  0.3331
16953TIP3    H172274   1.647   1.568  17.260 -0.6156 -0.0146  0.5204
16953TIP3    H272275   1.586   1.430  17.242  0.9204 -0.9836  2.3764
16954TIP3   OH272276   2.142   2.027  16.447  0.4126 -0.3916  0.3914
16954TIP3    H172277   2.059   1.990  16.477  0.6575 -1.0072  0.3206
16954TIP3    H272278   2.173   2.079  16.521 -0.8453  1.2335 -0.1700
16955TIP3   OH272279   4.082   1.083   5.643  0.0715  0.3752 -0.3906
16955TIP3    H172280   4.070   1.105   5.550  0.7909 -0.1453 -0.6201
16955TIP3    H272281   4.117   0.994   5.642  0.1825  0.4026  0.3781
16956TIP3   OH272282   3.517   5.733   4.047 -0.2809 -0.1940 -0.7570
16956TIP3    H172283   3.500   5.794   3.976  2.2625 -0.6177 -1.8450
16956TIP3    H272284   3.437   5.734   4.099 -1.9268  0.7895 -3.1184
16957TIP3   OH272285   2.925   3.130   4.597  0.3942 -0.0362 -0.4356
16957TIP3    H172286   2.837   3.165   4.583 -1.0649 -2.5694  1.5349
16957TIP3    H272287   2.965   3.190   4.659  0.1409  1.2285 -1.4576
16958TIP3   OH272288   3.383   1.738  14.177  0.3273  0.2900 -0.0401
16958TIP3    H172289   3.416   1.825  14.154 -2.0077  1.0836 -0.5945
16958TIP3    H272290   3.397   1.686  14.098 -0.9414  0.9967 -0.7552
16959TIP3   OH272291   5.401   6.351   5.386  0.3581 -0.1679 -0.1060
16959TIP3    H172292   5.309   6.330   5.399 -0.1181  0.9791 -1.3567
16959TIP3    H272293   5.429   6.391   5.468  0.1489 -1.7737  0.7818
16960TIP3   OH272294   3.453   4.705   4.838  0.4439  0.1922 -0.1600
16960TIP3    H172295   3.542   4.717   4.806  0.7069 -2.0964 -0.4465
16960TIP3    H272296   3.461   4.703   4.933  0.6927  0.0842 -0.1833
16961TIP3   OH272297   0.115   5.233  16.139 -0.1198  0.4554  0.1222
16961TIP3    H172298   0.075   5.258  16.055  0.0976 -1.1349 -0.4891
16961TIP3    H272299   0.094   5.140  16.149  0.2070  0.5157  1.6533
16962TIP3   OH272300   5.776   3.567  12.340  0.0549 -0.3327 -0.8006
16962TIP3    H172301   5.717   3.629  12.297 -0.5744 -1.0137 -0.9438
16962TIP3    H272302   5.731   3.482  12.332  1.0029 -0.8426 -0.8044
16963TIP3   OH272303   5.280   2.589   5.874  0.2708  0.2375  0.5197
16963TIP3    H172304   5.239   2.543   5.947  0.8296 -0.3332  0.4749
16963TIP3    H272305   5.207   2.615   5.818  0.0387 -1.9677 -0.2656
16964TIP3   OH272306   2.491   5.884   2.025  0.0544 -0.0000  0.2632
16964TIP3    H172307   2.583   5.884   1.999 -0.4635  1.8701 -1.8357
16964TIP3    H272308   2.454   5.962   1.985 -2.8288 -1.4833 -0.2639
16965TIP3   OH272309   4.128   4.534  12.430  0.0632 -0.5791  0.4915
16965TIP3    H172310   4.175   4.574  12.502  0.7374  0.5565 -0.5416
16965TIP3    H272311   4.156   4.583  12.352 -1.6642 -0.8695 -0.3684
16966TIP3   OH272312   2.922   3.583  16.357  0.2930  0.1736  0.3690
16966TIP3    H172313   2.945   3.606  16.267  0.2187  1.7387  0.7243
16966TIP3    H272314   3.007   3.576  16.402  0.3225 -0.4305  0.2245
16967TIP3   OH272315   5.775   1.266  16.790 -0.0247  0.8606 -0.9327
16967TIP3    H172316   5.800   1.272  16.698  0.0918  0.4801 -0.9256
16967TIP3    H272317   5.761   1.173  16.806 -0.6440  0.9811 -0.7238
16968TIP3   OH272318   3.478   1.610   1.093 -0.4210 -0.1323 -0.0393
16968TIP3    H172319   3.409   1.675   1.077  0.0503  0.7233  1.2488
16968TIP3    H272320   3.552   1.641   1.042  0.2552  1.1823  1.6178
16969TIP3   OH272321   2.008   6.098   5.272  0.2467 -0.1086 -0.1308
16969TIP3    H172322   1.929   6.055   5.241 -0.2187 -0.3175  1.3017
16969TIP3    H272323   2.075   6.074   5.208 -1.2460  1.7670 -2.5543
16970TIP3   OH272324   3.958   6.537  12.190 -0.2920 -0.1068  1.0607
16970TIP3    H172325   4.016   6.481  12.242  1.6843 -0.3734 -1.2034
16970TIP3    H272326   3.898   6.476  12.148 -0.0962 -0.2122  0.9291
16971TIP3   OH272327   1.157   2.986   5.493  0.4707 -0.2246  0.0572
16971TIP3    H172328   1.066   2.967   5.470  0.2503  0.8614 -0.0439
16971TIP3    H272329   1.156   2.997   5.588  0.4720 -0.1155  0.0450
16972TIP3   OH272330   4.792   1.947  15.534 -0.1170  0.1145  0.4488
16972TIP3    H172331   4.759   1.858  15.518  0.0064 -0.5579  3.3234
16972TIP3    H272332   4.719   1.992  15.577  0.0449  1.2441 -0.4177
16973TIP3   OH272333   3.133   2.564  15.794 -0.5295 -0.1189 -0.3025
16973TIP3    H172334   3.050   2.527  15.824 -0.1158 -0.9688 -0.1693
16973TIP3    H272335   3.111   2.653  15.765 -1.0054  0.7226  2.3657
16974TIP3   OH272336   6.687   3.992   2.579 -0.2251 -0.2176 -0.0668
16974TIP3    H172337   6.706   4.077   2.619 -0.5796  0.5625 -1.5099
16974TIP3    H272338   6.761   3.975   2.522  0.2132 -1.2604  0.7875
16975TIP3   OH272339   4.202   6.547  15.017 -0.3151  0.1625 -0.3709
16975TIP3    H172340   4.233   6.456  15.020 -0.8487  0.0103  0.7037
16975TIP3    H272341   4.136   6.552  15.085 -1.9251  0.7782 -1.9035
16976TIP3   OH272342   6.138   6.754   1.418  0.3895  0.4682 -0.4463
16976TIP3    H172343   6.068   6.819   1.421  1.3493  1.5278 -0.5467
16976TIP3    H272344   6.182   6.770   1.334  2.0308  1.2046  0.5088
16977TIP3   OH272345   2.758   5.292   0.741 -0.8632 -0.1963  0.6365
16977TIP3    H172346   2.770   5.305   0.835 -0.9342 -0.9305  0.7534
16977TIP3    H272347   2.664   5.303   0.728 -1.1879 -2.0923  1.0074
16978TIP3   OH272348   5.124   1.141  11.944 -0.1090  0.1668  0.1213
16978TIP3    H172349   5.165   1.055  11.956 -1.8575 -0.5159  1.8340
16978TIP3    H272350   5.032   1.122  11.926 -0.4156  1.6799 -0.0683
16979TIP3   OH272351   3.539   6.144   3.051 -0.2170  0.0037 -0.1155
16979TIP3    H172352   3.529   6.225   3.001  2.4007  0.0186 -0.7258
16979TIP3    H272353   3.505   6.166   3.138 -2.0000  0.8963 -0.9683
16980TIP3   OH272354   2.574   4.095   0.592  0.5815 -0.7648  0.2430
16980TIP3    H172355   2.635   4.044   0.644 -0.6316 -1.9158  0.5757
16980TIP3    H272356   2.487   4.073   0.626 -0.0555  0.7025 -0.3218
16981TIP3   OH272357   0.135   6.363   0.817 -0.4729  0.1015  0.0952
16981TIP3    H172358   0.145   6.275   0.854 -0.1257 -0.4079 -1.1523
16981TIP3    H272359   0.146   6.422   0.892  0.4685 -0.8798  0.7638
16982TIP3   OH272360   3.874   0.724  10.398 -0.3047 -0.3314 -0.6740
16982TIP3    H172361   3.794   0.691  10.438  0.2341  0.5394  1.2160
16982TIP3    H272362   3.915   0.646  10.359  0.1381 -1.6834  2.2519
16983TIP3   OH272363   5.836   6.629  16.443  0.2273  0.4564  0.5823
16983TIP3    H172364   5.845   6.664  16.355 -1.1074  0.3101  0.3797
16983TIP3    H272365   5.927   6.617  16.473  0.6918  0.5425 -0.7391
16984TIP3   OH272366   1.333   5.877   4.902 -0.3683 -0.4038  0.1785
16984TIP3    H172367   1.289   5.901   4.984  0.0829 -0.4651  0.4414
16984TIP3    H272368   1.426   5.888   4.921 -0.3174  1.3349 -0.8660
16985TIP3   OH272369   1.705   6.442  12.521 -0.6125  0.1991 -0.2537
16985TIP3    H172370   1.622   6.487  12.507 -0.2116  0.6983 -1.1469
16985TIP3    H272371   1.767   6.513  12.541 -0.0339  0.0255 -1.3774
16986TIP3   OH272372   3.794   5.640  14.075  0.7633  0.4271 -0.1077
16986TIP3    H172373   3.782   5.689  13.993 -1.4431  0.3422  0.1313
16986TIP3    H272374   3.768   5.701  14.144  2.8251  0.5797  0.6232
16987TIP3   OH272375   3.534   0.335  15.158  0.1284  0.1412 -0.2508
16987TIP3    H172376   3.458   0.283  15.131  0.2742 -1.4409  2.1086
16987TIP3    H272377   3.507   0.377  15.240  1.0502  1.4438 -0.5762
16988TIP3   OH272378   1.580   2.738  13.896  0.0042  0.3754 -0.4079
16988TIP3    H172379   1.531   2.811  13.858 -0.0355 -0.3064 -1.7338
16988TIP3    H272380   1.625   2.698  13.821  0.7287 -0.4311  0.4276
16989TIP3   OH272381   0.328   6.365  15.569  0.1743 -0.2813  0.4044
16989TIP3    H172382   0.394   6.432  15.590  0.4465  0.2309 -1.7948
16989TIP3    H272383   0.374   6.282  15.581  0.9349  0.0494 -0.1056
16990TIP3   OH272384   6.735   1.533  15.567 -0.1538 -0.0503 -0.4332
16990TIP3    H172385   6.653   1.548  15.614  0.5099  0.5619  0.5572
16990TIP3    H272386   6.802   1.529  15.635  0.5445 -1.3900 -1.1563
16991TIP3   OH272387   5.221   0.097   2.351 -0.0991 -0.5032 -0.1857
16991TIP3    H172388   5.304   0.058   2.379  1.1538  0.6706 -2.0592
16991TIP3    H272389   5.171   0.024   2.316 -0.1454 -1.3260  1.4615
16992TIP3   OH272390   1.158   0.822  16.852  0.2714 -0.2594  0.4800
16992TIP3    H172391   1.116   0.847  16.934  2.2623 -0.8046  1.7315
16992TIP3    H272392   1.108   0.746  16.821 -0.9242  0.3819  0.7944
16993TIP3   OH272393   3.228   0.021   4.910  0.2035 -0.2394  0.0906
16993TIP3    H172394   3.309   0.057   4.946  1.6156 -0.8329 -2.2840
16993TIP3    H272395   3.226  -0.070   4.941  1.7324 -0.9372 -1.6612
16994TIP3   OH272396   4.417   2.485  14.942 -0.1301 -0.1558  0.0215
16994TIP3    H172397   4.423   2.558  14.880  0.8004 -0.4608 -0.2719
16994TIP3    H272398   4.508   2.466  14.964 -0.3550 -1.3022  0.0044
16995TIP3   OH272399   0.660   1.841  16.014 -0.0904  0.6892  0.7003
16995TIP3    H172400   0.618   1.886  15.941 -0.7686 -1.7681 -0.5172
16995TIP3    H272401   0.667   1.909  16.082  0.6454  3.0908 -1.5840
16996TIP3   OH272402   3.072   3.656  11.583 -0.1846 -0.2389  0.5240
16996TIP3    H172403   3.028   3.719  11.639 -0.1225  0.9001 -0.6536
16996TIP3    H272404   3.116   3.597  11.644  0.9775  1.7165  1.7081
16997TIP3   OH272405   4.021   1.603   3.789 -0.1787  0.4486 -0.3717
16997TIP3    H172406   3.939   1.573   3.828 -0.9056 -0.2728 -2.3413
16997TIP3    H272407   4.069   1.522   3.769  1.0034  0.8581  0.6751
16998TIP3   OH272408   6.130   4.550   6.991 -0.4222 -0.8237 -0.6049
16998TIP3    H172409   6.153   4.635   6.954 -1.3930 -0.2133  0.1740
16998TIP3    H272410   6.207   4.496   6.973  1.7335  1.1304  1.8558
16999TIP3   OH272411   4.263   6.116  13.657  0.1723  0.6763 -0.8949
16999TIP3    H172412   4.307   6.171  13.593 -0.4851  2.6175  0.2208
16999TIP3    H272413   4.330   6.097  13.723  0.0462  1.4084 -0.5423
17000TIP3   OH272414   0.697   1.835   2.597 -0.1486  0.0306  0.1966
17000TIP3    H172415   0.764   1.889   2.556 -0.1000  0.2773  0.5911
17000TIP3    H272416   0.745   1.779   2.658 -0.2775  0.0535  0.3207
17001TIP3   OH272417   5.072   4.723   4.095 -0.0071  0.8340  0.8230
17001TIP3    H172418   5.098   4.809   4.064 -0.8765  0.5618 -0.7604
17001TIP3    H272419   4.976   4.726   4.095 -0.0444  0.3390  2.1673
17002TIP3   OH272420   4.215   6.322   1.872  0.0771 -0.3198  0.6035
17002TIP3    H172421   4.261   6.402   1.896 -1.9361  1.1129 -0.0661
17002TIP3    H272422   4.284   6.256   1.863  1.6704  1.0250  2.3303
17003TIP3   OH272423   5.301   4.624  15.129 -0.0566 -0.4865 -0.6922
17003TIP3    H172424   5.242   4.681  15.178  0.8399  1.1091 -1.3913
17003TIP3    H272425   5.379   4.677  15.114  1.1629 -2.1853 -0.6904
17004TIP3   OH272426   6.452   3.919  10.597  0.2983  0.0112 -0.0603
17004TIP3    H172427   6.385   3.854  10.581  0.2351 -0.4599  1.8721
17004TIP3    H272428   6.417   4.000  10.559 -0.3981 -0.6789 -0.9195
17005TIP3   OH272429   3.301   4.593   5.373  0.1013  0.0797  0.3151
17005TIP3    H172430   3.319   4.519   5.315  0.5250 -0.4879  1.1376
17005TIP3    H272431   3.387   4.619   5.405 -0.1402  0.2709  0.8174
17006TIP3   OH272432   0.681   6.437   5.008  0.3532  0.2604 -0.2816
17006TIP3    H172433   0.721   6.490   5.078 -2.2336  1.1641  0.6443
17006TIP3    H272434   0.740   6.362   4.998  0.9708  0.1987  2.7521
17007TIP3   OH272435   2.549   2.305   0.987 -0.5287 -0.2702 -0.2110
17007TIP3    H172436   2.606   2.278   1.060 -1.8647 -0.0691  0.9570
17007TIP3    H272437   2.605   2.359   0.932  0.2239  0.5504  1.2995
17008TIP3   OH272438   4.402   3.604  15.563 -0.2352 -0.2877 -0.0134
17008TIP3    H172439   4.392   3.556  15.481  1.3129  0.0863 -0.4528
17008TIP3    H272440   4.357   3.687  15.548 -0.6663 -0.5447 -0.1693
17009TIP3   OH272441   4.826   6.109  12.353  0.2262 -0.5524 -0.7704
17009TIP3    H172442   4.751   6.168  12.365 -0.0044 -1.1530  1.0977
17009TIP3    H272443   4.823   6.052  12.429  3.3638  0.2303  0.0713
17010TIP3   OH272444   3.133   2.071  16.492 -0.2143 -0.3297 -0.0950
17010TIP3    H172445   3.074   2.116  16.552  0.2007 -0.3668  0.3510
17010TIP3    H272446   3.100   1.981  16.489  0.5363 -0.6661  1.1242
17011TIP3   OH272447   3.179   2.812  15.734  0.0682 -0.6366  0.1645
17011TIP3    H172448   3.093   2.845  15.760  0.1898 -0.6544  0.5982
17011TIP3    H272449   3.181   2.822  15.639  1.2110  3.3426  0.4464
17012TIP3   OH272450   2.893   6.041   4.105  0.3609 -0.3575  0.2169
17012TIP3    H172451   2.898   6.094   4.026 -1.3212  3.1484  2.2156
17012TIP3    H272452   2.981   6.048   4.143  0.3097  0.6558  0.1890
17013TIP3   OH272453   1.412   0.949  15.596  0.3542  0.1135  0.7870
17013TIP3    H172454   1.456   1.017  15.546 -0.7864  0.1378 -0.2323
17013TIP3    H272455   1.319   0.970  15.587 -0.0906 -2.1034 -0.3628
17014TIP3   OH272456   1.926   4.218  14.118  0.5951 -0.1167 -0.5034
17014TIP3    H172457   1.972   4.266  14.186  0.7059 -0.6225 -0.2184
17014TIP3    H272458   1.911   4.283  14.049 -2.0851  1.2096  1.1500
17015TIP3   OH272459   5.781   2.567   1.532 -0.8895 -0.3402 -0.2978
17015TIP3    H172460   5.733   2.649   1.530  0.1289  0.2648 -0.3711
17015TIP3    H272461   5.823   2.561   1.445  1.0531  0.3070  0.5398
17016TIP3   OH272462   0.628   3.392  15.254  0.0759 -0.0195 -0.5051
17016TIP3    H172463   0.620   3.480  15.217  3.7722  0.2338 -1.0508
17016TIP3    H272464   0.615   3.333  15.179  1.5543  0.2873 -1.0468
17017TIP3   OH272465   2.149   0.894  11.270 -0.5072 -0.9387 -0.2213
17017TIP3    H172466   2.094   0.868  11.343 -0.7012 -2.6632 -0.9267
17017TIP3    H272467   2.238   0.879  11.301 -0.4212  1.1469  0.6594
17018TIP3   OH272468   5.384   3.744  13.146 -0.4016 -0.0419  0.2803
17018TIP3    H172469   5.397   3.707  13.059  1.4234 -0.3703  0.6613
17018TIP3    H272470   5.359   3.670  13.201  0.0713 -0.1448  0.3643
17019TIP3   OH272471   1.106   6.085  17.185 -0.3610  0.6200  0.1953
17019TIP3    H172472   1.030   6.034  17.158 -0.0854  1.0033 -1.3908
17019TIP3    H272473   1.069   6.169  17.214 -0.4471  1.8885 -3.2004
17020TIP3   OH272474   5.667   1.080  11.393 -0.4130  0.1739 -0.1772
17020TIP3    H172475   5.596   1.135  11.360  0.6777  1.9396  0.2808
17020TIP3    H272476   5.725   1.068  11.318 -0.0213  0.7139  0.0344
17021TIP3   OH272477   6.061   0.271   2.991  0.5078  0.0539 -0.1592
17021TIP3    H172478   6.115   0.314   2.924  0.5172 -0.3115 -0.3911
17021TIP3    H272479   6.121   0.254   3.064  0.8800 -0.9459 -0.6727
17022TIP3   OH272480   1.371   5.606  11.309  0.7366  0.4602  0.1033
17022TIP3    H172481   1.330   5.654  11.380 -0.3003 -0.7318  0.3548
17022TIP3    H272482   1.371   5.667  11.235 -1.3286  0.6095  0.1629
17023TIP3   OH272483   1.296   6.293   2.390 -0.3456  0.1064  0.6868
17023TIP3    H172484   1.247   6.314   2.469 -0.7872 -1.6193  0.9251
17023TIP3    H272485   1.305   6.197   2.392  0.8877  0.1541 -0.6210
17024TIP3   OH272486   5.762   6.006  13.057  0.2795 -0.1600  0.6410
17024TIP3    H172487   5.736   5.988  13.148 -2.3252  1.9539  0.4548
17024TIP3    H272488   5.809   6.089  13.061  1.0402 -0.5618  0.1628
17025TIP3   OH272489   6.317   5.230   2.793 -0.2202 -0.0994 -0.1491
17025TIP3    H172490   6.348   5.232   2.703 -1.7128 -0.1154 -0.6848
17025TIP3    H272491   6.308   5.322   2.818  0.8163 -0.0875  0.2246
17026TIP3   OH272492   2.428   1.151  17.069  0.3085  0.0471  0.4020
17026TIP3    H172493   2.382   1.135  16.987  1.5394 -0.8347 -0.1583
17026TIP3    H272494   2.450   1.244  17.067  0.9777 -0.1043 -0.6601
17027TIP3   OH272495   5.994   3.809  14.724 -0.5552 -0.1843  0.4276
17027TIP3    H172496   6.000   3.818  14.629 -0.6911 -0.1066  0.4269
17027TIP3    H272497   5.904   3.831  14.745 -0.2340  0.9784  0.6973
17028TIP3   OH272498   0.139   2.032  16.067 -0.4425 -0.5669 -0.1184
17028TIP3    H172499   0.132   1.938  16.048  0.5940 -0.4189 -1.3613
17028TIP3    H272500   0.117   2.075  15.985  1.0284  0.2056 -0.1415
17029TIP3   OH272501   5.234   0.378  13.699  0.2724 -0.4482  0.0245
17029TIP3    H172502   5.280   0.376  13.615  0.5464 -0.7754  0.1812
17029TIP3    H272503   5.293   0.333  13.760  1.0029  1.4961  0.8646
17030TIP3   OH272504   5.198   1.515   2.188  0.3320 -0.0443 -0.2154
17030TIP3    H172505   5.276   1.480   2.145 -0.6082 -0.7304 -1.4128
17030TIP3    H272506   5.209   1.493   2.281  0.8913 -1.4068 -0.5867
17031TIP3   OH272507   1.941   6.612   2.949  0.5221  0.2057 -0.2639
17031TIP3    H172508   2.021   6.660   2.971  0.1164  1.0239 -0.5365
17031TIP3    H272509   1.972   6.534   2.903  1.2155 -0.0367  0.5779
17032TIP3   OH272510   2.869   0.063   3.507  0.6373 -0.2487 -0.3173
17032TIP3    H172511   2.872   0.059   3.412  2.5356  0.5142 -0.3406
17032TIP3    H272512   2.858  -0.029   3.534  0.1206 -0.4750 -1.2496
17033TIP3   OH272513   3.830   2.957  12.397 -0.5331  0.0211  0.1458
17033TIP3    H172514   3.842   2.886  12.334 -3.3793  0.1593 -0.7036
17033TIP3    H272515   3.881   3.030  12.362  1.6070 -1.2228  0.4991
17034TIP3   OH272516   2.305   3.718  12.948  0.2088  0.8421  0.4532
17034TIP3    H172517   2.317   3.793  13.006  0.1645 -0.2389  1.9069
17034TIP3    H272518   2.231   3.743  12.892 -0.0436  1.7450  1.1603
17035TIP3   OH272519   2.169   0.211  15.671 -0.1197 -0.1656 -0.2014
17035TIP3    H172520   2.258   0.203  15.706  0.7536 -0.3044 -2.2678
17035TIP3    H272521   2.144   0.302  15.688  1.2913  0.4891 -1.3869
17036TIP3   OH272522   4.798   2.541   4.434  0.0447 -0.2156 -0.4107
17036TIP3    H172523   4.853   2.478   4.481  1.7269  0.2702 -1.6237
17036TIP3    H272524   4.828   2.535   4.343 -0.1711  1.8629 -0.6643
17037TIP3   OH272525   0.479   5.951  11.683 -0.5502  0.1557 -0.4294
17037TIP3    H172526   0.558   5.921  11.727  0.5878  2.3077 -0.8528
17037TIP3    H272527   0.408   5.928  11.742  0.5631 -0.2640  0.8018
17038TIP3   OH272528   5.365   4.955   6.224 -0.8017  0.1386  0.0073
17038TIP3    H172529   5.398   5.038   6.191  0.2560  0.3947  1.5782
17038TIP3    H272530   5.381   4.959   6.319 -1.2582 -1.6144  0.1949
17039TIP3   OH272531   3.831   1.380  15.445  0.2294 -0.0805  0.0111
17039TIP3    H172532   3.857   1.313  15.382 -0.8907 -0.8060  0.2949
17039TIP3    H272533   3.914   1.413  15.480  1.0496  1.8049 -3.2578
17040TIP3   OH272534   0.969   5.231   3.399 -0.0214  0.0004  0.5049
17040TIP3    H172535   1.049   5.227   3.347 -0.4385 -1.1819 -0.0842
17040TIP3    H272536   0.920   5.304   3.362  0.2537 -0.0362  0.0615
17041TIP3   OH272537   0.333   3.740  11.893 -0.5548 -0.0650  0.0807
17041TIP3    H172538   0.407   3.709  11.944  0.2685 -0.8349 -1.4927
17041TIP3    H272539   0.262   3.679  11.914 -0.5784  0.3246  1.1550
17042TIP3   OH272540   2.087   2.872  16.436 -0.2015 -0.6014  0.2934
17042TIP3    H172541   2.149   2.909  16.499 -0.8457 -2.0336  1.8601
17042TIP3    H272542   2.003   2.872  16.483 -0.6367 -2.0113 -0.4207
17043TIP3   OH272543   4.979   1.477  14.866 -0.7255  0.0423 -0.2804
17043TIP3    H172544   5.047   1.535  14.897 -0.4403 -1.6100  2.5057
17043TIP3    H272545   5.025   1.398  14.838 -1.3426 -0.2095 -0.6235
17044TIP3   OH272546   4.393   0.830   2.230  0.3620 -0.3133 -0.0009
17044TIP3    H172547   4.378   0.914   2.188 -1.4503 -0.8942 -0.6076
17044TIP3    H272548   4.484   0.835   2.262  1.2894  0.7648 -2.5266
17045TIP3   OH272549   1.269   4.184   5.890 -0.3364  0.3079 -0.3369
17045TIP3    H172550   1.268   4.278   5.869  0.6325  0.5370  0.5442
17045TIP3    H272551   1.333   4.147   5.828  0.2016  0.4484  0.1287
17046TIP3   OH272552   6.642   4.340   0.978 -0.0774  0.0087 -0.5302
17046TIP3    H172553   6.734   4.366   0.981 -0.2333  0.4527  0.6262
17046TIP3    H272554   6.645   4.244   0.981  0.3314  0.0348 -0.0138
17047TIP3   OH272555   4.597   6.344   0.424  0.0720  0.0035  0.4725
17047TIP3    H172556   4.666   6.370   0.363  0.9118  0.4823  1.6063
17047TIP3    H272557   4.530   6.305   0.368 -0.3637  2.7577 -1.1196
17048TIP3   OH272558   3.714   2.542  12.804 -0.0710  0.2370 -0.5969
17048TIP3    H172559   3.762   2.598  12.742 -2.2956  0.6390 -2.0892
17048TIP3    H272560   3.631   2.587  12.817 -0.4387 -0.8724  1.1632
17049TIP3   OH272561   4.225   4.915  14.197  0.0600  0.1160  0.3020
17049TIP3    H172562   4.204   4.922  14.104 -3.1118  0.5780  0.9306
17049TIP3    H272563   4.211   5.003  14.231 -1.7476 -0.6212  1.6561
17050TIP3   OH272564   4.950   0.819   5.843 -0.1945 -0.0324  0.1217
17050TIP3    H172565   4.917   0.906   5.823 -1.2964 -0.7558 -1.3656
17050TIP3    H272566   5.023   0.806   5.782 -2.2714 -1.4498 -2.2755
17051TIP3   OH272567   1.847   0.128  16.728  0.6042  0.0591 -0.4132
17051TIP3    H172568   1.813   0.165  16.810  2.1053 -1.1918  0.8461
17051TIP3    H272569   1.882   0.203  16.680  1.2912  0.6237  0.9183
17052TIP3   OH272570   4.896   2.308   2.290 -0.4332  0.1384 -0.5735
17052TIP3    H172571   4.910   2.219   2.257  0.1674 -0.5557  1.3547
17052TIP3    H272572   4.923   2.303   2.382 -1.6407  1.9969 -0.0624
17053TIP3   OH272573   1.928   3.031   5.647  0.2076 -0.3718 -0.5911
17053TIP3    H172574   1.857   2.968   5.629 -1.0902  1.0676 -0.6977
17053TIP3    H272575   1.885   3.116   5.646  2.1174  0.6228 -1.4545
17054TIP3   OH272576   3.617   1.828  13.700 -0.0844 -0.6759  0.3199
17054TIP3    H172577   3.597   1.899  13.640  1.3019 -0.1658  0.4163
17054TIP3    H272578   3.594   1.748  13.652  1.5963 -0.3260 -1.2038
17055TIP3   OH272579   3.900   2.061   4.392 -0.0819 -0.4338  0.3659
17055TIP3    H172580   3.832   2.051   4.459 -1.8188  1.2342 -1.0441
17055TIP3    H272581   3.931   1.972   4.376 -0.8139 -1.0550  2.1643
17056TIP3   OH272582   0.389   5.762   2.283 -0.2603 -0.3528  0.0856
17056TIP3    H172583   0.313   5.800   2.240 -1.1969 -1.2786  0.8397
17056TIP3    H272584   0.455   5.754   2.215 -1.3062 -0.7416 -0.9150
17057TIP3   OH272585   2.260   1.238  13.489 -0.1083 -0.3368 -0.0074
17057TIP3    H172586   2.170   1.206  13.482 -0.4341  0.8325 -1.5210
17057TIP3    H272587   2.254   1.331  13.469  1.1129  0.3005  2.3004
17058TIP3   OH272588   2.060   5.265  16.061 -0.1176  0.5869 -0.0434
17058TIP3    H172589   2.114   5.343  16.079  1.0524 -0.4374  1.1510
17058TIP3    H272590   1.970   5.296  16.068  0.2941  2.1178 -0.9683
17059TIP3   OH272591   3.114   2.774   5.123  0.6719  0.2447  1.1938
17059TIP3    H172592   3.022   2.751   5.138  1.1388 -2.6024  0.1412
17059TIP3    H272593   3.122   2.779   5.028  1.4055  1.5937  1.2991
17060TIP3   OH272594   0.656   6.638  13.512 -0.1614 -0.4909 -0.4792
17060TIP3    H172595   0.573   6.673  13.545 -0.2907 -0.7188 -0.5660
17060TIP3    H272596   0.663   6.672  13.422  0.5915  0.8275  0.0476
17061TIP3   OH272597   1.711   5.782  12.531  0.2635 -0.1778  0.1729
17061TIP3    H172598   1.763   5.788  12.451  0.1654 -1.1073  0.0241
17061TIP3    H272599   1.765   5.823  12.598  0.1868  0.9426 -0.4414
17062TIP3   OH272600   4.309   2.529   5.273 -0.3981  0.0878  0.1396
17062TIP3    H172601   4.284   2.440   5.246 -0.8709  0.6653 -1.4919
17062TIP3    H272602   4.320   2.524   5.368 -0.4396 -1.6994  0.0854
17063TIP3   OH272603   1.297   5.562  13.483  0.4055  0.2307 -1.0543
17063TIP3    H172604   1.281   5.590  13.393  0.1171  0.8697 -0.8192
17063TIP3    H272605   1.341   5.478  13.476  2.4928  1.3226 -1.8394
17064TIP3   OH272606   2.845   4.574   5.662 -0.0321  0.3708 -0.7497
17064TIP3    H172607   2.892   4.653   5.636  0.6090  0.1159 -0.3986
17064TIP3    H272608   2.761   4.605   5.693  0.9008  1.1338  1.1833
17065TIP3   OH272609   1.362   6.349  13.676 -0.4913 -0.1145  0.4620
17065TIP3    H172610   1.427   6.413  13.704  2.1778 -1.2751 -2.5360
17065TIP3    H272611   1.284   6.401  13.655  0.4848  1.7156  1.1871
17066TIP3   OH272612   0.310   5.616   3.708  0.4516  0.0687 -0.5742
17066TIP3    H172613   0.311   5.679   3.636  0.0539 -0.6964 -1.2554
17066TIP3    H272614   0.403   5.603   3.728  0.5460  0.8057 -0.4695
17067TIP3   OH272615   4.050   2.488  13.007 -0.3550  0.6059  0.5596
17067TIP3    H172616   4.066   2.394  13.014 -0.5744  0.5624  0.4987
17067TIP3    H272617   4.032   2.502  12.914 -0.2571  0.7168  0.5587
17068TIP3   OH272618   0.669   1.003  13.670 -0.2997 -0.4401 -0.6710
17068TIP3    H172619   0.589   0.971  13.711 -0.3002  0.3189 -0.0585
17068TIP3    H272620   0.640   1.071  13.609  0.0227  1.7962  1.5016
17069TIP3   OH272621   3.474   0.314   2.239 -0.0043  0.2013 -0.6533
17069TIP3    H172622   3.381   0.321   2.257 -0.3478  0.0361 -2.2189
17069TIP3    H272623   3.491   0.382   2.174  0.8608 -0.0888 -0.7471
17070TIP3   OH272624   1.874   5.269   5.226  0.5835  0.1912  0.0108
17070TIP3    H172625   1.885   5.284   5.132 -0.6165 -1.7632 -0.5143
17070TIP3    H272626   1.862   5.356   5.264  1.2129  1.0178 -1.6180
17071TIP3   OH272627   2.174   4.305  12.770 -0.1196  0.0290  0.4199
17071TIP3    H172628   2.182   4.245  12.844 -0.5891 -0.4995  0.0474
17071TIP3    H272629   2.199   4.390  12.806  2.9131 -0.7255  0.4052
17072TIP3   OH272630   1.637   6.339   1.207  0.4832  0.4659  0.7101
17072TIP3    H172631   1.677   6.400   1.145  0.0936 -0.3068 -0.3414
17072TIP3    H272632   1.570   6.391   1.253  1.0945  1.1632  0.8210
17073TIP3   OH272633   1.939   5.941  13.677  0.3246 -0.2652  0.5993
17073TIP3    H172634   1.920   5.857  13.719  0.1259  0.4443  1.9585
17073TIP3    H272635   1.968   5.917  13.589 -2.1342 -1.6290  0.0810
17074TIP3   OH272636   3.235   0.413  12.514 -0.3554  0.3788 -0.0367
17074TIP3    H172637   3.242   0.497  12.558  3.9234 -0.0151  0.4548
17074TIP3    H272638   3.263   0.431  12.424 -2.9047  0.0335 -0.9658
17075TIP3   OH272639   6.058   6.526  17.043  0.0701 -0.4189  0.4272
17075TIP3    H172640   6.019   6.535  16.956 -0.0175 -0.6945  0.4368
17075TIP3    H272641   6.030   6.439  17.073  0.1264 -0.3378  0.7166
17076TIP3   OH272642   1.058   4.891   1.677  0.1104 -0.0223  0.1158
17076TIP3    H172643   1.081   4.975   1.717  1.5256  0.0079 -0.7092
17076TIP3    H272644   1.054   4.830   1.751 -0.1817  0.6138  0.6325
17077TIP3   OH272645   2.167   5.308   5.584  0.4261  0.2455 -0.3060
17077TIP3    H172646   2.119   5.382   5.548 -1.4827 -0.5695  0.4033
17077TIP3    H272647   2.125   5.231   5.545  1.2989 -0.4964  0.1902
17078TIP3   OH272648   5.714   0.054  15.566  0.3089 -0.0105 -0.1971
17078TIP3    H172649   5.752  -0.019  15.517 -2.3983 -2.1466  0.6751
17078TIP3    H272650   5.647   0.090  15.508 -1.6814 -1.4156  1.0958
17079TIP3   OH272651   4.265   0.247  12.193 -0.3823  0.2747 -0.4295
17079TIP3    H172652   4.206   0.189  12.240  0.4805 -0.6574 -0.4453
17079TIP3    H272653   4.209   0.300  12.137 -1.0793 -2.0654 -2.0617
17080TIP3   OH272654   0.012   4.515  13.996  0.0655 -0.0831 -1.2823
17080TIP3    H172655  -0.013   4.607  13.980 -0.9056 -0.1844 -0.4692
17080TIP3    H272656   0.087   4.521  14.055 -1.6923  0.2187  1.0798
17081TIP3   OH272657   2.767   4.005  11.336 -0.2891 -0.1004 -0.2343
17081TIP3    H172658   2.732   3.917  11.321  1.5624 -0.7990 -0.6265
17081TIP3    H272659   2.736   4.028  11.423 -1.6935 -0.6729 -0.5420
17082TIP3   OH272660   1.690   6.635   3.264  0.3784  0.1087  0.6653
17082TIP3    H172661   1.770   6.583   3.266 -0.8067 -1.9017  3.6865
17082TIP3    H272662   1.676   6.661   3.355 -1.4835  1.9228 -0.0521
17083TIP3   OH272663   3.989   3.770  12.552 -0.2607 -0.0661  0.3231
17083TIP3    H172664   3.943   3.812  12.479 -1.5881  1.2448  1.8413
17083TIP3    H272665   3.931   3.783  12.627  2.1833  0.8974  2.1627
17084TIP3   OH272666   1.879   5.901   0.930 -0.1259  0.0656  0.2567
17084TIP3    H172667   1.968   5.865   0.932 -0.1296  0.0625  0.4744
17084TIP3    H272668   1.848   5.892   1.021  0.3471  1.7951  0.6249
17085TIP3   OH272669   3.731   0.926  14.801  0.2716  0.1480  0.0586
17085TIP3    H172670   3.688   0.867  14.740 -1.7197  1.6330 -0.0984
17085TIP3    H272671   3.725   0.882  14.886 -1.8527  0.3749  0.0733
17086TIP3   OH272672   6.332   5.161   5.641  0.2326  0.0946  0.2959
17086TIP3    H172673   6.406   5.109   5.608  0.0641  0.3009 -0.4288
17086TIP3    H272674   6.258   5.100   5.639  0.6386 -0.5633  2.4087
17087TIP3   OH272675   3.565   2.767  12.959  0.0191  0.3928 -0.0081
17087TIP3    H172676   3.473   2.741  12.945  0.0767  1.0725 -1.8993
17087TIP3    H272677   3.575   2.767  13.054 -2.1048  0.8165  0.2766
17088TIP3   OH272678   0.104   0.217   1.022  0.5717 -0.6921 -0.4488
17088TIP3    H172679   0.092   0.214   1.117  0.5799  0.7403 -0.3800
17088TIP3    H272680   0.037   0.158   0.988 -0.6796  0.1894  0.3777
17089TIP3   OH272681   5.842   1.345  10.957  0.7275 -0.4927 -0.1882
17089TIP3    H172682   5.809   1.299  10.879 -0.5162  0.4104 -0.2228
17089TIP3    H272683   5.801   1.299  11.031  1.1120 -0.7173 -0.1124
17090TIP3   OH272684   2.343   4.380  16.612  0.6441  0.1138  0.3077
17090TIP3    H172685   2.406   4.405  16.545 -2.2281  1.0257 -2.2773
17090TIP3    H272686   2.377   4.420  16.693  2.9571  1.1132 -1.0491
17091TIP3   OH272687   4.026   4.286   0.103  0.6391  0.0669 -0.2619
17091TIP3    H172688   3.943   4.247   0.075  1.1884 -1.2352 -0.1683
17091TIP3    H272689   4.010   4.316   0.192  0.2084 -0.0019 -0.3163
17092TIP3   OH272690   4.547   6.153  13.729  0.1704  0.0269 -0.4085
17092TIP3    H172691   4.495   6.201  13.793  0.0347 -1.0417  0.3129
17092TIP3    H272692   4.598   6.220  13.684 -0.3057  0.8783  0.2901
17093TIP3   OH272693   6.394   2.039   5.301  0.3005  0.3547 -0.1847
17093TIP3    H172694   6.353   1.960   5.337 -0.0209  0.7024  0.2297
17093TIP3    H272695   6.441   2.008   5.223  0.6845 -0.3499  0.3101
17094TIP3   OH272696   1.026   1.039  12.825  0.3581  0.7301 -0.1932
17094TIP3    H172697   1.056   1.037  12.734 -1.0909 -1.2775 -0.7041
17094TIP3    H272698   0.955   0.975  12.828  0.9125  0.1180  2.5622
17095TIP3   OH272699   4.503   2.580  12.451  0.7399 -0.1295  0.1755
17095TIP3    H172700   4.429   2.634  12.423  1.5147  1.1534  0.5145
17095TIP3    H272701   4.543   2.549  12.370 -0.2883 -1.0374 -0.0103
17096TIP3   OH272702   3.235   0.281   0.832  0.8394 -0.1085  0.3319
17096TIP3    H172703   3.279   0.310   0.752  0.3237 -0.7443 -0.2004
17096TIP3    H272704   3.160   0.230   0.801  0.3433  0.0486  1.2205
17097TIP3   OH272705   1.654   2.838  16.445  0.6087 -0.1225 -0.5037
17097TIP3    H172706   1.570   2.818  16.404  0.7697 -1.7366 -0.1256
17097TIP3    H272707   1.710   2.763  16.423  1.3949  0.0642  0.7380
17098TIP3   OH272708   2.862   4.279  11.898  0.2185  0.0216  0.5276
17098TIP3    H172709   2.849   4.367  11.863  0.7815 -0.8192 -2.0051
17098TIP3    H272710   2.775   4.240  11.899  0.2113  0.0092 -0.1566
17099TIP3   OH272711   2.798   5.032   4.586  0.3134 -0.1013 -0.0489
17099TIP3    H172712   2.737   5.081   4.531 -0.0659  0.6526  1.0028
17099TIP3    H272713   2.744   4.967   4.631  0.0727  1.1477  1.5611
17100TIP3   OH272714   5.671   5.556   6.613  0.0789 -0.0921 -0.4569
17100TIP3    H172715   5.744   5.500   6.590 -0.9380 -2.0812  0.9395
17100TIP3    H272716   5.595   5.514   6.573 -0.6801  0.4114  0.4194
17101TIP3   OH272717   3.941   2.276   4.938 -0.3967 -0.2695  0.1231
17101TIP3    H172718   3.939   2.237   4.851 -0.2995  0.2527 -0.1118
17101TIP3    H272719   4.029   2.314   4.945 -1.1104  1.5429 -0.3644
17102TIP3   OH272720   5.568   1.139  12.437 -0.5655  0.2544  0.4504
17102TIP3    H172721   5.527   1.128  12.351 -2.4265  2.0805  1.0106
17102TIP3    H272722   5.587   1.050  12.466 -0.9439 -0.4667 -1.3605
17103TIP3   OH272723   4.209   0.081   0.309  0.0698  0.0385  0.0273
17103TIP3    H172724   4.294   0.088   0.353  0.1230 -0.7528  0.0717
17103TIP3    H272725   4.160   0.157   0.339  0.5160  0.1283  0.5460
17104TIP3   OH272726   5.459   3.490   6.575  0.2387 -0.0027 -0.0232
17104TIP3    H172727   5.398   3.554   6.538 -0.2283  0.1939  1.0306
17104TIP3    H272728   5.416   3.406   6.562  0.1080  0.0595  0.0008
17105TIP3   OH272729   3.463   2.971   1.392 -0.0882 -0.3314  0.0822
17105TIP3    H172730   3.413   3.029   1.449  0.9463  0.6458  0.0322
17105TIP3    H272731   3.400   2.937   1.329 -0.8033  0.3443  0.4314
17106TIP3   OH272732   1.412   5.981  15.576 -0.2453 -0.6416 -0.4055
17106TIP3    H172733   1.346   5.981  15.507 -1.8848 -3.4419  1.0290
17106TIP3    H272734   1.471   5.909  15.553  1.9365  1.2524 -1.1829
17107TIP3   OH272735   4.027   5.659   2.063  0.3434 -1.0185  0.0685
17107TIP3    H172736   4.062   5.726   2.005  1.0404 -0.2417  1.3596
17107TIP3    H272737   4.035   5.578   2.012  0.5194 -0.3095 -1.0787
17108TIP3   OH272738   2.700   4.532  14.931  0.7546 -0.2403  0.4722
17108TIP3    H172739   2.749   4.613  14.944 -0.6565  0.6577  0.4507
17108TIP3    H272740   2.734   4.496  14.849 -0.0393  1.4674 -0.6729
17109TIP3   OH272741   1.507   3.652   3.539 -0.1882 -0.0967  0.0015
17109TIP3    H172742   1.417   3.622   3.523  0.2988 -0.7538 -1.7693
17109TIP3    H272743   1.537   3.599   3.612 -1.0317 -0.3348  0.1964
17110TIP3   OH272744   6.649   1.552  10.817 -0.3921 -0.1919  0.1979
17110TIP3    H172745   6.674   1.644  10.806  0.8440 -0.6385 -1.1151
17110TIP3    H272746   6.668   1.532  10.908  1.8287  0.2089 -0.1107
17111TIP3   OH272747   2.803   1.751  14.058 -0.1814  0.2530 -0.0716
17111TIP3    H172748   2.790   1.761  13.964  0.1298  0.8536 -0.0614
17111TIP3    H272749   2.735   1.805  14.098 -0.8484 -0.6744  0.0680
17112TIP3   OH272750   6.240   2.463  11.797  0.3955  0.3196  0.5685
17112TIP3    H172751   6.184   2.497  11.727  0.2464 -1.2640 -0.1206
17112TIP3    H272752   6.183   2.457  11.873 -0.0947 -0.2566  0.1625
17113TIP3   OH272753   1.302   4.420  17.113  0.1900 -0.2835  0.1288
17113TIP3    H172754   1.364   4.438  17.043  0.4667  0.1577  0.4818
17113TIP3    H272755   1.352   4.372  17.179 -0.1654 -1.0344 -0.1390
17114TIP3   OH272756   0.973   4.245   2.597 -0.1308 -0.4406  0.1802
17114TIP3    H172757   0.901   4.278   2.650 -0.1973  1.4478 -0.9826
17114TIP3    H272758   0.938   4.166   2.555 -1.1505 -0.1689  0.4911
17115TIP3   OH272759   2.870   0.610   4.655 -0.6021  0.3244  0.2719
17115TIP3    H172760   2.885   0.541   4.720  1.7902  1.2245  0.8008
17115TIP3    H272761   2.927   0.682   4.683 -2.5920  2.3466 -0.5732
17116TIP3   OH272762   4.518   5.137  11.857  0.0220  0.4482  0.1582
17116TIP3    H172763   4.583   5.085  11.904 -1.0129  0.0874  1.2380
17116TIP3    H272764   4.516   5.100  11.769 -0.0813 -0.7750  0.6632
17117TIP3   OH272765   2.270   2.077   3.855  0.5390  0.2211  0.3731
17117TIP3    H172766   2.301   2.001   3.904  1.8122 -0.9871 -2.1217
17117TIP3    H272767   2.187   2.047   3.816 -0.5243  1.2085  1.7691
17118TIP3   OH272768   1.236   1.584  12.893 -0.1830  0.5656 -0.3445
17118TIP3    H172769   1.308   1.632  12.850  0.2844  0.4967  0.3450
17118TIP3    H272770   1.212   1.639  12.968  2.1118 -1.3997  2.0339
17119TIP3   OH272771   1.097   4.289   4.823 -0.6847 -0.1344  0.2505
17119TIP3    H172772   1.163   4.229   4.788 -1.2458 -1.6194  1.6007
17119TIP3    H272773   1.123   4.376   4.792  0.9218 -0.9068 -0.6426
17120TIP3   OH272774   2.420   5.818   3.547  0.0922  0.6502 -0.1574
17120TIP3    H172775   2.398   5.907   3.573  1.5106  0.6859  1.0613
17120TIP3    H272776   2.499   5.797   3.597  0.1138 -1.0908 -0.8437
17121TIP3   OH272777   1.434   2.820  16.208 -0.8807  0.4526 -0.6634
17121TIP3    H172778   1.508   2.763  16.188  0.8861  2.0019  1.0164
17121TIP3    H272779   1.359   2.778  16.166  0.7057 -1.8760 -1.3635
17122TIP3   OH272780   5.616   1.483  12.262 -0.5805  0.3952  0.0619
17122TIP3    H172781   5.650   1.573  12.259 -0.0302  0.2265  0.8905
17122TIP3    H272782   5.629   1.450  12.173  0.2151  0.7900  0.0178
17123TIP3   OH272783   6.076   3.491  14.067  0.2308 -0.0571 -0.6908
17123TIP3    H172784   6.085   3.487  14.162 -0.8836  0.2772 -0.5574
17123TIP3    H272785   6.155   3.448  14.034  1.3986  1.1927  0.3550
17124TIP3   OH272786   3.326   1.725   1.886  0.4493 -0.0118  0.2635
17124TIP3    H172787   3.351   1.811   1.920 -0.2678 -0.3504  1.7419
17124TIP3    H272788   3.232   1.720   1.901  0.0247 -0.1005 -2.0781
17125TIP3   OH272789   5.985   3.683  11.808  0.3891  0.1883  0.3135
17125TIP3    H172790   5.970   3.752  11.873 -1.6917 -2.3060  2.7043
17125TIP3    H272791   5.914   3.693  11.745  1.7934  1.9371 -1.1122
17126TIP3   OH272792   4.759   1.114   2.939 -0.3885  0.2184  0.5878
17126TIP3    H172793   4.781   1.074   2.854 -2.3680 -1.2081  0.6862
17126TIP3    H272794   4.677   1.159   2.923  0.3130  1.8067  1.2622
17127TIP3   OH272795   3.451   3.703   1.922 -0.2603 -0.2435 -0.4273
17127TIP3    H172796   3.462   3.632   1.986 -0.9987  0.2795  0.2924
17127TIP3    H272797   3.539   3.715   1.885  0.8212  1.1063  2.2861
17128TIP3   OH272798   5.053   3.053  14.866  0.6098 -0.4000 -0.2365
17128TIP3    H172799   5.052   3.049  14.962  0.1223 -0.1016 -0.2241
17128TIP3    H272800   4.989   2.988  14.838  0.5589 -0.3015 -0.3525
17129TIP3   OH272801   3.652   3.861  13.647 -0.0078  0.1652 -0.0653
17129TIP3    H172802   3.671   3.950  13.618  2.1885 -0.6865 -1.4951
17129TIP3    H272803   3.718   3.844  13.715  0.4095 -0.7682 -0.6854
17130TIP3   OH272804   1.496   3.125   1.681 -0.0322  0.0904  0.0572
17130TIP3    H172805   1.529   3.036   1.697 -3.8222 -1.5579 -0.0433
17130TIP3    H272806   1.519   3.143   1.590 -1.3185 -1.9756 -0.7590
17131TIP3   OH272807   0.155   3.934  14.672  0.2716  0.2950  0.1458
17131TIP3    H172808   0.100   3.858  14.689  1.6986 -0.6624  0.6395
17131TIP3    H272809   0.129   3.998  14.738 -1.2614  0.4522 -0.5605
17132TIP3   OH272810   4.058   0.148  15.126  0.2069 -0.3162  0.2256
17132TIP3    H172811   4.045   0.228  15.177 -2.6883 -0.4266 -0.1706
17132TIP3    H272812   3.988   0.089  15.154  0.4459 -1.5933 -1.6136
17133TIP3   OH272813   2.037   2.982   1.773 -0.0950 -0.1711  0.1073
17133TIP3    H172814   1.961   3.040   1.759  0.3091  1.0943  2.5119
17133TIP3    H272815   2.104   3.040   1.811  1.0767 -1.8298  0.6760
17134TIP3   OH272816   1.141   3.256  10.632  0.1621  0.0430  0.5397
17134TIP3    H172817   1.160   3.316  10.560  2.6200  0.3702  1.3782
17134TIP3    H272818   1.204   3.185  10.622 -1.2464 -1.3171  0.8590
17135TIP3   OH272819   6.292   6.115   1.207 -0.3807  0.0563  0.1232
17135TIP3    H172820   6.324   6.147   1.292  0.0328 -0.5845  0.2118
17135TIP3    H272821   6.227   6.048   1.229 -1.9168  1.4112 -0.0528
17136TIP3   OH272822   4.752   0.074  13.960 -0.3397  0.2179  0.2900
17136TIP3    H172823   4.747   0.128  14.038 -0.0930 -2.7905  2.5700
17136TIP3    H272824   4.667   0.029  13.956  0.1914 -0.7921 -0.2790
17137TIP3   OH272825   1.550   1.701  14.932 -0.2796 -0.4058  0.2342
17137TIP3    H172826   1.580   1.791  14.917 -1.1581  0.0374  1.0166
17137TIP3    H272827   1.591   1.650  14.861 -1.6755  1.0085 -1.7117
17138TIP3   OH272828   6.149   3.627   2.417  0.5077 -0.5151 -1.0484
17138TIP3    H172829   6.140   3.615   2.323 -0.2437 -0.3619 -0.9982
17138TIP3    H272830   6.197   3.709   2.426  0.0840 -0.2386 -1.2899
17139TIP3   OH272831   0.942   3.049   6.703  0.0485 -0.3169 -0.3782
17139TIP3    H172832   0.881   3.055   6.776 -0.2832  0.9001 -0.7305
17139TIP3    H272833   0.891   3.074   6.627  1.0153  0.9307 -0.6506
17140TIP3   OH272834   5.659   1.101   1.977 -0.2549 -0.4419  0.0571
17140TIP3    H172835   5.726   1.142   1.921 -0.2305 -0.5720 -0.0092
17140TIP3    H272836   5.685   1.123   2.066  0.2106 -0.9925  0.0642
17141TIP3   OH272837   6.189   1.854  16.489  0.2745 -0.0290 -0.5582
17141TIP3    H172838   6.225   1.883  16.573  1.5789  0.6642 -1.3429
17141TIP3    H272839   6.128   1.923  16.464 -0.5759 -0.5241  0.0848
17142TIP3   OH272840   2.879   2.331   3.759  0.4435  0.1115 -0.4564
17142TIP3    H172841   2.876   2.390   3.834  3.1355 -0.2737  0.0540
17142TIP3    H272842   2.963   2.350   3.717  0.6891 -2.2621 -1.1812
17143TIP3   OH272843   3.784   2.674  15.491 -0.1405 -0.7677 -0.1050
17143TIP3    H172844   3.876   2.699  15.496 -0.5569  0.8569 -0.1208
17143TIP3    H272845   3.781   2.610  15.420  0.9314 -0.6367 -0.2856
17144TIP3   OH272846   2.597   3.870  14.064 -0.0348 -0.7886  0.2697
17144TIP3    H172847   2.534   3.874  14.136  0.9295 -0.8535  1.1359
17144TIP3    H272848   2.595   3.779  14.035 -1.0623 -0.5773 -0.3934
17145TIP3   OH272849   2.031   2.901  12.398  0.5105 -1.1878  0.2577
17145TIP3    H172850   1.975   2.935  12.468  0.6942  0.5639 -0.3829
17145TIP3    H272851   2.120   2.919  12.427  0.6509 -1.9762  0.3138
17146TIP3   OH272852   4.401   2.753  15.546 -0.6905  0.3898 -0.3504
17146TIP3    H172853   4.489   2.770  15.511 -0.0564 -1.4794  0.2109
17146TIP3    H272854   4.416   2.739  15.640 -1.3087 -1.6769 -0.5231
17147TIP3   OH272855   2.250   2.265   2.001 -0.0719  0.3427  0.7315
17147TIP3    H172856   2.302   2.254   1.922  0.8926  1.7042  1.1477
17147TIP3    H272857   2.303   2.226   2.070 -0.5463 -0.0992  0.8573
17148TIP3   OH272858   5.981   5.269   0.464 -0.2179 -0.2980 -0.1453
17148TIP3    H172859   5.943   5.308   0.543  1.8245  1.6206 -0.0043
17148TIP3    H272860   5.931   5.306   0.392 -0.8181 -0.5313  0.1390
17149TIP3   OH272861   0.395   5.724   0.898  0.2594  0.0562  0.5291
17149TIP3    H172862   0.339   5.667   0.845 -0.2788 -0.4796  1.6356
17149TIP3    H272863   0.334   5.767   0.958  0.9528 -0.0414  1.3182
17150TIP3   OH272864   5.681   3.346   2.637 -1.0196  0.4159 -0.2118
17150TIP3    H172865   5.729   3.429   2.637  0.1304 -0.0893  3.0324
17150TIP3    H272866   5.615   3.356   2.706 -2.1993 -0.7114 -1.1255
17151TIP3   OH272867   5.192   2.186  11.577 -0.0161  0.3436  0.3924
17151TIP3    H172868   5.250   2.135  11.633  0.7932  0.5828 -0.2140
17151TIP3    H272869   5.104   2.151  11.594  0.0572  1.1101  2.5719
17152TIP3   OH272870   0.308   0.556   4.007  0.0011  0.2959  0.8598
17152TIP3    H172871   0.353   0.639   3.991  0.8475 -0.2642  0.2244
17152TIP3    H272872   0.298   0.552   4.102  0.1399  1.0262  0.9136
17153TIP3   OH272873   2.331   5.260  14.428  0.8449  0.6484  0.1245
17153TIP3    H172874   2.265   5.322  14.397  0.8953  1.2100  1.0870
17153TIP3    H272875   2.332   5.190  14.362 -0.0489  1.0888 -0.3727
17154TIP3   OH272876   5.030   3.102  15.140 -0.5198  0.1173  0.2685
17154TIP3    H172877   5.057   3.053  15.217 -1.2583  0.7375  0.9356
17154TIP3    H272878   5.020   3.192  15.171 -0.0061  0.5468 -0.7440
17155TIP3   OH272879   2.704   3.969   3.019  0.2686  0.5209 -0.5393
17155TIP3    H172880   2.704   3.953   2.925 -0.0167  2.5518 -0.9367
17155TIP3    H272881   2.776   4.031   3.033  2.5887 -2.2716  1.1534
17156TIP3   OH272882   5.538   2.917  11.830  0.5499 -0.1332 -0.4937
17156TIP3    H172883   5.562   2.997  11.875 -0.6112  1.1295 -2.0081
17156TIP3    H272884   5.543   2.939  11.737 -3.4209 -0.5571 -0.9920
17157TIP3   OH272885   1.604   1.356  13.502  0.0229 -0.5198 -0.9666
17157TIP3    H172886   1.590   1.436  13.451  2.6153  0.5925 -0.1100
17157TIP3    H272887   1.553   1.369  13.582  1.2662  0.8661 -0.3394
17158TIP3   OH272888   2.546   2.895  16.818 -0.0730 -0.0102  0.3153
17158TIP3    H172889   2.506   2.948  16.887 -0.7549 -1.4854  1.0780
17158TIP3    H272890   2.583   2.960  16.757  0.4427  1.3280  1.9758
17159TIP3   OH272891   2.228   3.801  15.768 -1.5007 -0.3723  0.4292
17159TIP3    H172892   2.216   3.745  15.691 -2.1238 -0.2435  0.4277
17159TIP3    H272893   2.155   3.863  15.764 -2.0204 -0.8789  1.5640
17160TIP3   OH272894   4.250   4.222  10.922  0.5115  0.1400 -0.4098
17160TIP3    H172895   4.189   4.177  10.981  0.0787  0.6738 -0.4340
17160TIP3    H272896   4.206   4.305  10.902  2.0526  1.4014  1.0745
17161TIP3   OH272897   2.490   2.330  11.492  0.0461 -0.0066  0.0270
17161TIP3    H172898   2.427   2.402  11.499 -1.0869 -0.7493 -1.9297
17161TIP3    H272899   2.566   2.361  11.542 -0.5347  2.3769 -0.4102
17162TIP3   OH272900   2.700   5.274  11.528 -0.3373 -0.0347 -0.1555
17162TIP3    H172901   2.625   5.292  11.471  0.7236  1.1830 -1.2284
17162TIP3    H272902   2.675   5.195  11.575 -2.0238 -0.0405 -0.9656
17163TIP3   OH272903   4.111   3.337   3.553  0.1895 -0.9209  0.0926
17163TIP3    H172904   4.124   3.322   3.459  0.1383 -1.1068  0.1138
17163TIP3    H272905   4.198   3.323   3.591  0.4383  0.1815 -0.0501
17164TIP3   OH272906   4.185   5.746  16.357  0.5307  0.1045 -0.1591
17164TIP3    H172907   4.143   5.692  16.291  0.6876 -1.3525  0.8794
17164TIP3    H272908   4.276   5.717  16.358  1.2908  2.2630 -1.4195
17165TIP3   OH272909   4.867   2.227  12.971  0.0571 -0.3409 -0.1730
17165TIP3    H172910   4.918   2.170  12.914  1.3616 -0.2041  0.8032
17165TIP3    H272911   4.815   2.166  13.024 -0.4680 -0.5007 -0.8554
17166TIP3   OH272912   2.394   2.213   1.762  0.3393 -0.3854  0.1955
17166TIP3    H172913   2.376   2.131   1.715 -0.6113 -0.1520  0.1299
17166TIP3    H272914   2.384   2.281   1.695  0.3634 -0.1549  0.4265
17167TIP3   OH272915   2.320   0.429  13.817  0.1443 -0.1148 -0.4472
17167TIP3    H172916   2.335   0.483  13.739  0.4208  0.1390 -0.2172
17167TIP3    H272917   2.230   0.449  13.843  0.7163  1.3659  0.5068
17168TIP3   OH272918   1.477   4.699  14.301  0.4616 -0.1353  0.0893
17168TIP3    H172919   1.526   4.781  14.298  0.2446 -0.0190 -0.5470
17168TIP3    H272920   1.540   4.632  14.272  0.6848 -0.2195  0.7652
17169TIP3   OH272921   2.783   6.610  13.072 -0.0942  0.3902 -1.1144
17169TIP3    H172922   2.776   6.680  13.136  0.2429 -2.6401  2.6311
17169TIP3    H272923   2.697   6.566  13.076  0.9355 -1.6833 -0.2606
17170TIP3   OH272924   5.963   3.108  11.468  0.2503  0.0146 -0.1290
17170TIP3    H172925   5.977   3.079  11.378 -0.2321 -2.3104  0.4717
17170TIP3    H272926   5.887   3.166  11.464  0.2849  0.0006 -1.2192
17171TIP3   OH272927   1.550   1.363  11.724  0.0981 -0.3360 -0.4121
17171TIP3    H172928   1.463   1.383  11.759 -0.7809 -1.8861 -1.5532
17171TIP3    H272929   1.611   1.393  11.791 -1.3693 -0.3802  1.0005
17172TIP3   OH272930   1.676   6.523  11.687  0.1040 -0.2031  0.0781
17172TIP3    H172931   1.692   6.588  11.618  0.4846 -0.0252  0.3264
17172TIP3    H272932   1.590   6.486  11.667 -0.2426  0.5782  0.0900
17173TIP3   OH272933   1.951   4.542  13.222  0.0179  0.3287  0.2105
17173TIP3    H172934   1.877   4.506  13.172  0.5037  1.3504 -1.3234
17173TIP3    H272935   1.912   4.608  13.279 -0.4898 -0.5331  0.8844
17174TIP3   OH272936   5.091   4.434  15.950 -0.1001 -0.0134 -0.4613
17174TIP3    H172937   5.147   4.496  15.903  0.7979 -0.7380 -0.3674
17174TIP3    H272938   5.099   4.353  15.900 -0.7941 -0.2183 -0.2403
17175TIP3   OH272939   2.256   1.074   5.212 -0.9146  0.0262 -0.1532
17175TIP3    H172940   2.242   1.027   5.294 -0.9238  0.9333  0.3795
17175TIP3    H272941   2.271   1.165   5.239 -1.3345  0.4118 -1.1870
17176TIP3   OH272942   1.296   3.715  10.454 -0.0106  0.2313  0.9139
17176TIP3    H172943   1.356   3.776  10.496 -0.9998  1.5944  0.4051
17176TIP3    H272944   1.212   3.760  10.454 -0.5885 -0.7921 -0.2250
17177TIP3   OH272945   3.644   1.085  12.409  0.0231 -0.0061 -0.4175
17177TIP3    H172946   3.558   1.127  12.405 -0.3318 -0.6977 -0.3248
17177TIP3    H272947   3.681   1.114  12.492  0.9019  2.1865 -1.5095
17178TIP3   OH272948   5.512   1.549  15.902  0.0593 -0.2148  0.2087
17178TIP3    H172949   5.518   1.598  15.820  0.6550 -2.1108 -0.9161
17178TIP3    H272950   5.599   1.554  15.940  0.4349 -1.3088 -0.4714
17179TIP3   OH272951   1.938   0.655  11.933 -0.2059 -0.6868  0.2308
17179TIP3    H172952   1.848   0.641  11.904 -0.8795  2.7897  0.2057
17179TIP3    H272953   1.932   0.727  11.996  2.8224  2.3020 -2.4765
17180TIP3   OH272954   3.599   0.976  17.247 -0.6696 -0.5166  0.3822
17180TIP3    H172955   3.613   1.064  17.214 -0.7846 -0.9194 -0.8133
17180TIP3    H272956   3.509   0.977  17.280 -0.1687  0.2087  1.7706
17181TIP3   OH272957   4.329   4.806   3.582  0.0212  0.3154  0.0840
17181TIP3    H172958   4.363   4.862   3.652  1.3596  1.5249 -1.4657
17181TIP3    H272959   4.308   4.723   3.626 -1.5929  1.7901  2.3773
17182TIP3   OH272960   0.525   2.185  13.770  0.2154 -0.5180  0.0804
17182TIP3    H172961   0.588   2.185  13.842 -0.1099 -0.4203  0.3655
17182TIP3    H272962   0.575   2.153  13.694  0.5804 -0.5337  0.3268
17183TIP3   OH272963   1.369   4.093  11.947  0.1877  0.1408 -0.4910
17183TIP3    H172964   1.352   4.181  11.982  0.0759  0.6009 -1.6659
17183TIP3    H272965   1.396   4.042  12.024  0.6220  1.2922  0.1512
17184TIP3   OH272966   0.389   6.482  15.050  0.2655  0.4766 -0.0744
17184TIP3    H172967   0.355   6.415  14.990 -0.9462  1.8549 -1.0179
17184TIP3    H272968   0.441   6.540  14.994 -0.7243  1.6812  0.1916
17185TIP3   OH272969   3.432   3.488  14.936 -0.2148 -0.2100 -0.3027
17185TIP3    H172970   3.463   3.484  15.026 -2.8863  2.4958  0.8718
17185TIP3    H272971   3.447   3.579  14.909 -1.4842 -0.3928 -1.7717
17186TIP3   OH272972   2.221   5.933  14.400 -0.0573 -0.1205  0.1615
17186TIP3    H172973   2.253   6.020  14.377 -0.0993 -0.4943 -1.4452
17186TIP3    H272974   2.126   5.940  14.393 -0.2007  0.2416  2.1310
17187TIP3   OH272975   6.527   0.024  15.920 -0.1850 -0.4526 -0.8549
17187TIP3    H172976   6.589  -0.043  15.949 -1.4012 -1.3699 -0.3122
17187TIP3    H272977   6.455   0.019  15.983 -0.8841  0.4869 -1.5608
17188TIP3   OH272978   1.191   2.190   2.429 -0.4175  0.8432 -0.4439
17188TIP3    H172979   1.196   2.178   2.334  1.9206  1.0643 -0.4160
17188TIP3    H272980   1.230   2.276   2.444  2.3127 -0.4846  0.8848
17189TIP3   OH272981   3.075   0.176   6.290  0.6309 -0.5185 -0.0146
17189TIP3    H172982   3.012   0.198   6.222  1.3002 -0.6101 -0.6782
17189TIP3    H272983   3.077   0.080   6.290 -1.1565 -0.6095  1.8216
17190TIP3   OH272984   0.980   5.412  11.981  0.2743 -0.1437 -0.1632
17190TIP3    H172985   0.956   5.337  11.927  0.2034  0.1665 -0.5618
17190TIP3    H272986   1.075   5.418  11.971  0.2813 -0.1875 -0.1218
17191TIP3   OH272987   0.889   2.910  16.128 -0.1966 -0.2430  1.0202
17191TIP3    H172988   0.974   2.943  16.156  0.3784 -1.3126  0.5963
17191TIP3    H272989   0.876   2.948  16.041  0.9584 -1.8539  0.0618
17192TIP3   OH272990   1.921   4.354  16.661  0.3452 -0.1867 -0.5011
17192TIP3    H172991   1.858   4.397  16.604 -0.3438 -3.1586 -2.1982
17192TIP3    H272992   1.986   4.316  16.602  0.7611 -1.6513  0.8130
17193TIP3   OH272993   6.110   6.281   2.183  0.1216  1.1983  0.3893
17193TIP3    H172994   6.042   6.309   2.245  1.1450  0.9744  1.6676
17193TIP3    H272995   6.143   6.363   2.146 -0.4968  1.3379  0.1408
17194TIP3   OH272996   2.584   1.693   2.827 -0.0861  0.0249  0.2523
17194TIP3    H172997   2.580   1.785   2.853  0.3247  0.0846  0.1148
17194TIP3    H272998   2.538   1.646   2.896  2.5223 -0.0275  2.1068
17195TIP3   OH272999   1.856   3.432  12.550  0.0617 -0.2939 -0.3427
17195TIP3    H173000   1.946   3.457  12.571  0.5414 -1.3636 -1.0555
17195TIP3    H273001   1.805   3.512  12.563  1.0780  0.2710  0.2608
17196TIP3   OH273002   4.732   2.172  11.847  0.2105 -0.3869 -0.2950
17196TIP3    H173003   4.679   2.094  11.838 -1.1458  0.2877  1.3082
17196TIP3    H273004   4.669   2.244  11.856  1.3981  0.7085 -0.2923
17197TIP3   OH273005   1.056   0.952  10.467 -0.2130 -0.2021 -0.2983
17197TIP3    H173006   1.056   1.045  10.445  1.2129 -0.0846  0.0536
17197TIP3    H273007   1.145   0.923  10.446 -1.3360 -2.1149 -2.8539
17198TIP3   OH273008   1.300   0.927   2.602 -0.8710 -0.2346  0.0325
17198TIP3    H173009   1.294   0.831   2.599  1.7495 -0.5573  1.7153
17198TIP3    H273010   1.250   0.956   2.526 -2.0666 -2.8982 -0.3334
17199TIP3   OH273011   2.070   1.368   3.280 -0.7100  0.3711 -0.9145
17199TIP3    H173012   1.986   1.340   3.245 -0.8279 -0.2945 -0.1321
17199TIP3    H273013   2.065   1.350   3.374 -0.3051  1.8766 -0.5828
17200TIP3   OH273014   3.626   2.300  16.640  0.2790  1.0228 -0.3207
17200TIP3    H173015   3.703   2.326  16.589  1.1464 -2.3054 -0.9916
17200TIP3    H273016   3.621   2.363  16.711  3.7093  1.3660 -0.2179
17201TIP3   OH273017   5.775   5.321   3.093 -0.0702 -0.2205  0.1447
17201TIP3    H173018   5.774   5.257   3.164 -0.7310  0.5793  0.8806
17201TIP3    H273019   5.800   5.404   3.135 -1.5682  0.5037 -0.3072
17202TIP3   OH273020   3.427   3.253  11.727  0.1222 -0.4069 -0.4139
17202TIP3    H173021   3.394   3.341  11.712  0.4435 -0.4889 -1.7294
17202TIP3    H273022   3.349   3.197  11.719  0.3312 -0.4904 -2.3898
17203TIP3   OH273023   5.627   4.699  10.956  0.0283 -0.8429  0.3610
17203TIP3    H173024   5.585   4.785  10.958 -0.4646 -0.9266 -2.3985
17203TIP3    H273025   5.554   4.637  10.966 -0.4252 -0.9574 -2.8368
17204TIP3   OH273026   0.074   5.674   3.859  0.4281 -0.0153  0.4658
17204TIP3    H173027   0.027   5.606   3.906 -0.4005 -0.2871 -0.7056
17204TIP3    H273028   0.166   5.651   3.868  0.1272 -2.4697 -1.5439
17205TIP3   OH273029   5.199   1.260   1.489  0.3155  0.5543  0.4782
17205TIP3    H173030   5.112   1.234   1.457  1.0343 -1.8040  0.2316
17205TIP3    H273031   5.202   1.224   1.578  0.7655  1.2811  0.7577
17206TIP3   OH273032   2.019   4.124  12.631  0.2558 -0.3489 -0.4187
17206TIP3    H173033   1.926   4.139  12.648 -0.7257 -1.4534 -3.8703
17206TIP3    H273034   2.063   4.202  12.664 -1.8786  0.1881  1.3441
17207TIP3   OH273035   1.482   0.059   2.275 -0.0537 -0.4088 -0.1845
17207TIP3    H173036   1.421  -0.006   2.240  2.3410 -2.2821 -1.2400
17207TIP3    H273037   1.492   0.123   2.204 -0.4635 -0.3168 -0.1628
17208TIP3   OH273038   0.954   6.749   5.483 -0.2473 -0.0446  0.0487
17208TIP3    H173039   0.887   6.682   5.493  0.0638 -0.6171 -1.4628
17208TIP3    H273040   1.018   6.731   5.552 -1.6989  0.6280  1.6295
17209TIP3   OH273041   3.174   1.400   5.861  0.2474 -0.2434 -0.4162
17209TIP3    H173042   3.216   1.315   5.869  1.0378  0.2852  1.5153
17209TIP3    H273043   3.246   1.461   5.841 -0.1780  0.1195 -0.8794
17210TIP3   OH273044   1.260   4.957   2.115  0.3098  0.0707 -0.9426
17210TIP3    H173045   1.231   5.040   2.076 -1.5645  0.2901  0.7856
17210TIP3    H273046   1.185   4.898   2.105 -0.6296  0.3797  2.9237
17211TIP3   OH273047   6.371   1.843   4.669  0.4229 -0.1736  0.3184
17211TIP3    H173048   6.366   1.907   4.598 -0.1216 -1.2729 -0.6808
17211TIP3    H273049   6.352   1.892   4.748 -0.5631  0.7764 -0.4896
17212TIP3   OH273050   6.662   5.932   3.145  0.1629  0.5698 -0.1159
17212TIP3    H173051   6.742   5.907   3.193  0.6542 -0.3942 -1.3781
17212TIP3    H273052   6.625   5.849   3.116 -0.2589  1.1026 -1.1579
17213TIP3   OH273053   0.799   2.590  17.133 -0.8149  0.1699  0.6177
17213TIP3    H173054   0.749   2.508  17.136  0.7038 -0.7682  1.6636
17213TIP3    H273055   0.853   2.581  17.054 -0.8298  0.2779  0.5956
17214TIP3   OH273056   5.814   4.060   4.026 -0.7242 -0.1582 -0.2454
17214TIP3    H173057   5.810   4.031   4.117 -6.5334  2.5043  0.8720
17214TIP3    H273058   5.757   3.999   3.979 -1.1817  0.8726 -1.0779
17215TIP3   OH273059   3.202   1.753   5.567  0.3828  0.2283 -0.3054
17215TIP3    H173060   3.232   1.844   5.563  1.4210 -0.0760  0.1626
17215TIP3    H273061   3.134   1.754   5.635  0.9099  0.5351  0.2371
17216TIP3   OH273062   3.585   0.574  15.932  0.2272  0.1360  0.0485
17216TIP3    H173063   3.657   0.618  15.887 -0.0283  0.9775  0.4413
17216TIP3    H273064   3.622   0.547  16.016  0.5631 -0.9848 -0.4493
17217TIP3   OH273065   1.314   0.632  14.478 -0.7906  0.1608 -0.0050
17217TIP3    H173066   1.226   0.665  14.463 -1.2211 -0.6926  0.5276
17217TIP3    H273067   1.301   0.555  14.533  0.2015 -0.6484 -0.8658
17218TIP3   OH273068   3.580   2.496  17.199  0.3993  0.5019  0.0268
17218TIP3    H173069   3.506   2.543  17.237  0.3082  0.5292 -0.1828
17218TIP3    H273070   3.636   2.565  17.163  0.5041  0.4784  0.1424
17219TIP3   OH273071   4.105   5.729  14.475  0.2515  0.2652  0.3567
17219TIP3    H173072   4.108   5.634  14.484  1.3095  0.4518  2.9277
17219TIP3    H273073   4.023   5.755  14.516 -1.1680  0.3882 -2.3555
17220TIP3   OH273074   2.699   4.779   0.417 -0.4503 -0.5229 -0.2584
17220TIP3    H173075   2.710   4.827   0.335  1.0999  0.9854  0.7691
17220TIP3    H273076   2.628   4.825   0.462  1.0454  0.8754  0.7330
17221TIP3   OH273077   0.730   0.810   6.319  0.2228  0.1522  0.5148
17221TIP3    H173078   0.669   0.852   6.258 -0.4334  1.5282  2.0461
17221TIP3    H273079   0.702   0.718   6.320 -0.4685  0.3298 -0.4029
17222TIP3   OH273080   2.851   3.395  13.779  0.1400 -0.1538  0.7242
17222TIP3    H173081   2.901   3.332  13.831 -2.2528 -2.1605  0.7979
17222TIP3    H273082   2.855   3.477  13.829  1.2967 -0.9015  1.9184
17223TIP3   OH273083   6.037   3.194  15.924  0.1375 -0.0864 -0.8833
17223TIP3    H173084   6.037   3.144  15.843 -1.9855 -0.9267 -0.4443
17223TIP3    H273085   5.965   3.156  15.975  1.0427  0.7917  1.1512
17224TIP3   OH273086   1.674   3.899   2.398 -0.1139 -0.2449  0.4967
17224TIP3    H173087   1.658   3.976   2.344 -0.2970  0.5977  1.7302
17224TIP3    H273088   1.652   3.825   2.341  0.9149  0.5573 -0.9935
17225TIP3   OH273089   2.662   6.018  11.594 -0.4432 -0.0121  0.1596
17225TIP3    H173090   2.687   5.926  11.601  3.2970  0.8239  0.0162
17225TIP3    H273091   2.667   6.037  11.500  0.7191  0.7271  0.3518
17226TIP3   OH273092   1.010   5.037  13.657 -0.3356  0.1103 -0.1265
17226TIP3    H173093   0.925   4.997  13.643 -0.6317  0.9995 -0.9985
17226TIP3    H273094   1.053   4.981  13.722 -1.6369 -0.2551  0.4479
17227TIP3   OH273095   3.221   5.952  11.027  0.0684  0.5790  0.1901
17227TIP3    H173096   3.249   5.869  10.988 -1.5397  0.3047 -0.4744
17227TIP3    H273097   3.297   5.983  11.075  0.3765 -1.8979  1.4812
17228TIP3   OH273098   6.178   4.615  13.839  0.1592  0.3797  0.2321
17228TIP3    H173099   6.145   4.615  13.749 -0.1053  0.1620  0.3287
17228TIP3    H273100   6.271   4.637  13.830 -0.2770  2.3118  0.0621
17229TIP3   OH273101   3.393   6.552   5.947  0.3100  0.1627 -0.2912
17229TIP3    H173102   3.439   6.631   5.977 -1.8881  1.4502 -0.1042
17229TIP3    H273103   3.445   6.480   5.982  1.3358  1.5379  1.1896
17230TIP3   OH273104   3.204   5.894   5.137  0.0364  0.4887  0.1599
17230TIP3    H173105   3.282   5.939   5.169  0.1439  0.0087  0.5857
17230TIP3    H273106   3.229   5.802   5.134  0.2077  0.5462 -1.8099
17231TIP3   OH273107   0.049   1.757   2.156  0.0106  0.3673  0.2031
17231TIP3    H173108   0.014   1.676   2.121  0.8661  0.1638 -0.2212
17231TIP3    H273109   0.110   1.788   2.088  1.0925  0.3870  1.1522
17232TIP3   OH273110   1.397   1.291   3.700 -0.4383  0.6211 -0.5516
17232TIP3    H173111   1.359   1.213   3.659  0.4247  0.3925 -0.9467
17232TIP3    H273112   1.360   1.364   3.652 -1.5806  0.4887  0.0907
17233TIP3   OH273113   3.936   0.900   1.600  0.1346  0.0443 -0.3930
17233TIP3    H173114   3.910   0.824   1.652 -1.0203  0.3927 -0.4214
17233TIP3    H273115   3.997   0.866   1.535 -0.3474 -0.8547 -0.3840
17234TIP3   OH273116   2.177   5.825  16.680 -0.1347 -0.3500 -0.0739
17234TIP3    H173117   2.092   5.806  16.720  0.9103 -2.4154  1.3520
17234TIP3    H273118   2.237   5.837  16.754  0.8563  1.1347 -1.0433
17235TIP3   OH273119   1.837   1.425  12.466 -0.2481  0.5212  0.0639
17235TIP3    H173120   1.754   1.470  12.448  0.0950  0.2830 -2.4105
17235TIP3    H273121   1.825   1.388  12.554 -3.0162  0.0159 -0.4209
17236TIP3   OH273122   2.878   1.904   2.431  0.5655  0.4367  0.4661
17236TIP3    H173123   2.792   1.937   2.457 -0.8655 -2.7387  0.3100
17236TIP3    H273124   2.936   1.927   2.504 -1.5275 -1.2858  2.8547
17237TIP3   OH273125   3.889   2.204  15.646 -0.7862  0.4686 -0.3410
17237TIP3    H173126   3.866   2.135  15.583  2.4611 -0.9007 -0.2278
17237TIP3    H273127   3.964   2.248  15.606 -0.1687  1.1592  1.4765
17238TIP3   OH273128   5.583   1.492  13.306 -0.0817  0.8884 -0.2337
17238TIP3    H173129   5.666   1.524  13.271  1.3013 -2.7434 -0.7110
17238TIP3    H273130   5.555   1.560  13.368  2.9544  2.4901 -0.4455
17239TIP3   OH273131   4.477   2.983   5.743 -0.0839  0.6667  0.2935
17239TIP3    H173132   4.549   3.043   5.764  2.0221 -0.3482 -3.1613
17239TIP3    H273133   4.411   3.039   5.701  0.3461  1.0826  0.1598
17240TIP3   OH273134   1.428   6.321  14.237  0.4192 -0.2000  1.1852
17240TIP3    H173135   1.376   6.258  14.187  1.8829 -0.1864 -0.4659
17240TIP3    H273136   1.432   6.399  14.180  1.0823  0.2883  1.8814
17241TIP3   OH273137   5.916   1.319   1.518 -0.6159 -0.5612  0.5371
17241TIP3    H173138   5.857   1.367   1.460  0.6633 -0.1622 -0.4795
17241TIP3    H273139   5.953   1.387   1.574 -0.9288 -0.7814  1.0199
17242TIP3   OH273140   2.610   1.688   3.161  0.0885 -0.4470 -0.3814
17242TIP3    H173141   2.677   1.755   3.154  0.6880 -1.0859 -0.9470
17242TIP3    H273142   2.544   1.725   3.219 -0.2557  1.1959 -1.7414
17243TIP3   OH273143   2.687   4.141  13.342  0.3145  0.5759 -0.1792
17243TIP3    H173144   2.637   4.180  13.413  0.0662 -0.1627  0.0569
17243TIP3    H273145   2.689   4.209  13.274 -0.7930  0.7121 -0.0977
17244TIP3   OH273146   1.856   1.918  16.088 -0.3992 -0.2842 -0.1437
17244TIP3    H173147   1.802   1.958  16.020 -0.6827  0.0330  0.2711
17244TIP3    H273148   1.814   1.942  16.170  0.1837 -0.3123  0.1668
17245TIP3   OH273149   2.109   5.328  13.406  0.2328  0.1516  0.7160
17245TIP3    H173150   2.015   5.339  13.395  0.2366  0.7101  1.2198
17245TIP3    H273151   2.118   5.273  13.484  0.2934 -1.2246 -0.2177
17246TIP3   OH273152   2.291   4.517  12.081  0.2030 -0.3949  0.0299
17246TIP3    H173153   2.298   4.612  12.083 -0.0235 -0.3407  2.7479
17246TIP3    H273154   2.212   4.498  12.133  1.2519 -2.0741  1.1302
17247TIP3   OH273155   1.382   0.753   3.072 -0.4825 -0.4155  0.0127
17247TIP3    H173156   1.308   0.814   3.065  1.5321  2.1130 -0.7137
17247TIP3    H273157   1.435   0.788   3.143  1.8662  0.0899 -1.8725
17248TIP3   OH273158   6.240   2.565   5.523  0.4000  0.1220 -0.5444
17248TIP3    H173159   6.219   2.657   5.537  0.0060  0.1983 -1.5962
17248TIP3    H273160   6.164   2.529   5.476  0.9793 -0.4951 -1.0326
17249TIP3   OH273161   5.837   5.578   3.183  0.0773 -0.6884  0.5232
17249TIP3    H173162   5.863   5.643   3.117 -0.6810 -0.1841  0.7044
17249TIP3    H273163   5.917   5.561   3.232  0.2283  0.3569  0.6792
17250TIP3   OH273164   0.994   2.409  16.816 -1.1431  0.3121 -0.3674
17250TIP3    H173165   1.065   2.420  16.879 -1.7732 -1.3228  0.7163
17250TIP3    H273166   0.956   2.496  16.807 -0.0844  0.8694  0.3541
17251TIP3   OH273167   2.443   5.610  16.846  0.2328  0.1621  0.3213
17251TIP3    H173168   2.452   5.526  16.891  2.8420  0.8352  1.2034
17251TIP3    H273169   2.371   5.654  16.892  0.0380 -0.8504  1.0169
17252TIP3   OH273170   4.870   4.939   6.553 -0.4093  0.5308 -0.2732
17252TIP3    H173171   4.814   5.013   6.531  1.5917  1.5264 -2.4613
17252TIP3    H273172   4.812   4.863   6.550 -2.2303  1.8254  0.6417
17253TIP3   OH273173   5.013   4.400   4.479  0.1267 -0.0448  0.2492
17253TIP3    H173174   4.933   4.349   4.485  0.9774 -1.7602 -1.7103
17253TIP3    H273175   5.059   4.383   4.561  0.5252 -2.7707 -0.4637
17254TIP3   OH273176   0.036   4.940   1.490  0.2136  0.0939  0.5456
17254TIP3    H173177   0.014   4.967   1.579 -1.0945 -0.1554  0.3132
17254TIP3    H273178   0.018   5.017   1.436 -0.5250 -0.2473  0.2954
17255TIP3   OH273179   6.492   2.971  14.945  0.0047 -0.2408 -0.0858
17255TIP3    H173180   6.462   2.972  15.036 -2.3333  1.2629 -0.7511
17255TIP3    H273181   6.457   2.889  14.909  1.7243 -1.2993  0.5261
17256TIP3   OH273182   0.793   2.065  16.544 -0.3079 -0.1595  0.1897
17256TIP3    H173183   0.767   2.138  16.487  1.6982  0.4348 -0.0545
17256TIP3    H273184   0.765   2.092  16.631  0.5726  1.0460  0.1331
17257TIP3   OH273185   1.695   4.002   3.206 -0.6735  0.5220  0.0845
17257TIP3    H173186   1.646   3.960   3.277  0.9700 -2.2927 -0.3012
17257TIP3    H273187   1.752   3.934   3.172  0.6619  2.5570 -2.1101
17258TIP3   OH273188   4.961   5.448   0.746  0.0769 -0.2213 -0.4899
17258TIP3    H173189   4.893   5.474   0.684  0.2870 -0.7175 -0.9315
17258TIP3    H273190   5.039   5.497   0.719  0.1601 -0.4129 -0.6033
17259TIP3   OH273191   4.419   5.915  17.243  0.2640  0.2811  0.2561
17259TIP3    H173192   4.428   5.992  17.299 -0.5138  1.8048 -1.5981
17259TIP3    H273193   4.448   5.944  17.156 -0.4809 -1.3813 -0.6066
17260TIP3   OH273194   5.761   4.593   1.039 -0.2988  0.4880  0.0716
17260TIP3    H173195   5.668   4.570   1.030  0.0711 -0.9139 -0.5112
17260TIP3    H273196   5.805   4.508   1.043  0.7514  1.0569  2.8072
17261TIP3   OH273197   3.877   0.492  13.833 -0.1055 -0.4400  0.0158
17261TIP3    H173198   3.924   0.524  13.756 -0.3399 -1.9274 -0.7763
17261TIP3    H273199   3.921   0.411  13.857  0.2681  0.2193  1.7808
17262TIP3   OH273200   5.752   0.427  14.512 -0.1292  0.1195  0.1421
17262TIP3    H173201   5.741   0.420  14.607  0.8502 -1.4840  0.1890
17262TIP3    H273202   5.828   0.484  14.501  0.9554 -1.2057  0.4393
17263TIP3   OH273203   2.133   1.485  13.420  0.0140  0.2644  0.2819
17263TIP3    H173204   2.154   1.502  13.328  0.2385  1.1895  0.4982
17263TIP3    H273205   2.057   1.540  13.438  0.0540  0.1882  0.6903
17264TIP3   OH273206   5.666   5.940  13.835 -0.6881  0.4730 -0.3705
17264TIP3    H173207   5.701   5.871  13.777 -2.2271 -1.0340  0.4164
17264TIP3    H273208   5.734   5.951  13.902 -0.8748 -1.0749  0.1021
17265TIP3   OH273209   6.703   2.642  15.176  0.3828  0.0196  0.7166
17265TIP3    H173210   6.748   2.708  15.228  0.0554  0.8397 -0.0075
17265TIP3    H273211   6.613   2.643  15.209  0.4185 -0.1771  0.8170
17266TIP3   OH273212   4.631   2.019   5.784 -0.2145  1.0439  0.2550
17266TIP3    H173213   4.553   2.010   5.839  0.1412 -1.6853  0.4708
17266TIP3    H273214   4.606   1.977   5.701  0.8124  0.7071  0.1097
17267TIP3   OH273215   5.585   1.230  14.537  0.3050 -0.0456 -0.7358
17267TIP3    H173216   5.525   1.290  14.582 -0.6256 -1.7919  0.5180
17267TIP3    H273217   5.672   1.267  14.551 -0.3086  1.6147 -1.0623
17268TIP3   OH273218   4.770   5.009   0.065  0.1884  0.0444 -0.3901
17268TIP3    H173219   4.784   4.981  -0.025 -0.3226 -0.8853 -0.1959
17268TIP3    H273220   4.785   5.103   0.064  1.9240 -0.2015 -1.0846
17269TIP3   OH273221   4.681   4.752   2.463 -0.3009 -0.2632  0.1866
17269TIP3    H173222   4.604   4.797   2.498 -0.6803 -0.0601 -0.8607
17269TIP3    H273223   4.747   4.820   2.456 -0.5725 -0.0625 -0.5023
17270TIP3   OH273224   5.034   0.139   0.741  0.4619 -0.5196  0.5108
17270TIP3    H173225   5.027   0.229   0.772  2.0358 -0.0147 -0.5076
17270TIP3    H273226   5.110   0.103   0.787  1.7415 -0.3119 -1.3170
17271TIP3   OH273227   5.272   4.965   5.555 -0.3210  0.4607 -0.0026
17271TIP3    H173228   5.197   4.905   5.560  0.5241 -0.6466 -0.2028
17271TIP3    H273229   5.308   4.951   5.467  0.8052  0.1062  0.4949
17272TIP3   OH273230   5.992   0.119   2.651  0.4431 -0.1262 -0.4160
17272TIP3    H173231   6.084   0.102   2.632  0.2464 -1.6539 -0.0745
17272TIP3    H273232   5.946   0.040   2.622 -0.2791 -1.1389  3.0459
17273TIP3   OH273233   6.398   6.413   2.959 -0.1771  0.7569  0.2158
17273TIP3    H173234   6.471   6.356   2.981 -1.0953  0.6617  3.7831
17273TIP3    H273235   6.348   6.364   2.894  1.0825 -0.7753  0.3365
17274TIP3   OH273236   2.023   5.546  13.091 -0.3493  0.1364 -0.3946
17274TIP3    H173237   2.003   5.455  13.113  0.3702  0.1500  0.3764
17274TIP3    H273238   1.992   5.597  13.166  1.2419  0.2846  0.2135
17275TIP3   OH273239   4.130   5.557  16.165 -0.3567  0.5775 -0.8342
17275TIP3    H173240   4.176   5.552  16.081  2.3689 -0.7148  0.5958
17275TIP3    H273241   4.097   5.469  16.181 -0.1529  0.6059 -0.2042
17276TIP3   OH273242   5.011   2.924  12.165  0.0547  0.1806  0.1393
17276TIP3    H173243   5.026   2.910  12.072  2.2881 -0.8176  0.5898
17276TIP3    H273244   4.940   2.864  12.187  1.7878 -2.1752 -0.2995
17277TIP3   OH273245   6.406   0.656   3.958 -0.2186  0.0445  0.3096
17277TIP3    H173246   6.465   0.592   3.997 -0.2489 -0.5074 -0.5120
17277TIP3    H273247   6.394   0.723   4.025  1.7346  0.4300  0.3281
17278TIP3   OH273248   3.181   1.605  16.624  0.5879  0.0748  0.1032
17278TIP3    H173249   3.195   1.641  16.536  2.1296 -0.2367  0.1963
17278TIP3    H273250   3.217   1.516  16.619  1.1175  0.2117  1.1618
17279TIP3   OH273251   3.488   6.435  11.397  0.2842 -0.1373  0.5514
17279TIP3    H173252   3.396   6.452  11.377 -0.0570 -1.0623  1.2766
17279TIP3    H273253   3.521   6.518  11.431  0.1152  0.6156 -1.0191
17280TIP3   OH273254   3.295   1.371  10.499  0.6331 -0.1253 -0.2061
17280TIP3    H173255   3.222   1.427  10.471 -0.2741 -0.7044  0.9056
17280TIP3    H273256   3.258   1.317  10.568  1.9664 -0.8912 -0.0601
17281TIP3   OH273257   0.709   2.577  14.507 -0.2817 -0.0035 -0.0933
17281TIP3    H173258   0.616   2.562  14.491  0.1175 -0.7593 -1.9554
17281TIP3    H273259   0.716   2.670  14.528 -1.3685  0.2283 -0.7096
17282TIP3   OH273260   6.698   5.195   1.474 -0.2987 -0.8355 -0.0179
17282TIP3    H173261   6.731   5.253   1.542  0.7984 -2.2022  0.6822
17282TIP3    H273262   6.607   5.178   1.500 -0.2756 -0.3552  0.4071
17283TIP3   OH273263   0.032   1.255  11.354 -0.1024 -0.0187 -0.2973
17283TIP3    H173264   0.075   1.302  11.283 -1.2588 -1.2921 -1.9178
17283TIP3    H273265  -0.017   1.322  11.401 -0.1358  0.7001 -1.3259
17284TIP3   OH273266   1.997   0.035   1.328  0.2555 -0.3319  0.0970
17284TIP3    H173267   2.037   0.074   1.406 -0.5232  0.7956 -0.0541
17284TIP3    H273268   1.984  -0.057   1.352 -0.0110  0.0009  1.3168
17285TIP3   OH273269   4.668   2.634  14.000  0.4092 -0.1385 -0.3913
17285TIP3    H173270   4.577   2.604  14.007  0.8572 -1.7162 -0.9247
17285TIP3    H273271   4.662   2.720  13.958 -0.7448 -0.9891 -2.0844
17286TIP3   OH273272   4.457   3.335   1.454  0.4157 -0.1592 -0.3711
17286TIP3    H173273   4.410   3.274   1.512 -1.5287  0.4543 -1.2090
17286TIP3    H273274   4.394   3.355   1.385  0.7381  3.2351  0.1469
17287TIP3   OH273275   6.361   4.067   1.979 -0.1101 -0.1111 -0.8483
17287TIP3    H173276   6.424   4.009   2.022 -1.8430  0.4585  2.8608
17287TIP3    H273277   6.284   4.013   1.965 -1.2299  0.7732  1.3291
17288TIP3   OH273278   5.052   2.049  14.176 -0.3069  0.0116 -0.1948
17288TIP3    H173279   5.003   1.968  14.166 -0.4271 -0.0991  1.0905
17288TIP3    H273280   5.066   2.081  14.087  0.9577 -2.1283 -0.8301
17289TIP3   OH273281   6.747   4.768  15.013  0.5233 -0.1394 -0.0458
17289TIP3    H173282   6.672   4.781  15.072 -0.0639  0.3514 -0.8856
17289TIP3    H273283   6.753   4.673  15.002  1.1915 -0.3101  1.4832
17290TIP3   OH273284   4.176   3.718  14.326 -0.1326 -0.1580  0.7232
17290TIP3    H173285   4.093   3.671  14.338  0.3174 -2.0556 -2.3964
17290TIP3    H273286   4.154   3.810  14.339 -3.4527 -0.2905 -2.4407
17291TIP3   OH273287   3.828   3.632   2.963  0.0661 -0.1157 -0.0016
17291TIP3    H173288   3.871   3.549   2.943  0.4724  0.3611 -1.1706
17291TIP3    H273289   3.883   3.698   2.921 -1.7575  0.5355 -1.4878
17292TIP3   OH273290   3.532   1.240  16.399 -0.1247 -0.3802  0.7386
17292TIP3    H173291   3.593   1.242  16.326  0.4020  0.7606  1.1889
17292TIP3    H273292   3.515   1.147  16.413 -0.2570 -0.6213 -0.8317
17293TIP3   OH273293   5.231   5.629  15.743 -0.3013 -0.1489 -0.4891
17293TIP3    H173294   5.223   5.716  15.706 -1.4037 -0.4075 -0.8774
17293TIP3    H273295   5.293   5.639  15.816  1.3858  0.4941 -1.9422
17294TIP3   OH273296   3.706   2.538  13.286 -0.2524 -0.0321 -0.1125
17294TIP3    H173297   3.639   2.602  13.262  1.2115  1.1396 -1.3556
17294TIP3    H273298   3.785   2.569  13.242  1.8344  0.1780  3.3874
17295TIP3   OH273299   6.566   3.794  14.512 -0.4404 -0.1263  0.2862
17295TIP3    H173300   6.526   3.860  14.454  0.6259  1.1707  0.9751
17295TIP3    H273301   6.523   3.712  14.487 -0.3464  0.4469 -2.0193
17296TIP3   OH273302   1.355   2.479   5.413 -0.2005 -0.6215 -0.3928
17296TIP3    H173303   1.353   2.485   5.317  1.8162  0.4518 -0.4141
17296TIP3    H273304   1.416   2.407   5.431 -0.1440 -0.4560  0.0773
17297TIP3   OH273305   3.653   6.273   3.412  0.1358 -0.0195  0.3556
17297TIP3    H173306   3.614   6.321   3.338 -0.1580  2.2040  1.8322
17297TIP3    H273307   3.578   6.235   3.457  0.1475  0.0512  0.4346
17298TIP3   OH273308   2.411   0.978  15.062 -0.3382 -0.0624  0.3401
17298TIP3    H173309   2.398   1.073  15.058 -0.5674 -0.0481  1.1314
17298TIP3    H273310   2.351   0.949  15.131 -0.5925 -0.8419 -0.1981
17299TIP3   OH273311   1.750   2.410  11.741 -0.2289 -0.5197  0.0229
17299TIP3    H173312   1.759   2.442  11.651  0.2980 -0.6304  0.0308
17299TIP3    H273313   1.694   2.333  11.734  0.6828 -1.1598 -0.3612
17300TIP3   OH273314   1.239   2.261   0.815  0.2242  0.0795  0.0182
17300TIP3    H173315   1.266   2.315   0.889 -0.1813  0.6981 -0.2681
17300TIP3    H273316   1.284   2.300   0.739 -0.5459  0.4112 -0.2835
17301TIP3   OH273317   0.915   5.342   5.876  0.3626 -0.7665 -0.2478
17301TIP3    H173318   0.971   5.357   5.800 -0.0419  0.6093 -0.3090
17301TIP3    H273319   0.832   5.382   5.852 -0.0068 -0.9840  0.6403
17302TIP3   OH273320   4.696   1.351   5.048  0.2448 -0.1787  0.1402
17302TIP3    H173321   4.785   1.323   5.067  0.5936  0.4872 -0.4706
17302TIP3    H273322   4.640   1.288   5.093  1.0279 -0.4272  0.7734
17303TIP3   OH273323   4.936   3.125  11.642 -0.2193  0.2526  0.4149
17303TIP3    H173324   4.871   3.195  11.646 -0.0515  0.4155  0.3154
17303TIP3    H273325   4.889   3.047  11.672 -0.8544  0.0910 -0.8999
17304TIP3   OH273326   1.514   4.027   0.568  0.2105  0.0303 -0.4672
17304TIP3    H173327   1.419   4.032   0.569  0.2076  0.1711  0.7723
17304TIP3    H273328   1.543   4.119   0.568  0.3422 -0.0103 -0.4479
17305TIP3   OH273329   2.694   5.847   4.223  0.0782  0.3162 -0.2083
17305TIP3    H173330   2.602   5.855   4.250 -0.5849 -1.9738 -1.5046
17305TIP3    H273331   2.708   5.919   4.162 -0.3786  1.5750  1.1227
17306TIP3   OH273332   2.408   4.988  15.299  0.1855 -1.0806 -0.0240
17306TIP3    H173333   2.446   5.074  15.283 -1.1752 -0.6672 -1.1145
17306TIP3    H273334   2.430   4.937  15.221 -1.8030 -0.6988 -0.8890
17307TIP3   OH273335   0.981   6.279  13.324 -0.1875 -0.2479 -0.0165
17307TIP3    H173336   0.982   6.345  13.254 -1.1104  0.8129  0.9209
17307TIP3    H273337   1.012   6.199  13.282  0.7553  0.7188 -1.2545
17308TIP3   OH273338   2.515   0.866  14.252 -0.1137 -0.3670 -0.2569
17308TIP3    H173339   2.556   0.862  14.339  0.7705  1.4359 -0.5417
17308TIP3    H273340   2.563   0.801  14.201  0.5426 -0.2217  0.1591
17309TIP3   OH273341   3.094   3.780  10.712 -0.2457  0.2063  0.1465
17309TIP3    H173342   3.119   3.860  10.758 -1.7955  1.2151 -0.6714
17309TIP3    H273343   3.137   3.788  10.626 -1.7029  0.9903 -0.5377
17310TIP3   OH273344   3.789   2.868   4.855 -0.4121 -0.1595  0.2838
17310TIP3    H173345   3.743   2.919   4.789  1.0404  2.6572  1.2421
17310TIP3    H273346   3.722   2.814   4.896 -2.2950  1.6918 -0.2118
17311TIP3   OH273347   1.007   2.336  14.604 -1.3186  0.1226  0.2887
17311TIP3    H173348   1.014   2.299  14.692 -0.9429 -0.3946  0.0419
17311TIP3    H273349   1.059   2.278  14.549 -1.6596  0.3716 -0.3008
17312TIP3   OH273350   2.290   0.075  14.398  0.2807 -0.0520 -0.1923
17312TIP3    H173351   2.288   0.107  14.488 -0.5275  3.3555 -1.2678
17312TIP3    H273352   2.202   0.040  14.383  1.1995 -3.2294  1.0268
17313TIP3   OH273353   5.352   4.894  13.628  0.2932  0.2681  0.8176
17313TIP3    H173354   5.428   4.935  13.669 -0.6191  1.0437  1.7799
17313TIP3    H273355   5.302   4.856  13.700 -1.5259  1.9571  0.5353
17314TIP3   OH273356   1.960   1.457   4.521 -0.0589 -0.0589 -0.0511
17314TIP3    H173357   1.889   1.521   4.510 -1.7270 -1.4578  1.9357
17314TIP3    H273358   2.016   1.471   4.445 -1.0946  2.8071 -0.4055
17315TIP3   OH273359   0.000   6.171  14.030 -0.3040  0.1841 -0.2774
17315TIP3    H173360  -0.063   6.106  14.062  0.8289 -1.0680 -0.4836
17315TIP3    H273361  -0.001   6.160  13.935  1.8202 -1.4778 -0.1829
17316TIP3   OH273362   5.070   3.772   5.295 -0.1424 -0.5037  0.3234
17316TIP3    H173363   5.084   3.699   5.235  1.2576  0.4370 -0.5543
17316TIP3    H273364   5.092   3.736   5.382  0.8079 -1.0617 -0.1324
17317TIP3   OH273365   0.292   2.208  12.431  0.4626  0.1307 -0.0367
17317TIP3    H173366   0.265   2.289  12.388  1.0795 -0.7380 -2.1932
17317TIP3    H273367   0.215   2.179  12.479 -0.4159  0.9340 -0.9313
17318TIP3   OH273368   2.972   0.038   2.198  0.2020  0.7660 -0.0334
17318TIP3    H173369   2.963  -0.054   2.174 -0.6156  1.2841 -1.8771
17318TIP3    H273370   3.066   0.052   2.207  0.3028 -0.3891  0.9667
17319TIP3   OH273371   6.482   3.973   0.107  0.2808 -0.3692  0.0003
17319TIP3    H173372   6.391   3.996   0.123  0.4979 -0.1421  0.9464
17319TIP3    H273373   6.482   3.877   0.103 -0.1664 -0.3401 -1.1293
17320TIP3   OH273374   3.361   2.897  14.225 -0.5558 -0.3899 -1.0947
17320TIP3    H173375   3.351   2.966  14.291  1.0317 -0.5938 -0.6145
17320TIP3    H273376   3.286   2.910  14.167 -1.6603  0.1924  0.3768
17321TIP3   OH273377   1.438   4.543   3.115  0.0158 -0.4569 -0.5762
17321TIP3    H173378   1.376   4.533   3.043 -0.3226  0.6521 -0.4482
17321TIP3    H273379   1.522   4.560   3.073  0.4565 -2.7723 -0.7815
17322TIP3   OH273380   3.891   4.453  14.217  0.4090  0.7612  0.5340
17322TIP3    H173381   3.877   4.528  14.159  0.5809  1.7760  1.7454
17322TIP3    H273382   3.985   4.438  14.214  0.2973  0.1310 -0.2283
17323TIP3   OH273383   2.428   5.749  14.006  0.4237 -0.2133 -0.9121
17323TIP3    H173384   2.371   5.743  14.083 -0.5176  0.6298 -1.5155
17323TIP3    H273385   2.415   5.666  13.960  2.0181 -1.3003  0.4915
17324TIP3   OH273386   6.512   5.695   4.497 -0.3110 -0.0360  0.1776
17324TIP3    H173387   6.442   5.639   4.464 -0.2493  0.1023 -0.1926
17324TIP3    H273388   6.517   5.675   4.591  0.0415 -1.0158 -0.0331
17325TIP3   OH273389   1.935   3.521   5.573 -0.2544 -0.3186  0.4959
17325TIP3    H173390   2.009   3.506   5.632 -0.2017 -2.0838  0.0301
17325TIP3    H273391   1.973   3.564   5.496  0.7082 -2.8707 -0.5642
17326TIP3   OH273392   3.928   1.244   4.633  0.1877  0.2101  0.3198
17326TIP3    H173393   3.996   1.187   4.670 -0.2091  0.5482  1.5976
17326TIP3    H273394   3.893   1.194   4.559  0.0443 -1.0953  1.2439
17327TIP3   OH273395   5.575   4.909  12.928 -0.5332 -0.0899 -0.2473
17327TIP3    H173396   5.498   4.931  12.877 -1.2852  0.9928  1.2708
17327TIP3    H273397   5.543   4.852  12.998  0.2782 -0.6889 -0.3465
17328TIP3   OH273398   5.230   5.199  13.636  0.0289 -0.3398 -0.4340
17328TIP3    H173399   5.215   5.105  13.643  0.8124 -0.3808  1.4010
17328TIP3    H273400   5.150   5.234  13.597 -0.5440 -1.6844 -0.5057
17329TIP3   OH273401   2.505   3.270  12.667 -0.5761 -0.1851  0.0326
17329TIP3    H173402   2.501   3.242  12.576  2.0889 -2.2370  0.4311
17329TIP3    H273403   2.547   3.356  12.664  0.2690 -0.6007 -0.6785
17330TIP3   OH273404   4.943   2.913   2.402  0.5478  0.0026 -0.6115
17330TIP3    H173405   4.931   2.862   2.482 -0.1934  2.3883  0.8814
17330TIP3    H273406   4.860   2.958   2.389  1.0952  0.6818 -1.9798
17331TIP3   OH273407   0.426   1.058  17.299 -0.3791 -0.5380 -0.3847
17331TIP3    H173408   0.441   1.145  17.261 -0.3471 -0.0249  0.7572
17331TIP3    H273409   0.340   1.063  17.339  0.1045 -0.6315  0.7141
17332TIP3   OH273410   3.101   4.053   4.475 -0.3024 -0.4214  0.4412
17332TIP3    H173411   3.131   4.112   4.405 -1.0461 -0.0780  0.3986
17332TIP3    H273412   3.015   4.025   4.446 -0.6779 -0.1605  1.2886
17333TIP3   OH273413   1.400   1.927  15.361  0.3693  0.4907  0.1271
17333TIP3    H173414   1.393   2.012  15.406 -1.7463  1.4517 -1.8534
17333TIP3    H273415   1.392   1.948  15.268  0.4932 -1.8401 -0.4716
17334TIP3   OH273416   2.445   5.897  12.806 -0.0569  0.0859  0.0719
17334TIP3    H173417   2.522   5.843  12.819 -0.2739 -0.8839 -2.1951
17334TIP3    H273418   2.471   5.962  12.741 -1.2426 -0.5354 -1.0600
17335TIP3   OH273419   6.181   4.407  13.994 -0.0881  0.0710 -0.2877
17335TIP3    H173420   6.270   4.418  14.026 -0.3144  0.3305  0.2654
17335TIP3    H273421   6.157   4.492  13.958 -0.1454  0.0337 -0.3377
17336TIP3   OH273422   2.767   1.270   2.650 -0.1200 -0.3863  0.1885
17336TIP3    H173423   2.786   1.208   2.579  3.1832  0.6102  0.0541
17336TIP3    H273424   2.722   1.342   2.606  0.8230 -0.3169 -0.7031
17337TIP3   OH273425   6.514   2.803   2.908  0.0573 -0.1334 -0.7981
17337TIP3    H173426   6.558   2.887   2.922  1.3902 -1.1992  2.1678
17337TIP3    H273427   6.504   2.797   2.813  2.5288  2.0856 -1.3116
17338TIP3   OH273428   2.978   0.116  15.869  0.3392 -0.3457  0.6370
17338TIP3    H173429   2.972   0.039  15.811  0.0922  0.1343  0.0090
17338TIP3    H273430   2.930   0.184  15.822  2.5449  0.8919  0.0495
17339TIP3   OH273431   2.183   4.617   4.706 -0.0551 -0.2186  0.4842
17339TIP3    H173432   2.192   4.522   4.721 -0.4424 -0.5580 -1.1920
17339TIP3    H273433   2.088   4.632   4.708  0.0470  0.4180  2.1229
17340TIP3   OH273434   3.905   4.602   0.838  0.0237  0.4019 -0.4179
17340TIP3    H173435   3.899   4.675   0.776 -0.8587  1.2673  0.6467
17340TIP3    H273436   3.899   4.524   0.784 -1.9580  1.1359 -1.3420
17341TIP3   OH273437   0.297   1.363   1.275 -0.1701 -0.6200 -0.9325
17341TIP3    H173438   0.245   1.306   1.217 -0.9031 -2.8811  1.7240
17341TIP3    H273439   0.233   1.425   1.311 -0.6918 -1.9964  0.6501
17342TIP3   OH273440   3.588   4.330   4.116  0.4922 -0.4947  0.5902
17342TIP3    H173441   3.517   4.313   4.178 -1.9577  0.4059 -1.7508
17342TIP3    H273442   3.564   4.278   4.038  2.4898 -0.2323 -0.2474
17343TIP3   OH273443   1.396   5.968  10.829  0.2686 -0.0320 -0.0598
17343TIP3    H173444   1.470   5.928  10.784  1.7015  0.1652  1.9911
17343TIP3    H273445   1.350   5.895  10.870 -0.1286 -0.0644 -0.5607
17344TIP3   OH273446   0.413   0.534   5.422 -0.0750  0.5008 -0.8507
17344TIP3    H173447   0.321   0.510   5.432 -0.2993  0.9288 -1.7552
17344TIP3    H273448   0.423   0.548   5.328  0.0167  3.9503 -0.4277
17345TIP3   OH273449   0.037   6.096  11.814  0.1536  0.4785 -0.1171
17345TIP3    H173450  -0.057   6.081  11.810  0.4824 -1.7281 -0.9332
17345TIP3    H273451   0.057   6.100  11.907 -0.7717  1.3182  0.0594
17346TIP3   OH273452   6.732   2.579  17.302 -0.2492  0.2178  0.6195
17346TIP3    H173453   6.674   2.619  17.367  1.7497  1.6164  1.6519
17346TIP3    H273454   6.692   2.494  17.284 -2.4362  0.9768  1.4580
17347TIP3   OH273455   6.004   3.149   0.446  0.4564 -0.1355 -0.3855
17347TIP3    H173456   6.030   3.193   0.365  0.9395  1.2690  0.4964
17347TIP3    H273457   6.070   3.080   0.459  1.3340  0.6938 -0.3483
17348TIP3   OH273458   4.031   6.146  15.152 -0.9816  0.3928  0.5989
17348TIP3    H173459   3.936   6.149  15.140 -0.9187 -0.0358 -0.0492
17348TIP3    H273460   4.066   6.127  15.065 -0.2826  0.7759  0.7843
17349TIP3   OH273461   5.741   4.887  12.314  0.5759 -0.0959  0.0626
17349TIP3    H173462   5.723   4.855  12.402  0.0300  0.3021  0.1095
17349TIP3    H273463   5.835   4.904  12.313  0.4964  0.4670  0.7728
17350TIP3   OH273464   5.045   2.376   5.629  0.0574 -0.3620 -0.4127
17350TIP3    H173465   5.046   2.380   5.534 -0.1852 -1.0671 -0.4503
17350TIP3    H273466   4.967   2.325   5.650 -1.0406  1.4515  0.2438
17351TIP3   OH273467   2.723   5.260  12.657  0.6187 -0.3142  0.5768
17351TIP3    H173468   2.772   5.243  12.576  0.5315 -0.8525  0.6287
17351TIP3    H273469   2.726   5.355  12.668 -0.2680 -0.1299 -0.6195
17352TIP3   OH273470   4.506   2.242   4.904  0.2837 -0.0154 -0.6918
17352TIP3    H173471   4.486   2.279   4.818 -0.9823  2.3038  0.5174
17352TIP3    H273472   4.494   2.314   4.965  1.2686 -1.5598  1.4513
17353TIP3   OH273473   5.186   5.151   0.318 -0.0563  0.6066 -0.2223
17353TIP3    H173474   5.100   5.193   0.310  0.9554  2.7163 -0.9350
17353TIP3    H273475   5.208   5.160   0.411 -0.6184  0.0180 -0.0287
17354TIP3   OH273476   4.824   6.324   4.394 -0.3962  0.1917 -0.4119
17354TIP3    H173477   4.835   6.387   4.465 -0.4476  0.7099 -0.8549
17354TIP3    H273478   4.825   6.378   4.314  1.2301 -0.5108 -0.9122
17355TIP3   OH273479   3.109   2.991   3.033  0.2295 -0.5986 -0.1294
17355TIP3    H173480   3.063   2.908   3.040 -0.2427 -0.2830  0.6330
17355TIP3    H273481   3.170   2.979   2.960 -0.3457 -1.3620 -0.4953
17356TIP3   OH273482   4.005   1.791  16.180 -0.2945  0.3499  0.0028
17356TIP3    H173483   4.063   1.843  16.123  1.0210 -0.5091  0.5230
17356TIP3    H273484   3.935   1.852  16.204  0.4880  1.4849 -0.4853
17357TIP3   OH273485   4.866   5.201   3.899  0.2334  0.5812  0.7734
17357TIP3    H173486   4.830   5.289   3.892 -1.0963 -0.0105 -0.2861
17357TIP3    H273487   4.951   5.206   3.856  0.1674  1.3396  0.7162
17358TIP3   OH273488   6.621   1.998  17.231 -0.1393 -0.2364 -0.3933
17358TIP3    H173489   6.562   2.059  17.187 -0.4990 -1.1032 -1.1375
17358TIP3    H273490   6.666   2.051  17.297  0.4783  1.1185 -1.8450
17359TIP3   OH273491   4.843   1.933  10.554  0.2039 -0.6471 -0.2146
17359TIP3    H173492   4.793   1.867  10.601 -1.9860 -0.6615 -2.3495
17359TIP3    H273493   4.777   1.979  10.501  2.1478  1.0001 -1.3313
17360TIP3   OH273494   4.502   3.072  13.344 -0.3175  0.5249 -0.1489
17360TIP3    H173495   4.433   3.008  13.361  2.6301 -2.4821  1.7395
17360TIP3    H273496   4.516   3.115  13.429 -0.2180  1.5342 -0.6594
17361TIP3   OH273497   3.912   4.219  16.941  0.1540 -0.1154 -0.3034
17361TIP3    H173498   3.887   4.155  17.008  1.1901  1.1490  1.3652
17361TIP3    H273499   3.869   4.188  16.861  0.2141 -2.6015  0.5414
17362TIP3   OH273500   1.782   6.661  17.114 -0.4276 -0.8122 -0.5513
17362TIP3    H173501   1.773   6.756  17.124 -0.1545 -0.7805 -0.5993
17362TIP3    H273502   1.797   6.628  17.203  1.0545 -0.6341 -0.7155
17363TIP3   OH273503   3.229   6.648   0.302 -0.4908 -0.1321 -0.0794
17363TIP3    H173504   3.184   6.711   0.245 -1.1893 -1.1985 -0.7510
17363TIP3    H273505   3.159   6.614   0.359  0.4926  2.3276  2.8782
17364TIP3   OH273506   4.773   0.165  12.204 -0.2489  0.1301 -0.0936
17364TIP3    H173507   4.802   0.166  12.295 -1.3280  1.3530  0.2806
17364TIP3    H273508   4.832   0.105  12.160  0.6926 -0.0001  1.2871
17365TIP3   OH273509   3.090   0.817  14.053  0.6145 -0.1543 -0.4160
17365TIP3    H173510   3.128   0.890  14.104 -1.3029  1.2675 -0.9177
17365TIP3    H273511   3.010   0.794  14.100  1.6522 -2.7155  0.2954
17366TIP3   OH273512   1.893   2.656  11.888 -0.2641  0.4769  0.0392
17366TIP3    H173513   1.911   2.705  11.968 -1.9625  0.1455  0.6608
17366TIP3    H273514   1.880   2.566  11.917 -0.6130  0.3004 -0.6437
17367TIP3   OH273515   1.565   4.385  14.314  0.5994 -0.9006 -0.4716
17367TIP3    H173516   1.591   4.365  14.224 -1.8824  3.8103 -2.5989
17367TIP3    H273517   1.646   4.409  14.358  1.6660 -1.6920 -1.9259
17368TIP3   OH273518   5.693   4.752  16.606  0.7797 -0.4672  0.2541
17368TIP3    H173519   5.639   4.674  16.624  0.4086 -0.1229  0.6521
17368TIP3    H273520   5.629   4.823  16.596  1.0020 -0.4976 -1.7009
17369TIP3   OH273521   4.502   0.537   6.242 -0.1540 -0.4343  0.0628
17369TIP3    H173522   4.563   0.593   6.290  1.5892 -2.1962  0.0122
17369TIP3    H273523   4.474   0.472   6.306 -1.8973  0.2282  0.0300
17370TIP3   OH273524   4.151   0.321   3.384 -0.5567 -0.0188  0.2418
17370TIP3    H173525   4.177   0.342   3.294  0.1298  0.8776  0.6349
17370TIP3    H273526   4.181   0.395   3.436  1.2705 -1.6045  1.5994
17371TIP3   OH273527   0.577   5.636   3.824 -0.4505 -0.6553  0.5801
17371TIP3    H173528   0.547   5.703   3.886  1.5082 -0.9735  1.9889
17371TIP3    H273529   0.647   5.678   3.775 -1.1029 -0.8285 -0.5203
17372TIP3   OH273530   5.371   1.279  15.582 -0.6352  0.3248  0.0072
17372TIP3    H173531   5.338   1.360  15.544  0.3233  0.7656  0.0877
17372TIP3    H273532   5.403   1.304  15.669  0.2002 -0.0055 -0.1890
17373TIP3   OH273533   2.328   0.697  15.437  0.2010 -0.1059  0.7839
17373TIP3    H173534   2.264   0.732  15.375  0.4392  1.3231  1.2998
17373TIP3    H273535   2.409   0.743  15.416  1.2198 -2.1818 -0.1301
17374TIP3   OH273536   3.134   0.539   3.365 -0.2605 -0.2414 -0.1388
17374TIP3    H173537   3.081   0.619   3.366  0.3165  0.1444  0.2703
17374TIP3    H273538   3.157   0.525   3.457  2.1455  0.8089 -0.5198
17375TIP3   OH273539   1.612   4.967  16.203  0.5418  0.2874 -0.0721
17375TIP3    H173540   1.609   4.975  16.108 -0.5289  0.8123 -0.0095
17375TIP3    H273541   1.550   5.033  16.235  0.6921 -0.0541  0.9774
17376TIP3   OH273542   3.802   2.210   2.940  0.3409  0.0230  0.3002
17376TIP3    H173543   3.725   2.166   2.976  0.9956 -0.1093  1.6066
17376TIP3    H273544   3.835   2.264   3.011  1.9514 -0.5874  0.0627
17377TIP3   OH273545   4.552   6.251  15.030 -0.5093  0.0223  0.4198
17377TIP3    H173546   4.615   6.260  15.101  0.8092 -0.9591 -0.5737
17377TIP3    H273547   4.601   6.209  14.959 -1.8345  0.7545 -0.9965
17378TIP3   OH273548   6.138   5.387   1.743 -0.8606  0.2128  0.2926
17378TIP3    H173549   6.073   5.456   1.758 -1.2593 -0.4747  1.9792
17378TIP3    H273550   6.163   5.358   1.831  0.6998 -0.5145 -0.3469
17379TIP3   OH273551   2.233   1.416   3.596 -0.1601  0.3192 -0.3148
17379TIP3    H173552   2.242   1.505   3.631  1.9036  1.0323 -2.3913
17379TIP3    H273553   2.268   1.360   3.664 -0.6525  1.1641  0.6657
17380TIP3   OH273554   0.729   0.511   6.321 -0.2657  0.0505  0.0270
17380TIP3    H173555   0.668   0.440   6.303 -0.8597  0.6016 -0.1699
17380TIP3    H273556   0.790   0.475   6.386 -1.0705 -0.3697  0.5667
17381TIP3   OH273557   4.743   4.710  15.537 -0.6405  0.3806 -0.0077
17381TIP3    H173558   4.775   4.764  15.610 -1.3303  2.4776 -1.1587
17381TIP3    H273559   4.733   4.623  15.574 -0.4799  1.2569  2.2645
17382TIP3   OH273560   0.807   2.596  15.206  0.0703 -0.1289 -0.3242
17382TIP3    H173561   0.788   2.565  15.118  1.1820  1.5338 -1.1986
17382TIP3    H273562   0.721   2.608  15.247 -0.4666 -0.6037 -1.2909
17383TIP3   OH273563   0.214   4.863  13.533 -0.1776  0.0760  0.4366
17383TIP3    H173564   0.261   4.793  13.488  2.7623  2.0079  0.2565
17383TIP3    H273565   0.124   4.831  13.539  1.0063 -3.7866  0.5468
17384TIP3   OH273566   2.813   0.655   3.810 -0.6615 -0.0275  0.1217
17384TIP3    H173567   2.831   0.566   3.778 -0.2410  0.2933 -0.5623
17384TIP3    H273568   2.736   0.683   3.760 -0.3471  0.2659 -0.1981
17385TIP3   OH273569   3.705   1.098   5.575  0.0863  0.3236 -0.1799
17385TIP3    H173570   3.750   1.024   5.616  1.2809 -0.7911 -3.2398
17385TIP3    H273571   3.750   1.176   5.608  1.3567 -0.5364  0.1681
17386TIP3   OH273572   1.021   1.306  16.827  0.1367 -0.2201 -0.1148
17386TIP3    H173573   0.958   1.284  16.759  0.4052 -0.6349 -0.2307
17386TIP3    H273574   1.102   1.324  16.779  0.6838 -1.7900  0.1708
17387TIP3   OH273575   3.231   2.038  15.545 -0.8882  0.5902 -0.4378
17387TIP3    H173576   3.284   2.017  15.621 -1.3979  0.1444 -0.1972
17387TIP3    H273577   3.152   1.984  15.555 -2.0985  2.3368  0.0257
17388TIP3   OH273578   3.065   6.352   5.444  0.3937 -0.5852 -0.4594
17388TIP3    H173579   3.048   6.341   5.351  1.5107 -0.2023 -0.7226
17388TIP3    H273580   3.154   6.386   5.449  0.1765 -0.1114  0.7290
17389TIP3   OH273581   1.377   3.524  12.427  0.0227 -0.1669 -0.0449
17389TIP3    H173582   1.461   3.570  12.429 -0.7476  1.3078 -0.6817
17389TIP3    H273583   1.399   3.435  12.455  1.7564  0.2406  0.0310
17390TIP3   OH273584   0.129   3.665  12.693 -0.3697  0.2561 -0.0390
17390TIP3    H173585   0.103   3.585  12.739 -0.3624 -0.8666 -1.9079
17390TIP3    H273586   0.218   3.683  12.725  0.5590 -1.8250 -1.2508
17391TIP3   OH273587   1.373   3.374  15.558 -0.1741  0.3298  0.1538
17391TIP3    H173588   1.439   3.329  15.611 -0.4476  0.0657  0.2781
17391TIP3    H273589   1.308   3.306  15.539 -0.5874  0.6710  0.3355
17392TIP3   OH273590   4.088   5.968  16.805  0.3707  1.1130 -0.2794
17392TIP3    H173591   4.077   5.978  16.711 -2.2836 -1.8300 -0.4390
17392TIP3    H273592   4.022   6.027  16.843  1.7695  2.6689 -0.1689
17393TIP3   OH273593   6.531   6.382  11.781 -0.2039 -0.5445 -0.0465
17393TIP3    H173594   6.482   6.308  11.747 -1.3077  0.0941  0.1220
17393TIP3    H273595   6.475   6.420  11.849  0.5304  0.1800  0.1816
17394TIP3   OH273596   2.320   5.224  11.061 -0.2432 -0.1002  0.4612
17394TIP3    H173597   2.238   5.267  11.087  0.2278  0.4583  1.0909
17394TIP3    H273598   2.294   5.138  11.030 -1.0687  0.0626  0.6806
17395TIP3   OH273599   2.836   4.772  11.454 -0.1529  0.0179 -0.4184
17395TIP3    H173600   2.825   4.690  11.406 -2.4410 -0.8796  1.4734
17395TIP3    H273601   2.763   4.827  11.424  2.1715  2.0778 -2.7881
17396TIP3   OH273602   0.203   6.649  14.434 -0.0308  0.2510 -0.2475
17396TIP3    H173603   0.282   6.606  14.403 -0.4556  0.7536 -2.1665
17396TIP3    H273604   0.182   6.606  14.517  1.6574 -0.5881 -0.2298
17397TIP3   OH273605   1.063   5.686   6.142 -0.1720  0.1178 -0.0227
17397TIP3    H173606   1.137   5.689   6.081 -0.6895 -0.2001 -0.6695
17397TIP3    H273607   1.038   5.777   6.154  0.3955  0.2396  0.2964
17398TIP3   OH273608   5.577   6.634   2.955  0.3926 -0.2154  0.2028
17398TIP3    H173609   5.588   6.677   3.040 -0.9889  1.7086 -0.4932
17398TIP3    H273610   5.660   6.590   2.939  0.9963  0.1082  2.1504
17399TIP3   OH273611   2.984   6.256  11.105 -0.1700  0.1091 -0.8296
17399TIP3    H173612   2.957   6.185  11.046 -2.1391 -1.8418  2.1101
17399TIP3    H273613   3.068   6.227  11.140 -1.2090 -1.1708  0.7539
17400TIP3   OH273614   2.236   5.446  15.477  0.0661  0.3132  0.0313
17400TIP3    H173615   2.184   5.428  15.399 -1.8517 -0.6661  1.4468
17400TIP3    H273616   2.309   5.385  15.471  0.0147  0.3289 -1.0294
17401TIP3   OH273617   5.266   4.945  13.926 -0.1344 -0.6487 -0.2402
17401TIP3    H173618   5.194   5.007  13.911 -1.0316 -1.1485  1.7633
17401TIP3    H273619   5.225   4.872  13.973  1.6252 -1.0928  0.6637
17402TIP3   OH273620   0.275   3.677  14.650 -0.3082  0.0676 -0.1108
17402TIP3    H173621   0.353   3.693  14.703 -1.7898 -0.0448  2.2310
17402TIP3    H273622   0.243   3.765  14.627  0.3879  0.1146 -0.9718
17403TIP3   OH273623   5.934   3.884  12.297 -0.5160  0.2964  0.1558
17403TIP3    H173624   6.002   3.905  12.360 -1.0852 -1.3088  1.3987
17403TIP3    H273625   5.940   3.789  12.286 -2.5453  0.0921  0.3486
17404TIP3   OH273626   5.728   3.575   5.284  0.5571  0.0121 -0.2938
17404TIP3    H173627   5.807   3.597   5.234  1.2238 -1.8032 -0.1249
17404TIP3    H273628   5.742   3.616   5.369  1.1830 -0.0011 -0.3816
17405TIP3   OH273629   0.306   0.409  13.275  0.0452  0.7562 -0.9056
17405TIP3    H173630   0.300   0.505  13.278 -0.1230  0.7185  0.7417
17405TIP3    H273631   0.385   0.392  13.224  0.9364  1.8141  0.0644
17406TIP3   OH273632   0.676   2.586  13.080 -0.1994 -0.5390 -0.3536
17406TIP3    H173633   0.723   2.583  12.997 -3.3403 -3.3150 -2.2906
17406TIP3    H273634   0.586   2.608  13.056 -1.2250 -1.4019  2.3062
17407TIP3   OH273635   2.036   1.991  15.041  0.2256 -0.1823 -0.4747
17407TIP3    H173636   2.061   2.075  15.004  0.1333 -0.2240 -0.6343
17407TIP3    H273637   2.098   1.976  15.112  0.8796 -0.4478 -1.0880
17408TIP3   OH273638   2.125   0.804   3.263 -0.0624  0.4792  0.1090
17408TIP3    H173639   2.096   0.721   3.227 -0.9147  0.4992  0.7306
17408TIP3    H273640   2.138   0.860   3.187 -2.5336  0.7588 -0.1813
17409TIP3   OH273641   5.752   6.306  15.510  0.0712  0.0132 -0.0975
17409TIP3    H173642   5.836   6.265  15.489  1.1397  2.3095 -0.6665
17409TIP3    H273643   5.744   6.296  15.605  2.2161  1.7243  0.3733
17410TIP3   OH273644   2.340   5.309   5.293 -0.1523 -0.3129 -0.8056
17410TIP3    H173645   2.387   5.349   5.366 -1.0888 -1.0941  0.2505
17410TIP3    H273646   2.379   5.349   5.215  3.4865 -2.1865 -0.1330
17411TIP3   OH273647   4.087   3.019  16.706 -1.0368  0.2625 -0.8509
17411TIP3    H173648   4.107   2.926  16.695 -0.0257  0.4478 -0.7572
17411TIP3    H273649   4.118   3.060  16.625  0.4876  0.7723 -0.0704
17412TIP3   OH273650   1.147   5.576   3.230 -0.6025  0.3614 -0.7437
17412TIP3    H173651   1.191   5.513   3.286  1.1935  1.6568 -0.6157
17412TIP3    H273652   1.062   5.590   3.271 -0.8301 -1.5546 -0.5054
17413TIP3   OH273653   4.874   3.263   4.356  0.2095 -0.4810 -0.0855
17413TIP3    H173654   4.810   3.210   4.308 -1.1189 -0.8300  1.9365
17413TIP3    H273655   4.883   3.218   4.440  4.1055 -1.1430 -0.6996
17414TIP3   OH273656   2.874   6.674  10.878  0.1127  0.4660  0.1236
17414TIP3    H173657   2.920   6.635  10.805 -0.5017  1.4517 -0.8253
17414TIP3    H273658   2.800   6.720  10.838 -1.3677 -0.5697  1.5299
17415TIP3   OH273659   0.337   6.608   3.394  0.1562  0.4383  0.1698
17415TIP3    H173660   0.407   6.544   3.392 -2.1341 -2.2408 -0.6364
17415TIP3    H273661   0.381   6.693   3.384  3.2247 -1.0641 -0.0277
17416TIP3   OH273662   4.725   3.895  10.656  0.1573 -0.3529 -0.1488
17416TIP3    H173663   4.730   3.805  10.687 -0.9526  0.1773  1.7474
17416TIP3    H273664   4.797   3.903  10.594  1.7356 -1.9063  1.3486
17417TIP3   OH273665   3.809   0.644  16.407 -0.2012 -0.4611 -0.3816
17417TIP3    H173666   3.805   0.694  16.325  1.3378 -0.1709 -0.3154
17417TIP3    H273667   3.856   0.564  16.384  3.6984  1.2184  0.8540
17418TIP3   OH273668   1.393   1.888   6.198 -0.0477  0.0080 -0.0263
17418TIP3    H173669   1.384   1.949   6.271  0.0352  0.5246 -0.4405
17418TIP3    H273670   1.487   1.873   6.190 -0.0042  0.4781 -0.4472
17419TIP3   OH273671   4.257   1.562  17.310 -0.4151  0.8257  0.4087
17419TIP3    H173672   4.218   1.639  17.351 -0.9399  0.6106  0.3302
17419TIP3    H273673   4.348   1.562  17.339 -0.9030  0.3884  2.0222
17420TIP3   OH273674   1.518   2.080   2.380  0.0623  0.2064 -0.5927
17420TIP3    H173675   1.461   2.143   2.424 -1.0524 -1.3842  0.3309
17420TIP3    H273676   1.606   2.117   2.389 -0.1845  0.3254  2.3725
17421TIP3   OH273677   3.995   1.152   1.509  0.6250 -0.0404 -0.1614
17421TIP3    H173678   3.954   1.077   1.552  0.8075 -1.3409 -2.1528
17421TIP3    H273679   3.931   1.223   1.519 -0.6935 -1.1555 -0.4339
17422TIP3   OH273680   4.217   5.618   4.957 -0.2153  0.2154  0.6459
17422TIP3    H173681   4.148   5.660   4.906  0.1172 -1.1730 -1.0224
17422TIP3    H273682   4.255   5.689   5.008  0.7351  2.1608 -2.5072
17423TIP3   OH273683   2.869   5.692  17.253 -0.0340 -0.5234  0.3221
17423TIP3    H173684   2.940   5.703  17.189 -0.4873  2.6268  0.1786
17423TIP3    H273685   2.908   5.640  17.323  1.8750 -0.3668 -0.5481
17424TIP3   OH273686   1.336   1.616   1.230  0.5737  0.1948 -0.8129
17424TIP3    H173687   1.376   1.529   1.231  0.7166  0.2381 -2.1184
17424TIP3    H273688   1.245   1.601   1.255  1.1011 -0.0249  1.1841
17425TIP3   OH273689   1.880   3.479   4.418  0.2102 -0.4142 -0.2623
17425TIP3    H173690   1.975   3.468   4.416  0.2614 -0.6863  1.8002
17425TIP3    H273691   1.859   3.488   4.510 -1.8023 -0.4495 -0.6758
17426TIP3   OH273692   2.334   5.868   1.054  0.1160 -0.2589 -0.0242
17426TIP3    H173693   2.412   5.900   1.099 -0.9408 -0.1224  1.8154
17426TIP3    H273694   2.305   5.942   1.000  1.3170 -0.3715 -0.8555
17427TIP3   OH273695   2.205   5.267  11.464 -0.1375  0.6091 -0.3139
17427TIP3    H173696   2.168   5.323  11.396 -1.7515  0.3135  0.2698
17427TIP3    H273697   2.183   5.312  11.546  2.3938  1.3318  0.0603
17428TIP3   OH273698   0.995   5.360   0.679  0.0023 -0.4629 -0.5910
17428TIP3    H173699   1.017   5.401   0.763  0.0103 -1.0969 -0.2802
17428TIP3    H273700   0.906   5.390   0.660 -0.1066 -0.5488 -0.2143
17429TIP3   OH273701   3.327   4.333  17.117 -0.4315  0.2802 -0.3131
17429TIP3    H173702   3.301   4.425  17.117  1.7321  0.9428 -0.7079
17429TIP3    H273703   3.323   4.308  17.210  0.3225  1.2063 -0.0119
17430TIP3   OH273704   0.624   2.806   2.287  0.1300  0.2376 -0.0124
17430TIP3    H173705   0.575   2.825   2.367 -1.9745 -2.8478 -0.3636
17430TIP3    H273706   0.699   2.755   2.316  1.8144  2.7220  0.2744
17431TIP3   OH273707   5.607   1.271   4.285 -0.1308 -0.0997 -0.0272
17431TIP3    H173708   5.676   1.221   4.328 -2.5080 -2.0884  1.7143
17431TIP3    H273709   5.584   1.218   4.208  0.0420  0.4196 -0.4481
17432TIP3   OH273710   6.077   1.484   2.304  0.0906 -0.2288  0.1911
17432TIP3    H173711   6.052   1.528   2.385 -1.7990 -0.9486  0.0325
17432TIP3    H273712   6.173   1.489   2.304  0.1740 -0.4500  2.5876
17433TIP3   OH273713   1.419   3.885  16.915 -0.1620  0.1160 -0.6378
17433TIP3    H173714   1.335   3.850  16.946 -0.5290  0.2309 -1.4635
17433TIP3    H273715   1.429   3.847  16.828  2.2541 -2.5701  0.6656
17434TIP3   OH273716   6.757   2.796  11.876  0.0549 -0.4515  0.5660
17434TIP3    H173717   6.827   2.858  11.897  0.7202 -1.2700  0.8120
17434TIP3    H273718   6.698   2.801  11.951 -0.8728  1.1821 -0.1979
17435TIP3   OH273719   0.923   2.056  15.151 -0.5809  0.0904  0.8375
17435TIP3    H173720   1.016   2.051  15.129 -0.4088  1.0698  1.2519
17435TIP3    H273721   0.899   1.967  15.175  0.2194 -0.1981  0.5992
17436TIP3   OH273722   4.122   5.074   4.204  0.1262  0.3193  0.4488
17436TIP3    H173723   4.150   5.154   4.249  1.2267  0.1605  0.0765
17436TIP3    H273724   4.028   5.084   4.193  0.3602  1.9777 -0.3596
17437TIP3   OH273725   6.497   5.685   6.016  0.1114  0.1307  0.5782
17437TIP3    H173726   6.448   5.756   6.058 -0.5951  0.5412 -0.8605
17437TIP3    H273727   6.587   5.696   6.047  0.1413  2.0496 -0.0558
17438TIP3   OH273728   0.454   1.516  15.615  0.6281 -0.3194 -0.8704
17438TIP3    H173729   0.438   1.574  15.689  0.8967 -0.3624 -0.7775
17438TIP3    H273730   0.483   1.574  15.545 -1.2633 -0.0633 -1.4798
17439TIP3   OH273731   6.772   0.917  10.495  0.1525 -0.0218 -0.0777
17439TIP3    H173732   6.791   0.863  10.418 -0.5707  1.0028 -0.9987
17439TIP3    H273733   6.731   0.856  10.557  1.0628 -0.9363 -0.3447
17440TIP3   OH273734   0.917   0.093   2.062  0.0583 -0.7100  0.2236
17440TIP3    H173735   0.931   0.174   2.012  2.4249 -1.6881 -0.8162
17440TIP3    H273736   1.002   0.049   2.061 -0.6013 -2.2104  2.6213
17441TIP3   OH273737   5.056   1.987   6.321  0.2361  0.0227 -0.3099
17441TIP3    H173738   5.143   1.949   6.307 -0.0685 -1.1051  0.7285
17441TIP3    H273739   4.995   1.917   6.298 -0.4220  0.8481 -1.1598
17442TIP3   OH273740   1.776   0.654  15.152 -0.7382  0.4487  0.5467
17442TIP3    H173741   1.825   0.736  15.149  0.8228 -0.4519  0.7759
17442TIP3    H273742   1.760   0.632  15.060 -0.7638  0.7617  0.4742
17443TIP3   OH273743   0.312   3.330  12.834  0.2997  0.0598  0.0005
17443TIP3    H173744   0.355   3.373  12.759 -0.1649 -1.4745 -1.2157
17443TIP3    H273745   0.259   3.399  12.874  1.6090  1.2600 -0.2501
17444TIP3   OH273746   3.936   5.193  14.646  0.1948 -0.4398 -0.5574
17444TIP3    H173747   3.865   5.137  14.677 -0.2572  0.1898 -0.4613
17444TIP3    H273748   4.016   5.148  14.675 -0.1270 -1.4596 -1.1710
17445TIP3   OH273749   0.490   1.662   2.553  0.0034 -0.5981 -0.2616
17445TIP3    H173750   0.473   1.627   2.641 -0.0392 -0.9135 -0.3943
17445TIP3    H273751   0.536   1.745   2.569 -1.3691  0.1231  0.0925
17446TIP3   OH273752   2.714   6.127  12.804  0.2197 -0.1539  0.1783
17446TIP3    H173753   2.702   6.177  12.885 -0.2777 -1.5302  0.9904
17446TIP3    H273754   2.787   6.068  12.823 -1.0301 -1.7205  0.2792
17447TIP3   OH273755   0.036   5.282  16.964 -0.0467 -0.0984 -0.3954
17447TIP3    H173756   0.106   5.216  16.968 -1.1892 -1.2893  1.8911
17447TIP3    H273757  -0.025   5.256  17.033 -0.8023  3.1331  0.2865
17448TIP3   OH273758   5.645   3.708   6.554 -0.3284  0.9458 -0.3033
17448TIP3    H173759   5.583   3.635   6.548 -0.6896  1.2911 -0.8227
17448TIP3    H273760   5.717   3.674   6.608  0.4968 -0.5016 -2.1916
17449TIP3   OH273761   1.355   5.273  12.846  0.8518 -0.6255  0.1483
17449TIP3    H173762   1.331   5.202  12.905  0.0773 -1.4460 -1.1041
17449TIP3    H273763   1.411   5.232  12.780 -0.5523 -0.3687 -1.2550
17450TIP3   OH273764   5.517   2.814   4.052  0.1630  0.1320  0.5662
17450TIP3    H173765   5.484   2.855   4.132 -2.0522 -1.6627  0.6703
17450TIP3    H273766   5.485   2.869   3.981 -0.3079  0.1797  0.8139
17451TIP3   OH273767   0.692   2.646  12.410  0.1551  0.0724 -0.5755
17451TIP3    H173768   0.720   2.557  12.430 -1.9283 -0.5725 -0.3818
17451TIP3    H273769   0.640   2.638  12.330 -0.2692  1.0675 -0.4139
17452TIP3   OH273770   1.904   3.324   2.546  0.2589  0.5511 -0.1021
17452TIP3    H173771   1.875   3.409   2.515  1.8072  0.6609 -1.3621
17452TIP3    H273772   1.959   3.344   2.622  0.6947  0.6816 -0.4519
17453TIP3   OH273773   0.519   2.849   4.883 -0.7003  0.7085 -0.0808
17453TIP3    H173774   0.503   2.869   4.790 -0.7454 -0.3806 -0.3165
17453TIP3    H273775   0.508   2.754   4.889  1.3518  0.4650  0.6162
17454TIP3   OH273776   0.345   6.646   5.213  0.3055 -0.0445 -0.5765
17454TIP3    H173777   0.263   6.613   5.250  1.8601 -3.5908  0.1717
17454TIP3    H273778   0.339   6.626   5.119  0.1756 -0.0224 -0.5722
17455TIP3   OH273779   2.634   1.025   0.806 -0.4967  0.2344 -0.2619
17455TIP3    H173780   2.547   0.993   0.829 -0.3994 -0.1870 -0.4788
17455TIP3    H273781   2.648   0.995   0.716  0.2325 -0.4641  0.0740
17456TIP3   OH273782   1.592   5.545   4.660 -0.1414  0.0389  0.1829
17456TIP3    H173783   1.526   5.602   4.699 -0.3731  0.2195 -0.4500
17456TIP3    H273784   1.542   5.481   4.610  0.1571  0.1558 -0.2741
17457TIP3   OH273785   5.142   2.573  14.492  0.0803  0.0640 -0.0028
17457TIP3    H173786   5.159   2.518  14.415 -1.3990  1.6607 -1.5479
17457TIP3    H273787   5.097   2.515  14.553  0.6513 -1.0644 -0.6260
17458TIP3   OH273788   5.233   0.701   5.026 -0.3462 -0.0762  0.7245
17458TIP3    H173789   5.320   0.735   5.047  0.7544  0.5015 -3.7721
17458TIP3    H273790   5.176   0.779   5.026  0.3798  0.5313 -1.3586
17459TIP3   OH273791   5.949   1.885  12.382 -0.1275  0.1176 -0.0470
17459TIP3    H173792   6.021   1.865  12.442 -0.0334  0.9984  0.1577
17459TIP3    H273793   5.991   1.900  12.298 -0.4107 -2.9634 -0.8700
17460TIP3   OH273794   3.236   4.592  16.844  0.0633 -0.0468 -0.6989
17460TIP3    H173795   3.189   4.509  16.851 -0.3354  0.1770 -0.7225
17460TIP3    H273796   3.170   4.659  16.859  0.8497  0.2404  1.9689
17461TIP3   OH273797   4.517   6.005   3.507 -0.3321 -0.0132 -0.2631
17461TIP3    H173798   4.525   6.038   3.418 -0.1198 -1.9749 -1.0273
17461TIP3    H273799   4.605   6.009   3.543 -0.2371 -0.0734 -0.4855
17462TIP3   OH273800   2.927   6.584   3.674 -0.0119 -0.5379  0.5807
17462TIP3    H173801   3.014   6.615   3.700 -0.5253  2.1157 -0.5316
17462TIP3    H273802   2.881   6.568   3.757  1.6590 -2.6736  1.1969
17463TIP3   OH273803   2.466   3.147  13.453 -0.3273  0.3349  0.2319
17463TIP3    H173804   2.407   3.092  13.401  0.9350  2.0570 -3.4050
17463TIP3    H273805   2.548   3.098  13.455 -0.7102 -0.3008  1.8713
17464TIP3   OH273806   4.408   0.995   4.587 -0.2446 -0.0602 -0.5086
17464TIP3    H173807   4.431   1.087   4.578 -0.5613  0.3818  2.4421
17464TIP3    H273808   4.339   0.982   4.522 -0.5578  1.9025 -0.6357
17465TIP3   OH273809   0.487   2.049  12.369  0.0326  0.3576 -0.1984
17465TIP3    H173810   0.399   2.086  12.372 -0.0034  0.3963 -1.2488
17465TIP3    H273811   0.498   2.003  12.452 -1.0674  0.1611 -0.1567
17466TIP3   OH273812   5.270   1.927   1.709 -0.7315 -0.3931 -0.3228
17466TIP3    H173813   5.357   1.900   1.679 -0.6369 -1.6601  0.9892
17466TIP3    H273814   5.211   1.858   1.680 -1.1025 -0.1508 -0.1561
17467TIP3   OH273815   4.653   1.832   2.603 -0.0622  0.1477  0.1002
17467TIP3    H173816   4.689   1.883   2.676 -0.3076  0.3624  0.0728
17467TIP3    H273817   4.688   1.875   2.525  0.8736 -0.5826  0.0970
17468TIP3   OH273818   3.960   5.143   0.214 -0.5104 -0.1621  0.4704
17468TIP3    H173819   4.014   5.147   0.136  0.2133 -0.5920  0.9347
17468TIP3    H273820   3.923   5.054   0.213 -0.5500 -0.1475  0.5779
17469TIP3   OH273821   2.997   1.644  13.528 -0.0335 -0.7005  0.0370
17469TIP3    H173822   2.965   1.708  13.465  0.2772 -0.6987 -0.1191
17469TIP3    H273823   3.026   1.570  13.475  0.7242 -0.4828  0.1486
17470TIP3   OH273824   4.972   1.408  15.723  0.4124  0.7222  0.2682
17470TIP3    H173825   4.946   1.411  15.631 -0.4748 -2.0603  0.3458
17470TIP3    H273826   5.036   1.338  15.728 -1.3028 -0.8552  2.0858
17471TIP3   OH273827   4.799   6.091  14.713  0.4527  0.1770 -0.3067
17471TIP3    H173828   4.833   6.017  14.664 -1.6426 -1.1165  0.0743
17471TIP3    H273829   4.830   6.168  14.665  0.3830 -1.0041 -2.3292
17472TIP3   OH273830   6.378   3.549   3.522  0.4671 -0.0595 -0.3689
17472TIP3    H173831   6.386   3.599   3.440  0.0394  0.3807 -0.1477
17472TIP3    H273832   6.468   3.538   3.552  0.5949  0.2161 -0.6415
17473TIP3   OH273833   2.796   4.273   4.231 -0.4793  0.0177 -0.3814
17473TIP3    H173834   2.732   4.338   4.259  0.6642  1.0381 -0.0464
17473TIP3    H273835   2.849   4.255   4.308 -0.4689 -0.9685 -0.5966
17474TIP3   OH273836   5.001   1.618  11.781  0.0603  0.0085  0.5865
17474TIP3    H173837   5.007   1.534  11.737  0.2794  0.4177 -0.1859
17474TIP3    H273838   4.981   1.596  11.872 -0.6338 -0.8440  0.2454
17475TIP3   OH273839   0.161   1.583   1.870 -0.5539 -1.0745  0.1643
17475TIP3    H173840   0.082   1.550   1.913 -2.5743  0.1410 -2.3319
17475TIP3    H273841   0.183   1.514   1.807 -0.2379 -0.9600  0.1515
17476TIP3   OH273842   5.390   3.870  14.739  0.2468  0.0179 -0.2710
17476TIP3    H173843   5.342   3.895  14.660 -0.8568  0.1281  0.3983
17476TIP3    H273844   5.453   3.941  14.753  1.2057 -0.5330 -1.6230
17477TIP3   OH273845   0.276   4.319   4.320 -0.4486 -0.2308  0.0180
17477TIP3    H173846   0.204   4.256   4.323 -1.2191  0.4501 -2.0318
17477TIP3    H273847   0.336   4.284   4.253  1.5323 -1.1073  2.1008
17478TIP3   OH273848   3.260   6.493  12.001 -0.3553 -0.4640 -0.0986
17478TIP3    H173849   3.173   6.463  12.027 -0.8952 -0.0960 -1.4251
17478TIP3    H273850   3.320   6.436  12.049 -1.2921 -0.0812  1.6068
17479TIP3   OH273851   4.909   1.957   3.832  0.0907 -0.6398  0.4822
17479TIP3    H173852   4.913   1.995   3.745  1.6933  0.6764  1.0754
17479TIP3    H273853   4.854   1.879   3.822  1.0135 -1.0677 -1.9078
17480TIP3   OH273854   2.245   1.204   1.311  0.1373 -0.1329  0.0348
17480TIP3    H173855   2.249   1.292   1.349 -1.6629  0.2012 -0.4590
17480TIP3    H273856   2.284   1.213   1.224 -1.4128  0.5723 -0.6225
17481TIP3   OH273857   5.670   1.919  12.479 -0.1079  0.2488 -0.3505
17481TIP3    H173858   5.670   1.872  12.562  1.6300 -0.9593 -0.9736
17481TIP3    H273859   5.761   1.945  12.466 -0.0960 -0.5976 -2.3993
17482TIP3   OH273860   3.409   3.013  17.155  0.0046  0.3709 -0.0131
17482TIP3    H173861   3.333   2.954  17.149  0.5155 -0.4384  1.0961
17482TIP3    H273862   3.373   3.100  17.137 -1.2538  0.0383  0.7846
17483TIP3   OH273863   3.315   6.751  15.617  0.0491  0.0499 -0.1704
17483TIP3    H173864   3.348   6.664  15.639 -2.0822 -0.0699  3.2091
17483TIP3    H273865   3.253   6.735  15.545  1.9581 -0.6691 -1.7464
17484TIP3   OH273866   4.299   5.501   6.206 -0.1764 -0.1837 -0.0881
17484TIP3    H173867   4.362   5.508   6.134  1.0102 -0.2959  0.9093
17484TIP3    H273868   4.332   5.429   6.260 -2.4385 -1.8353 -0.7358
17485TIP3   OH273869   4.850   3.912  14.252 -0.5349  0.2830  0.2959
17485TIP3    H173870   4.819   3.984  14.307 -0.3133 -0.2094  1.0794
17485TIP3    H273871   4.944   3.927  14.244 -0.4940  0.0976  0.4334
17486TIP3   OH273872   5.086   2.153  15.251 -0.1322  0.2647 -0.3587
17486TIP3    H173873   5.084   2.147  15.346  0.4124 -1.4507 -0.4126
17486TIP3    H273874   5.021   2.088  15.221 -0.0299  0.5131 -1.1576
17487TIP3   OH273875   3.749   4.701  16.246 -0.4880 -0.3901  0.1017
17487TIP3    H173876   3.829   4.729  16.200  0.3183 -0.7941  1.2002
17487TIP3    H273877   3.699   4.781  16.258 -0.2996 -0.1471 -0.7154
17488TIP3   OH273878   3.303   0.436  11.983  0.1056  0.0402 -0.3510
17488TIP3    H173879   3.294   0.351  11.940  1.3095 -0.2561 -0.0712
17488TIP3    H273880   3.336   0.494  11.915 -0.5292  0.2468 -0.4910
17489TIP3   OH273881   2.989   6.137   3.818  0.2053 -0.0688  0.5341
17489TIP3    H173882   3.060   6.081   3.850 -0.9944 -0.8284  1.9833
17489TIP3    H273883   2.998   6.218   3.867  0.0403 -0.1977  0.7821
17490TIP3   OH273884   1.819   0.763  13.149 -0.0972 -0.0822 -0.7663
17490TIP3    H173885   1.784   0.735  13.234  0.5915 -0.8676 -0.7297
17490TIP3    H273886   1.890   0.823  13.171 -1.2988  1.4349 -0.8401
17491TIP3   OH273887   0.559   1.877   5.341  0.4403 -0.0698  0.3479
17491TIP3    H173888   0.528   1.864   5.431  1.3148 -2.3726  0.3880
17491TIP3    H273889   0.629   1.812   5.331  2.4846  2.1984 -1.0271
17492TIP3   OH273890   6.173   5.693  15.248 -0.0230 -0.3628  0.7698
17492TIP3    H173891   6.218   5.775  15.226 -0.4531  0.3228  2.3466
17492TIP3    H273892   6.217   5.661  15.326 -1.7653 -0.0649  1.9236
17493TIP3   OH273893   3.160   6.302   2.974 -0.1782 -0.1891 -0.3615
17493TIP3    H173894   3.141   6.367   3.041 -0.4694  0.3624 -0.9681
17493TIP3    H273895   3.085   6.304   2.915  1.1279  1.1503 -2.1077
17494TIP3   OH273896   6.077   0.384  14.694 -0.3615  0.1910 -0.1878
17494TIP3    H173897   6.153   0.413  14.644 -0.5569  0.9704 -0.0344
17494TIP3    H273898   6.112   0.322  14.758  0.0170 -0.1134 -0.6817
17495TIP3   OH273899   3.806   1.414  15.815  0.1314  0.4824 -0.1538
17495TIP3    H173900   3.790   1.427  15.909  0.9365  0.4958 -0.0072
17495TIP3    H273901   3.790   1.500  15.776 -1.9368  0.0670 -0.3031
17496TIP3   OH273902   2.535   6.209  12.384 -0.2121 -0.2375 -0.8677
17496TIP3    H173903   2.565   6.292  12.346 -0.4480 -0.0510 -0.6527
17496TIP3    H273904   2.555   6.143  12.318  0.0552 -0.0195 -1.0033
17497TIP3   OH273905   0.538   1.568  13.793  0.1622  0.1591  0.0978
17497TIP3    H173906   0.454   1.544  13.833  0.4845  1.5354  1.6648
17497TIP3    H273907   0.602   1.559  13.863  0.8024  2.2333 -0.1654
17498TIP3   OH273908   3.681   3.308   6.659  0.3879 -0.1596 -0.1112
17498TIP3    H173909   3.634   3.226   6.672  0.4372 -0.0048  1.2507
17498TIP3    H273910   3.770   3.290   6.691 -0.0127  0.8283  1.7567
17499TIP3   OH273911   0.298   2.392  14.046 -0.5446 -0.1395 -0.3919
17499TIP3    H173912   0.294   2.298  14.026  2.0841  0.0597 -2.3483
17499TIP3    H273913   0.253   2.434  13.972  1.1698  0.2188 -1.2811
17500TIP3   OH273914   5.397   4.759   5.066 -0.2205  0.2735  0.0074
17500TIP3    H173915   5.447   4.828   5.023  0.3624 -1.3563 -2.1373
17500TIP3    H273916   5.460   4.714   5.121  0.0059 -0.0195 -0.4832
17501TIP3   OH273917   5.960   2.498  14.657  0.0935 -0.1165  0.0848
17501TIP3    H173918   5.956   2.482  14.563  0.6647 -0.1931  0.0702
17501TIP3    H273919   5.998   2.585  14.665 -2.1327  0.9038  0.1914
17502TIP3   OH273920   1.637   0.965  14.237  0.1105  0.1077  0.2655
17502TIP3    H173921   1.618   0.913  14.160 -0.0679  1.1561 -0.4179
17502TIP3    H273922   1.553   1.003  14.262  0.2448  0.1108  0.7226
17503TIP3   OH273923   3.455   0.444   0.079 -0.0881  0.7439 -0.4975
17503TIP3    H173924   3.374   0.454   0.029 -0.9778  0.0783  0.7508
17503TIP3    H273925   3.428   0.448   0.170  0.9931 -1.3926 -0.0164
17504TIP3   OH273926   6.109   1.694  15.262 -0.4548  0.2214 -0.6535
17504TIP3    H173927   6.147   1.695  15.350  0.0330 -1.6031 -0.7965
17504TIP3    H273928   6.167   1.750  15.210  0.8240 -0.7751 -0.3689
17505TIP3   OH273929   1.198   2.875   3.874  0.6719  0.1098 -0.4092
17505TIP3    H173930   1.264   2.923   3.924 -0.5586  1.7816 -0.3138
17505TIP3    H273931   1.199   2.916   3.788 -0.7236  0.6688 -0.1841
17506TIP3   OH273932   1.725   0.958  11.377 -0.1355  0.1445  0.0958
17506TIP3    H173933   1.657   1.010  11.334 -0.4827 -1.8413 -1.9324
17506TIP3    H273934   1.800   0.962  11.318  0.1770 -0.7930  0.4102
17507TIP3   OH273935   2.268   1.497   4.253 -0.7344 -0.4732 -0.2816
17507TIP3    H173936   2.293   1.407   4.230 -0.1847 -0.0155 -1.5516
17507TIP3    H273937   2.347   1.549   4.236 -0.1269 -0.0999  3.0324
17508TIP3   OH273938   1.988   3.976  12.057 -0.0781 -0.9754  0.0885
17508TIP3    H173939   2.048   3.984  12.130  0.1550  0.4495 -0.2210
17508TIP3    H273940   2.043   3.949  11.983  0.1527 -0.0206 -0.1103
17509TIP3   OH273941   0.097   2.824  13.583  0.0029 -0.5770 -0.7335
17509TIP3    H173942   0.017   2.876  13.572 -0.5148 -1.1104  0.3981
17509TIP3    H273943   0.067   2.733  13.582 -0.0507 -0.8020  3.6207
17510TIP3   OH273944   2.108   1.286   5.851 -0.5230 -0.0911  0.0677
17510TIP3    H173945   2.103   1.289   5.947 -0.7375 -0.6619  0.0830
17510TIP3    H273946   2.057   1.208   5.828  1.1676 -1.1056 -0.3743
17511TIP3   OH273947   0.626   5.172   3.657 -0.1244 -0.8380 -0.1872
17511TIP3    H173948   0.634   5.229   3.734 -1.8273 -3.0814  1.7945
17511TIP3    H273949   0.712   5.133   3.646 -0.1299 -1.3730  1.3799
17512TIP3   OH273950   5.346   1.069  16.391  0.6175 -0.4604 -0.1081
17512TIP3    H173951   5.286   1.085  16.464  0.2809  0.1509 -0.5124
17512TIP3    H273952   5.291   1.034  16.321  0.7047  0.1865 -0.5119
17513TIP3   OH273953   2.931   3.045   1.213  0.1725 -0.1815  0.7397
17513TIP3    H173954   2.896   3.131   1.192 -1.7676 -0.5458  2.1884
17513TIP3    H273955   3.016   3.063   1.253  1.6386  0.7531 -2.4362
17514TIP3   OH273956   6.499   6.030  13.571  0.3273 -0.0426  0.4094
17514TIP3    H173957   6.533   6.003  13.656  1.5741 -2.8011 -0.8382
17514TIP3    H273958   6.417   5.980  13.560  0.7914 -0.6417 -0.4684
17515TIP3   OH273959   5.100   2.335  16.033 -0.3620  0.0382 -0.2580
17515TIP3    H173960   5.037   2.373  16.094  0.1867 -1.5352  1.4007
17515TIP3    H273961   5.148   2.411  15.998 -0.4560  1.0106  1.5744
17516TIP3   OH273962   2.377   3.974   6.060  0.3375  0.0107  0.4644
17516TIP3    H173963   2.354   3.917   6.133 -1.1238  1.0676  0.8775
17516TIP3    H273964   2.328   4.055   6.077  2.7722  1.6312  0.2117
17517TIP3   OH273965   5.691   1.570   0.902 -0.3088  0.1929 -0.2117
17517TIP3    H173966   5.687   1.479   0.873 -2.3086  0.0850  0.2184
17517TIP3    H273967   5.769   1.574   0.957 -0.1349 -1.2449 -0.3142
17518TIP3   OH273968   2.379   4.815   0.008  0.7433 -0.2584  0.0260
17518TIP3    H173969   2.388   4.909   0.020  0.1216 -0.3886  2.0041
17518TIP3    H273970   2.288   4.796   0.032  0.3398 -1.1805 -2.0044
17519TIP3   OH273971   5.750   3.562   5.568  0.1299  0.6327  0.6989
17519TIP3    H173972   5.660   3.576   5.598 -0.3155 -0.8778  0.1900
17519TIP3    H273973   5.759   3.466   5.565  1.7166  0.7620  0.6146
17520TIP3   OH273974   1.137   0.970  12.413 -0.1528 -0.0365  0.4445
17520TIP3    H173975   1.156   1.049  12.362  0.1858  0.9896  2.0876
17520TIP3    H273976   1.201   0.971  12.484 -1.6334 -0.5014  1.8524
17521TIP3   OH273977   0.471   6.071   4.485 -0.0077 -0.4102 -0.1606
17521TIP3    H173978   0.409   6.003   4.456  0.1581 -0.5985 -0.0759
17521TIP3    H273979   0.418   6.129   4.539 -0.2338 -0.2666 -0.5334
17522TIP3   OH273980   2.597   6.357   5.161  0.0971  0.7393 -0.0174
17522TIP3    H173981   2.570   6.282   5.214 -0.7892  0.4612 -0.8358
17522TIP3    H273982   2.687   6.375   5.189  0.1896 -0.3792  0.4736
17523TIP3   OH273983   6.750   2.994   2.006 -0.6042  0.3977 -0.4544
17523TIP3    H173984   6.698   2.932   2.058 -2.6205  0.2272 -2.4749
17523TIP3    H273985   6.799   3.045   2.071 -0.8102 -1.6321  1.4071
17524TIP3   OH273986   0.243   5.342   3.867  0.2979 -0.5304  0.4287
17524TIP3    H173987   0.302   5.294   3.809  0.3354 -1.3736  1.1460
17524TIP3    H273988   0.297   5.362   3.944  0.4546  1.1751 -0.0742
17525TIP3   OH273989   2.086   5.152   0.574  0.2418 -0.2532 -0.3523
17525TIP3    H173990   2.145   5.202   0.518 -1.1026  1.9057  0.0333
17525TIP3    H273991   2.015   5.125   0.515 -0.9578  1.6517  0.1552
17526TIP3   OH273992   1.691   0.251  14.462 -0.0683 -0.1756 -0.4173
17526TIP3    H173993   1.770   0.203  14.488 -0.8220 -0.4497  1.5041
17526TIP3    H273994   1.618   0.196  14.491 -0.9889  0.3456 -1.6354
17527TIP3   OH273995   4.098   2.683  16.372  0.0141  0.1274 -0.2700
17527TIP3    H173996   4.046   2.694  16.452 -1.0835 -0.6103 -0.8550
17527TIP3    H273997   4.152   2.762  16.368 -0.8436  0.7840  0.5301
17528TIP3   OH273998   6.446   6.215  14.986 -0.2482 -0.5424  0.9234
17528TIP3    H173999   6.381   6.245  15.048 -1.0220 -0.2607  0.0035
17528TIP3    H274000   6.529   6.249  15.019 -0.8397  0.8383  1.0172
17529TIP3   OH274001   3.504   0.511   3.502 -0.4488  0.2651 -0.1654
17529TIP3    H174002   3.423   0.460   3.505 -0.6463  0.5860 -0.0084
17529TIP3    H274003   3.499   0.570   3.577  0.0795  0.0700  0.0318
17530TIP3   OH274004   5.290   2.227   1.500 -0.0359 -0.3053  0.3367
17530TIP3    H174005   5.378   2.259   1.480 -0.1541 -0.0217  0.2733
17530TIP3    H274006   5.288   2.139   1.462 -0.3409  0.3200 -1.1746
17531TIP3   OH274007   6.321   1.605  10.685  0.1107  0.5918 -0.1718
17531TIP3    H174008   6.325   1.698  10.663  1.3768  0.5670 -0.0896
17531TIP3    H274009   6.407   1.571  10.662 -0.3838 -0.6025 -0.3400
17532TIP3   OH274010   1.261   5.274  13.822 -0.1454  0.0189  0.4879
17532TIP3    H174011   1.298   5.360  13.843 -0.6307  0.1481  0.8238
17532TIP3    H274012   1.248   5.275  13.728  0.5277  0.0411  0.3898
17533TIP3   OH274013   0.494   1.822   0.512 -0.0096  0.0888  0.2480
17533TIP3    H174014   0.442   1.895   0.546  1.7135  1.0172  1.0308
17533TIP3    H274015   0.432   1.750   0.503 -1.6187  1.4189  0.1870
17534TIP3   OH274016   3.131   2.454   3.116  0.4738  0.1971  0.2550
17534TIP3    H174017   3.201   2.391   3.098 -0.6463 -1.0321 -0.0066
17534TIP3    H274018   3.174   2.526   3.161  1.7404 -0.9454  0.9461
17535TIP3   OH274019   1.513   1.160   0.711 -0.3154 -0.3568 -0.0995
17535TIP3    H174020   1.490   1.069   0.692  0.5816 -0.5295 -0.4327
17535TIP3    H274021   1.607   1.166   0.691 -0.7066  1.0850 -1.8459
17536TIP3   OH274022   2.984   0.644   5.029  0.2869  0.1614  0.1289
17536TIP3    H174023   2.958   0.583   5.098 -1.2693 -0.6492 -1.0743
17536TIP3    H274024   2.956   0.730   5.061 -3.6093 -0.5630 -0.7480
17537TIP3   OH274025   5.974   2.481  13.011 -0.0915  0.1893  0.1498
17537TIP3    H174026   5.906   2.545  13.033  0.8036  0.4159  2.5434
17537TIP3    H274027   5.995   2.499  12.919 -1.8578  1.4119 -0.0592
17538TIP3   OH274028   3.511   0.489  12.622  0.2622  0.0186 -0.0194
17538TIP3    H174029   3.601   0.478  12.592  0.3132 -0.9254  0.4205
17538TIP3    H274030   3.473   0.401  12.616 -1.3490  0.7856 -2.3773
17539TIP3   OH274031   1.139   6.163  14.159 -0.3532 -0.6877 -0.0448
17539TIP3    H174032   1.095   6.144  14.242 -1.7388  0.3369 -0.5040
17539TIP3    H274033   1.127   6.257  14.147 -0.5970 -0.8925 -1.6241
17540TIP3   OH274034   5.269   4.904  15.626  0.6088 -0.4200 -0.1220
17540TIP3    H174035   5.339   4.935  15.684  1.0092 -1.2573 -0.1460
17540TIP3    H274036   5.310   4.900  15.540 -0.5517  2.9119 -0.9733
17541TIP3   OH274037   1.736   1.879   4.826  0.2972  0.0730 -0.1277
17541TIP3    H174038   1.776   1.926   4.754 -0.3932  2.1391  0.7740
17541TIP3    H274039   1.712   1.794   4.789  2.3690  0.0531 -1.5689
17542TIP3   OH274040   0.873   0.614   0.418  0.4026 -0.2633  0.5154
17542TIP3    H174041   0.851   0.637   0.508  0.4831 -1.6813  0.9318
17542TIP3    H274042   0.844   0.689   0.366 -1.0570 -0.0566  1.5531
17543TIP3   OH274043   1.659   3.630   5.331 -0.1427 -0.1677  0.3431
17543TIP3    H174044   1.751   3.649   5.350 -0.1105 -0.2317  0.2526
17543TIP3    H274045   1.654   3.627   5.235 -0.0280 -1.1765  0.3549
17544TIP3   OH274046   1.915   5.831  16.844 -0.0534 -0.0735 -0.2031
17544TIP3    H174047   1.915   5.750  16.792 -0.3335 -0.1492 -0.0857
17544TIP3    H274048   1.852   5.888  16.800 -0.3111 -0.1481  0.0720
17545TIP3   OH274049   5.170   2.058   5.112  0.1092  0.0041 -0.6631
17545TIP3    H174050   5.120   2.016   5.182 -0.7542  2.9802  0.6262
17545TIP3    H274051   5.106   2.073   5.043 -0.4584  2.2317  0.2845
17546TIP3   OH274052   0.754   0.611  16.597 -0.1447  0.1583  0.3896
17546TIP3    H174053   0.772   0.697  16.637 -1.9260  2.2657 -2.9226
17546TIP3    H274054   0.668   0.587  16.631 -0.4916  0.6374 -0.1445
17547TIP3   OH274055   5.984   0.976   0.586  0.1763  0.6116 -0.0845
17547TIP3    H174056   6.054   0.919   0.615 -1.7277 -1.8223  0.0573
17547TIP3    H274057   5.994   1.055   0.639  3.7736  1.1688 -1.3179
17548TIP3   OH274058   2.796   4.349   3.748  0.5876 -0.4432  0.2484
17548TIP3    H174059   2.890   4.333   3.759  0.4470 -0.1115  2.4680
17548TIP3    H274060   2.762   4.268   3.710  1.8104 -0.4063 -1.0111
17549TIP3   OH274061   3.096   5.633   3.271  0.1851  0.7120  0.4918
17549TIP3    H174062   3.175   5.579   3.274 -0.4765 -0.3082  0.3114
17549TIP3    H274063   3.118   5.711   3.321  1.1654  0.2582  0.8024
17550TIP3   OH274064   5.232   2.553   1.367 -0.1690  0.2407  0.0808
17550TIP3    H174065   5.279   2.472   1.346 -1.0599 -0.2273 -0.1543
17550TIP3    H274066   5.158   2.554   1.306  1.1449  2.4737 -1.6432
17551TIP3   OH274067   5.294   0.423   4.975 -0.2525  0.3031  0.2198
17551TIP3    H174068   5.275   0.515   4.992  0.0088  0.7120 -1.5327
17551TIP3    H274069   5.372   0.405   5.027 -0.9696  0.7055  1.5065
17552TIP3   OH274070   0.633   5.119  16.590  0.7502 -0.2483 -0.5659
17552TIP3    H174071   0.586   5.068  16.656  1.0741  0.1606 -0.0140
17552TIP3    H274072   0.602   5.209  16.603  1.4599 -0.0228 -0.3849
17553TIP3   OH274073   4.067   2.460  14.343 -0.6413  0.0234 -0.3950
17553TIP3    H174074   4.159   2.468  14.318 -0.6101 -0.5602 -0.4732
17553TIP3    H274075   4.060   2.375  14.385 -0.7172  0.9467  1.5823
17554TIP3   OH274076   4.544   6.211   1.335  0.2910 -0.3594 -0.1180
17554TIP3    H174077   4.569   6.291   1.382 -1.0948 -0.0851  0.1759
17554TIP3    H274078   4.455   6.227   1.306 -0.4403 -2.2308  0.9128
17555TIP3   OH274079   2.259   0.847  12.863  0.5286 -0.3837  0.2895
17555TIP3    H174080   2.295   0.901  12.792  0.5617 -1.0365 -0.2031
17555TIP3    H274081   2.177   0.891  12.886  0.3602 -0.3307 -0.3704
17556TIP3   OH274082   0.030   5.025   1.764 -0.5775 -0.6625 -0.3040
17556TIP3    H174083   0.117   5.052   1.792 -0.7090  0.6697 -1.0923
17556TIP3    H274084  -0.016   5.003   1.845  0.4860 -1.4482  0.1166
17557TIP3   OH274085   1.685   4.178   4.184  0.4924 -0.0014 -0.2403
17557TIP3    H174086   1.777   4.182   4.209  0.6990  0.0372 -0.9878
17557TIP3    H274087   1.686   4.182   4.088 -0.2781 -0.1378 -0.2582
17558TIP3   OH274088   3.240   1.250  14.963  0.4174  0.7466 -0.4827
17558TIP3    H174089   3.174   1.191  14.925  0.0926 -0.6007  1.9470
17558TIP3    H274090   3.303   1.263  14.892 -0.8145 -0.4999 -1.9019
17559TIP3   OH274091   3.313   5.120   5.492  1.0311  0.0752 -0.2883
17559TIP3    H174092   3.247   5.182   5.523 -0.6161 -1.6407 -0.1407
17559TIP3    H274093   3.315   5.131   5.397  1.1874  0.7362 -0.2118
17560TIP3   OH274094   0.014   6.043  12.757 -0.4502 -0.0680  0.2028
17560TIP3    H174095  -0.022   5.956  12.742  0.7450 -1.1963  3.1672
17560TIP3    H274096   0.073   6.057  12.683 -1.8498 -1.0490 -1.1508
17561TIP3   OH274097   2.011   1.679  16.742 -0.7264 -0.4044  0.9666
17561TIP3    H174098   1.921   1.646  16.742 -0.6717 -0.5554  0.7216
17561TIP3    H274099   2.061   1.612  16.787 -0.6737 -0.5005  0.7685
17562TIP3   OH274100   0.834   4.123   4.492 -0.1925  0.3370 -0.6774
17562TIP3    H174101   0.863   4.105   4.403  3.1683 -0.0718  0.3881
17562TIP3    H274102   0.878   4.205   4.516 -0.1400 -0.1417  0.9856
17563TIP3   OH274103   4.530   1.689   5.363  0.7050 -0.4932  0.7578
17563TIP3    H174104   4.551   1.782   5.355 -0.1154 -0.4289 -1.5280
17563TIP3    H274105   4.507   1.677   5.455  1.1234  1.4818  1.1693
17564TIP3   OH274106   4.895   4.822  15.879  0.0988  0.0062  0.0445
17564TIP3    H174107   4.946   4.823  15.798  0.3775 -0.5639  0.2086
17564TIP3    H274108   4.885   4.914  15.902 -1.0562  0.2621 -1.3080
17565TIP3   OH274109   6.511   3.962   6.863  0.4437  0.2601 -0.1776
17565TIP3    H174110   6.462   3.881   6.876  1.8260 -0.4790  0.6540
17565TIP3    H274111   6.581   3.938   6.802  0.1426  1.1508 -0.9029
17566TIP3   OH274112   2.289   4.235   0.432  0.2132 -0.0982  0.0973
17566TIP3    H174113   2.327   4.148   0.419  0.2437 -0.1468  0.5104
17566TIP3    H274114   2.306   4.281   0.350 -0.6655 -0.8027 -0.4928
17567TIP3   OH274115   0.087   5.270  12.165  0.7198 -0.1884  0.0856
17567TIP3    H174116   0.063   5.212  12.237  0.6072 -1.3935 -0.8834
17567TIP3    H274117   0.005   5.285  12.117  0.5019  1.7686  0.9748
17568TIP3   OH274118   5.753   5.038  14.420  0.8362  0.0859 -0.0507
17568TIP3    H174119   5.823   5.055  14.483  0.2978 -0.7554  0.8022
17568TIP3    H274120   5.785   4.964  14.367  0.4682 -0.5151  0.5556
17569TIP3   OH274121   4.099   1.914   0.357  0.2811  0.2667  0.2676
17569TIP3    H174122   4.004   1.918   0.355  0.2055 -1.1040 -1.0892
17569TIP3    H274123   4.121   1.900   0.450 -0.8404  0.3625  0.5544
17570TIP3   OH274124   0.122   1.077   0.014 -0.1541 -0.0856  0.3674
17570TIP3    H174125   0.132   1.170  -0.007  0.1542 -0.0166  0.7857
17570TIP3    H274126   0.144   1.031  -0.067 -0.6966  0.2161  0.0420
17571TIP3   OH274127   1.207   4.252   0.857  0.4787  0.1987 -0.0773
17571TIP3    H174128   1.301   4.245   0.875  0.4813  2.3275  0.9711
17571TIP3    H274129   1.203   4.289   0.768  0.6061 -0.2310 -0.2672
17572TIP3   OH274130   3.342   5.811  13.906 -0.0508  0.3792 -0.0936
17572TIP3    H174131   3.384   5.756  13.839 -0.7727  2.0657 -2.0578
17572TIP3    H274132   3.371   5.899  13.886 -0.2599  0.9441  1.9156
17573TIP3   OH274133   6.034   3.919   5.948 -0.5717 -0.3940  0.2841
17573TIP3    H174134   6.130   3.913   5.956 -0.4809  0.4106 -0.1864
17573TIP3    H274135   6.006   3.951   6.034 -0.1846  1.7148 -0.3212
17574TIP3   OH274136   5.196   3.108  13.672 -0.1984  0.4777 -0.1785
17574TIP3    H174137   5.213   3.201  13.691 -1.6778  0.4737  1.4169
17574TIP3    H274138   5.110   3.091  13.712 -0.0386 -1.5407 -0.6049
17575TIP3   OH274139   2.458   5.874  10.816 -0.1514 -0.0291  0.2649
17575TIP3    H174140   2.436   5.956  10.860  0.9300  1.1350 -1.2405
17575TIP3    H274141   2.452   5.894  10.723  0.4847 -1.5620 -0.1477
17576TIP3   OH274142   0.478   0.184   2.352  0.4536  0.4196  0.0112
17576TIP3    H174143   0.569   0.166   2.325  0.5423  0.8178  0.0431
17576TIP3    H274144   0.484   0.263   2.406  0.5016 -1.1843  2.5300
17577TIP3   OH274145   3.800   3.051  16.615 -0.5722 -0.1676 -0.3839
17577TIP3    H174146   3.879   3.033  16.564 -1.6431  1.2140 -2.7398
17577TIP3    H274147   3.748   2.971  16.608 -0.8395  0.0928 -1.8738
17578TIP3   OH274148   0.424   2.376   0.122 -0.7501  0.0559 -0.3725
17578TIP3    H174149   0.464   2.397   0.206 -0.2680  0.1926 -0.6316
17578TIP3    H274150   0.338   2.342   0.144 -0.2109 -0.9466  0.2374
17579TIP3   OH274151   4.082   3.833   4.850 -0.8877  0.2638 -0.1371
17579TIP3    H174152   4.135   3.839   4.929 -1.2888  1.1898  0.0702
17579TIP3    H274153   4.091   3.918   4.808 -0.5345 -0.2720 -1.2004
17580TIP3   OH274154   0.290   1.042   5.142 -0.2364  0.5491  1.1012
17580TIP3    H174155   0.260   1.114   5.087  2.2676  1.6683  1.0876
17580TIP3    H274156   0.345   0.989   5.085 -0.5332 -0.3554  1.6209
17581TIP3   OH274157   1.666   1.769  17.005  0.1014  0.3357  0.2254
17581TIP3    H174158   1.650   1.819  17.085  0.6352  1.7291 -0.5065
17581TIP3    H274159   1.589   1.713  16.996 -0.4357  0.8985  1.1747
17582TIP3   OH274160   4.647   4.396  11.628 -0.1511 -0.1536 -0.2128
17582TIP3    H174161   4.730   4.373  11.671 -0.0648  0.8181  0.1653
17582TIP3    H274162   4.672   4.416  11.538 -0.1149 -0.7572 -0.3423
17583TIP3   OH274163   2.431   0.358   4.937 -0.1229 -0.3578 -0.8554
17583TIP3    H174164   2.488   0.407   4.879  0.4765  1.8091  1.3947
17583TIP3    H274165   2.467   0.269   4.935  2.1902  0.4967 -0.9870
17584TIP3   OH274166   3.167   4.131  13.544 -0.0156  0.8375  1.0017
17584TIP3    H174167   3.131   4.206  13.591 -0.6521  1.2189 -0.0636
17584TIP3    H274168   3.135   4.141  13.455 -0.3387 -0.8535  0.8949
17585TIP3   OH274169   2.073   2.356   1.364 -0.0225 -0.1662 -0.4803
17585TIP3    H174170   2.165   2.378   1.354  0.2470 -1.1824 -0.3970
17585TIP3    H274171   2.053   2.376   1.455 -0.5956  2.4704 -1.1172
17586TIP3   OH274172   3.936   6.447   0.397 -0.3445  0.1874  0.1696
17586TIP3    H174173   3.986   6.514   0.350 -1.9139  0.4329 -1.2841
17586TIP3    H274174   3.853   6.442   0.348 -1.6168 -0.3877  2.2746
17587TIP3   OH274175   5.546   3.507   2.322 -0.1015 -0.3890  0.0509
17587TIP3    H174176   5.612   3.442   2.298 -0.0708 -0.0113 -0.9098
17587TIP3    H274177   5.582   3.590   2.293 -0.5754 -0.0604  0.3855
17588TIP3   OH274178   2.105   3.513  12.598  0.1660 -0.9859 -0.1985
17588TIP3    H174179   2.153   3.484  12.676 -0.2747  1.9191  1.3081
17588TIP3    H274180   2.162   3.577  12.557 -1.4637  1.0584  0.5168
17589TIP3   OH274181   4.531   2.922  12.212 -0.1338 -0.0612  0.0469
17589TIP3    H174182   4.458   2.889  12.265 -0.5801 -2.3238 -1.8254
17589TIP3    H274183   4.490   2.957  12.133  0.6353  1.5711  0.3346
17590TIP3   OH274184   5.792   5.758   5.679  0.5490  0.2274 -0.5732
17590TIP3    H174185   5.857   5.724   5.618 -0.6769 -0.6266 -1.4538
17590TIP3    H274186   5.720   5.787   5.623 -0.1456  0.4611  0.4168
17591TIP3   OH274187   2.239   2.983  16.616 -0.1111  0.2041  0.4937
17591TIP3    H174188   2.190   3.065  16.627  0.0184  0.2563  0.6758
17591TIP3    H274189   2.316   3.008  16.565  0.3338  0.3441  1.2306
17592TIP3   OH274190   0.548   4.569  12.527  0.0471  0.8356 -0.1820
17592TIP3    H174191   0.501   4.515  12.463 -0.7720  1.1636  0.1374
17592TIP3    H274192   0.626   4.599  12.480 -0.0777  0.3219 -0.7284
17593TIP3   OH274193   3.309   6.090  17.148  0.2483  0.0444 -0.3736
17593TIP3    H174194   3.215   6.103  17.161 -0.0152  0.9960 -2.7341
17593TIP3    H274195   3.314   6.018  17.085  1.2258 -1.3689  1.2429
17594TIP3   OH274196   6.167   1.706   5.731  0.5465 -0.7115  0.4656
17594TIP3    H174197   6.235   1.660   5.681 -1.1833 -0.9895 -1.8481
17594TIP3    H274198   6.207   1.788   5.758  2.2261 -1.4997  0.4913
17595TIP3   OH274199   4.150   2.207   4.405 -0.5826  0.2277  0.0776
17595TIP3    H174200   4.187   2.176   4.322  1.1710 -2.9158  1.8561
17595TIP3    H274201   4.058   2.180   4.401 -1.0174  1.7670 -1.5158
17596TIP3   OH274202   1.708   1.923   2.077 -0.1157 -0.1311 -0.0413
17596TIP3    H174203   1.738   2.008   2.109  0.5832 -0.9949  1.6723
17596TIP3    H274204   1.783   1.865   2.086 -1.1598 -1.4181  0.7358
17597TIP3   OH274205   5.994   2.765  13.903  0.2482 -0.0939 -0.0888
17597TIP3    H174206   6.061   2.827  13.932  0.3349 -0.6316  0.8907
17597TIP3    H274207   6.037   2.680  13.903 -0.4771 -0.4845  0.7824
17598TIP3   OH274208   6.741   1.041  16.943  0.4653 -0.7827 -0.2901
17598TIP3    H174209   6.816   1.094  16.970 -0.2572 -0.0159  0.2641
17598TIP3    H274210   6.752   1.031  16.848  0.2701  0.9634 -0.5452
17599TIP3   OH274211   6.022   3.851  14.451  0.2243 -0.0795 -0.6949
17599TIP3    H174212   6.047   3.894  14.369 -1.6174  1.7835 -0.3877
17599TIP3    H274213   5.934   3.816  14.434  0.0925 -0.2437  0.2707
17600TIP3   OH274214   1.977   2.103  11.114 -0.3421  0.2309  0.6036
17600TIP3    H174215   2.025   2.129  11.036 -1.2357  0.2248  0.0298
17600TIP3    H274216   2.041   2.057  11.169  0.6916  1.6225  0.6073
17601TIP3   OH274217   2.343   6.628  13.402  0.5048 -0.1385 -0.2654
17601TIP3    H174218   2.261   6.624  13.353 -0.7543 -1.7646  1.8249
17601TIP3    H274219   2.399   6.564  13.358 -0.2695 -0.8976 -0.1684
17602TIP3   OH274220   6.514   4.858  13.662 -0.4692  0.2432  0.3403
17602TIP3    H174221   6.433   4.822  13.624  0.3616 -0.7669 -0.5529
17602TIP3    H274222   6.494   4.951  13.676 -1.9013 -0.0539  0.4950
17603TIP3   OH274223   4.743   0.067  16.431  0.5304  0.9264 -0.4839
17603TIP3    H174224   4.730   0.135  16.497 -1.8632 -0.3412  0.4480
17603TIP3    H274225   4.723   0.110  16.348 -0.8233  1.4170  0.0745
17604TIP3   OH274226   4.153   4.179  13.444 -0.0337 -0.0910 -0.3607
17604TIP3    H174227   4.124   4.246  13.506 -1.0543 -1.1093  0.2883
17604TIP3    H274228   4.245   4.164  13.466  0.0184  0.6139 -0.0784
17605TIP3   OH274229   3.224   5.371   0.591  0.1480 -0.1206  0.7094
17605TIP3    H174230   3.296   5.364   0.654 -0.2181 -1.8826  0.9707
17605TIP3    H274231   3.152   5.409   0.641  0.3008 -0.1433  0.9480
17606TIP3   OH274232   6.679   1.993   4.969  0.1547  0.9067  0.5704
17606TIP3    H174233   6.602   2.047   4.986  0.6069  1.5274  0.6640
17606TIP3    H274234   6.737   2.010   5.043 -1.3219 -2.8273  2.9325
17607TIP3   OH274235   5.749   2.269   0.951  0.0085 -0.0689  0.1718
17607TIP3    H174236   5.697   2.320   0.888  1.7163 -0.4597 -1.6434
17607TIP3    H274237   5.723   2.178   0.936  0.9254 -0.2341 -0.5168
17608TIP3   OH274238   3.775   4.630  14.937  0.0927  0.4258  0.2781
17608TIP3    H174239   3.735   4.696  14.880  0.7821 -0.3057 -1.0996
17608TIP3    H274240   3.725   4.550  14.918  0.4614  0.1318  0.5478
17609TIP3   OH274241   4.918   3.812   0.085 -0.6565  0.3058  0.0284
17609TIP3    H174242   4.862   3.801   0.007  0.0372 -0.0157 -0.4347
17609TIP3    H274243   4.862   3.785   0.158 -1.4123  0.8699 -0.3169
17610TIP3   OH274244   3.073   2.285   2.320 -0.3512 -0.5388 -0.0411
17610TIP3    H174245   3.108   2.305   2.234 -1.5928 -1.5829 -0.8322
17610TIP3    H274246   3.140   2.315   2.382  0.9045 -0.4914 -1.3886
17611TIP3   OH274247   2.457   4.587   4.681 -0.4721 -0.1335  0.3003
17611TIP3    H174248   2.362   4.598   4.683 -0.3139  1.6159  0.3918
17611TIP3    H274249   2.473   4.509   4.734 -1.8378 -0.3021  0.5193
17612TIP3   OH274250   0.866   4.491  16.020  0.0209  0.3523  0.1108
17612TIP3    H174251   0.877   4.455  15.933  0.0881  0.7259 -0.0385
17612TIP3    H274252   0.935   4.450  16.072  0.3042  0.5149 -0.1349
17613TIP3   OH274253   2.841   4.527  12.406 -0.6583  0.4444  0.2769
17613TIP3    H174254   2.915   4.561  12.355  0.0673 -0.5031  0.6694
17613TIP3    H274255   2.771   4.517  12.342  0.1043 -0.3040 -0.4743
17614TIP3   OH274256   0.880   5.851   2.896  0.0925 -0.4208 -0.2700
17614TIP3    H174257   0.917   5.838   2.984  1.6423  0.4779 -0.7545
17614TIP3    H274258   0.928   5.789   2.841 -1.3909 -1.5150 -0.3989
17615TIP3   OH274259   3.906   2.667   0.460  0.5929  0.6447 -0.5569
17615TIP3    H174260   3.893   2.592   0.519 -2.4025  0.9941 -0.6277
17615TIP3    H274261   3.921   2.628   0.374  2.7026  0.1594 -0.0218
17616TIP3   OH274262   0.492   6.419   3.250 -0.0128  0.1810 -0.0192
17616TIP3    H174263   0.419   6.381   3.202 -1.5757  3.3185 -0.3837
17616TIP3    H274264   0.535   6.477   3.187  2.4007 -0.9853  0.4130
17617TIP3   OH274265   3.178   6.621   5.246 -0.0487  0.5496  0.5963
17617TIP3    H174266   3.175   6.650   5.337  1.0282  0.1833  0.7617
17617TIP3    H274267   3.086   6.622   5.218 -0.2406  2.5087  1.0803
17618TIP3   OH274268   1.749   5.934   1.884  0.2780  0.0280 -0.2069
17618TIP3    H174269   1.742   5.972   1.797  2.2671 -2.1339 -1.4445
17618TIP3    H274270   1.662   5.898   1.902  0.1733 -0.6917 -1.9452
17619TIP3   OH274271   3.375   2.828   3.820 -0.3932 -0.7943 -0.2707
17619TIP3    H174272   3.284   2.853   3.809 -0.6807 -1.2878  0.8348
17619TIP3    H274273   3.425   2.895   3.772 -1.3255 -0.4927 -0.8300
17620TIP3   OH274274   2.412   3.684   0.988  0.3653  0.1574 -0.6435
17620TIP3    H174275   2.472   3.758   0.996  0.2571  0.1324  0.4707
17620TIP3    H274276   2.457   3.623   0.929  0.0471  1.4875 -2.3373
17621TIP3   OH274277   4.261   4.419  14.645  0.0342 -0.3621 -0.2601
17621TIP3    H174278   4.307   4.473  14.709  1.2556 -0.2193 -1.2240
17621TIP3    H274279   4.213   4.355  14.697 -0.6138  0.9918  0.8724
17622TIP3   OH274280   1.619   2.206  11.349 -0.6363 -0.3095 -0.0960
17622TIP3    H174281   1.626   2.153  11.269  0.4803  0.2590 -0.4076
17622TIP3    H274282   1.710   2.230  11.369 -1.1538  2.3457 -0.5795
17623TIP3   OH274283   3.732   2.647  10.639  0.0815 -0.0259  0.0826
17623TIP3    H174284   3.715   2.593  10.562  0.3819  0.2354 -0.1683
17623TIP3    H274285   3.674   2.611  10.707  0.6366 -0.9696  0.0618
17624TIP3   OH274286   1.091   6.498   1.210 -0.2843  0.1616  0.6367
17624TIP3    H174287   1.050   6.547   1.281 -2.0539  0.0914 -0.2761
17624TIP3    H274288   1.039   6.418   1.203 -0.0825  0.1317 -0.6890
17625TIP3   OH274289   6.415   1.830  16.002 -0.3739  0.4811 -0.4920
17625TIP3    H174290   6.398   1.856  16.093  1.1616  0.7094 -0.2439
17625TIP3    H274291   6.332   1.846  15.957 -0.6670  2.0220  0.5062
17626TIP3   OH274292   5.615   3.755  12.206 -0.4632 -0.0792 -0.5517
17626TIP3    H174293   5.540   3.757  12.147 -2.8434  0.6062  2.2667
17626TIP3    H274294   5.579   3.774  12.292  3.2212  2.0702  0.7756
17627TIP3   OH274295   4.708   3.607   0.570  0.0444  0.2541  0.4250
17627TIP3    H174296   4.706   3.649   0.656  0.2967 -2.4551  1.8656
17627TIP3    H274297   4.616   3.586   0.552  0.1062 -0.2399  0.6452
17628TIP3   OH274298   4.253   2.769  17.184  0.3765  0.0366 -0.1833
17628TIP3    H174299   4.262   2.675  17.200  0.4139  0.1649  0.6178
17628TIP3    H274300   4.337   2.796  17.147  1.7259  0.3611  2.8132
17629TIP3   OH274301   3.388   6.150   4.512 -0.0965 -0.1275  0.3877
17629TIP3    H174302   3.316   6.160   4.449  0.4184  1.9725  0.0719
17629TIP3    H274303   3.432   6.235   4.512  1.5599 -0.9352  1.6058
17630TIP3   OH274304   3.021   0.406   4.811  0.2749 -0.3141 -1.1937
17630TIP3    H174305   3.063   0.370   4.889 -1.3994 -2.3261 -1.1140
17630TIP3    H274306   3.093   0.433   4.755  1.5631  2.3735  1.4475
17631TIP3   OH274307   2.653   4.862  17.106 -0.4625  0.5713 -0.4534
17631TIP3    H174308   2.599   4.914  17.046 -1.0586  2.1758  1.4051
17631TIP3    H274309   2.594   4.796  17.140 -0.9233  1.4505  0.5060
17632TIP3   OH274310   0.695   0.988  14.305 -0.4281  0.2928  0.0845
17632TIP3    H174311   0.765   1.054  14.307 -0.9471  0.8615 -0.0085
17632TIP3    H274312   0.722   0.923  14.369 -0.9662  1.7021  1.8257
17633TIP3   OH274313   1.179   6.164  13.125  0.5140  0.4556 -0.3428
17633TIP3    H174314   1.109   6.166  13.059  1.4818  0.9748 -1.3921
17633TIP3    H274315   1.231   6.087  13.100  1.6695  1.4427 -1.0392
17634TIP3   OH274316   0.079   6.144  14.852  0.0321  0.6787  0.4180
17634TIP3    H174317   0.030   6.135  14.934 -1.2225  1.0607 -0.2730
17634TIP3    H274318   0.142   6.072  14.854  1.4671  1.8606  2.6590
17635TIP3   OH274319   6.523   1.906   3.802  0.2748  0.1433 -0.0361
17635TIP3    H174320   6.494   1.914   3.893  2.1465  0.2529  0.5923
17635TIP3    H274321   6.581   1.830   3.802 -2.2201 -1.9493 -1.8720
17636TIP3   OH274322   3.523   2.026   4.781 -0.0872  0.1307  0.1453
17636TIP3    H174323   3.459   1.956   4.798  2.4082 -2.5694 -0.8700
17636TIP3    H274324   3.557   2.048   4.868 -0.9230  0.1427  0.4824
17637TIP3   OH274325   3.344   4.180  12.104  0.0412 -0.6841 -0.2326
17637TIP3    H174326   3.406   4.252  12.099  0.2246 -0.8191  0.0731
17637TIP3    H274327   3.331   4.165  12.198 -1.7152  0.4222 -0.2434
17638TIP3   OH274328   3.431   1.158  12.651 -0.1381  0.3806  0.0828
17638TIP3    H174329   3.397   1.069  12.650 -2.3122  1.1633 -0.9317
17638TIP3    H274330   3.411   1.193  12.565  2.8074  1.1585 -0.4088
17639TIP3   OH274331   4.116   6.640   3.042  0.1172 -0.0864  0.0753
17639TIP3    H174332   4.149   6.679   2.960  1.0211 -0.4325  0.2580
17639TIP3    H274333   4.102   6.548   3.021 -1.1316  0.1241 -0.0994
17640TIP3   OH274334   6.503   2.871  17.254 -0.2488 -0.1113 -0.2915
17640TIP3    H174335   6.530   2.898  17.342  0.1314 -2.3296  0.3503
17640TIP3    H274336   6.582   2.881  17.201  0.5732 -1.9331  0.4610
17641TIP3   OH274337   5.343   3.013   3.931  0.0427  0.1452 -0.2467
17641TIP3    H174338   5.257   3.055   3.932 -0.9889 -1.7802 -1.1949
17641TIP3    H274339   5.353   2.981   3.841  1.8667  0.5154 -0.2100
17642TIP3   OH274340   2.790   1.502   6.376  0.2736 -0.1561  0.4581
17642TIP3    H174341   2.860   1.454   6.419  1.4353  0.3533 -0.8086
17642TIP3    H274342   2.718   1.439   6.371  0.8754 -0.9226  1.1203
17643TIP3   OH274343   5.469   4.925  11.030 -0.1401 -0.2991  0.0041
17643TIP3    H174344   5.476   4.979  10.952  1.8968 -2.9736 -1.8431
17643TIP3    H274345   5.376   4.906  11.038 -0.2629 -1.1650 -2.7072
17644TIP3   OH274346   2.581   4.185  16.452 -0.2819 -0.1036  0.3832
17644TIP3    H174347   2.609   4.276  16.440  0.8374 -0.4161  0.5090
17644TIP3    H274348   2.492   4.183  16.417 -0.9979  1.4348  1.9477
17645TIP3   OH274349   1.085   3.034  13.896  0.0365  0.5173  0.7356
17645TIP3    H174350   1.124   3.024  13.810  2.1447  0.2829  1.6522
17645TIP3    H274351   1.035   3.116  13.892 -0.5727  0.0993 -0.9005
17646TIP3   OH274352   2.966   0.845   0.640 -0.9376  0.6686 -0.1906
17646TIP3    H174353   2.934   0.757   0.623  0.3528  0.2518 -0.6478
17646TIP3    H274354   3.062   0.838   0.632 -0.8183  2.1638 -0.5770
17647TIP3   OH274355   6.508   2.368  11.473 -0.4735 -0.3682  0.0961
17647TIP3    H174356   6.568   2.320  11.416 -2.2713  0.0229 -2.2705
17647TIP3    H274357   6.436   2.306  11.488 -0.0529 -0.4606  2.0286
17648TIP3   OH274358   2.606   6.081  15.835  0.4024  0.1710 -0.5907
17648TIP3    H174359   2.660   6.045  15.905 -0.1166  1.4919  0.5363
17648TIP3    H274360   2.630   6.031  15.758  0.4368 -1.8756  0.6671
17649TIP3   OH274361   6.353   4.331   5.388  0.6483  0.3970 -0.5210
17649TIP3    H174362   6.384   4.246   5.359  1.9482  0.8371 -0.4826
17649TIP3    H274363   6.406   4.394   5.339  0.1867  1.1703 -0.0469
17650TIP3   OH274364   2.100   0.789   4.839 -0.5649  0.5253  0.0675
17650TIP3    H174365   2.141   0.868   4.803 -1.8200  1.5111  0.6858
17650TIP3    H274366   2.099   0.804   4.934 -1.4550  0.1087  0.1328
17651TIP3   OH274367   0.711   6.151  13.393 -0.2077 -0.1477  0.1536
17651TIP3    H174368   0.699   6.114  13.481  0.7342 -0.2280  0.2547
17651TIP3    H274369   0.805   6.169  13.387 -0.2971  0.0419 -0.7666
17652TIP3   OH274370   6.474   1.599   4.271  0.1378  0.1256 -0.2366
17652TIP3    H174371   6.439   1.528   4.217 -0.3080  1.3284 -1.5897
17652TIP3    H274372   6.556   1.564   4.306  0.7025 -0.5524 -2.1019
17653TIP3   OH274373   3.997   5.217  14.937 -0.6034 -0.7054  0.3448
17653TIP3    H174374   3.947   5.156  14.992 -1.9604 -0.1595 -0.2330
17653TIP3    H274375   3.936   5.241  14.867  0.3171  0.3703 -0.1115
17654TIP3   OH274376   5.934   6.444   0.856 -0.7750 -0.0991 -0.4879
17654TIP3    H174377   5.931   6.463   0.949 -1.6661 -0.5279 -0.4154
17654TIP3    H274378   5.896   6.522   0.815 -0.4721  0.0494 -0.4888
17655TIP3   OH274379   1.819   3.449   6.133  0.5162  0.0989  0.3141
17655TIP3    H174380   1.729   3.415   6.135  0.9276 -0.9953  0.9074
17655TIP3    H274381   1.873   3.378   6.167  1.4663  1.2349  1.2788
17656TIP3   OH274382   6.644   0.836   1.794  0.2158  0.0191  0.0452
17656TIP3    H174383   6.734   0.865   1.776  0.9121 -0.2627  2.5949
17656TIP3    H274384   6.609   0.811   1.709  2.6454 -0.1033 -1.0077
17657TIP3   OH274385   6.272   3.290   1.573 -0.0660  0.0937  0.0223
17657TIP3    H174386   6.183   3.314   1.545 -0.7779  0.3764  2.2944
17657TIP3    H274387   6.267   3.196   1.588 -0.1527  0.2026  0.6893
17658TIP3   OH274388   6.306   6.094   2.243 -0.0025  0.0752 -0.4352
17658TIP3    H174389   6.368   6.143   2.297 -0.6016  0.0034  0.3318
17658TIP3    H274390   6.246   6.161   2.209 -0.6102 -0.0646  0.3298
17659TIP3   OH274391   1.043   1.399  15.147  0.3595 -0.2183 -0.3505
17659TIP3    H174392   1.058   1.396  15.052 -1.1262 -2.3860 -0.6043
17659TIP3    H274393   0.964   1.346  15.160 -2.3772  3.8121  1.6321
17660TIP3   OH274394   4.345   5.760  13.182 -0.1444  0.2605  0.0952
17660TIP3    H174395   4.341   5.665  13.188  1.8279  0.2023  1.6172
17660TIP3    H274396   4.375   5.778  13.093  0.7203 -0.6264  0.1951
17661TIP3   OH274397   4.401   0.527  12.244  0.4207 -0.0745 -0.2299
17661TIP3    H174398   4.462   0.456  12.223  1.4169 -0.0022  2.0691
17661TIP3    H274399   4.330   0.517  12.181  0.5437 -3.1028 -0.0649
17662TIP3   OH274400   1.230   0.253   6.316  0.4503  0.0324  0.0251
17662TIP3    H174401   1.242   0.276   6.224 -0.0481 -1.4769 -0.4439
17662TIP3    H274402   1.318   0.256   6.353  0.6733  0.4918 -0.5293
17663TIP3   OH274403   0.987   3.238  11.524 -0.1501 -0.4336 -0.0925
17663TIP3    H174404   1.017   3.286  11.447 -1.7241 -1.2419 -1.2540
17663TIP3    H274405   1.046   3.162  11.529  0.7110  0.2299  0.2494
17664TIP3   OH274406   2.985   6.153  16.890 -0.0888 -0.3187  0.0466
17664TIP3    H174407   2.931   6.073  16.890 -0.7232 -0.0938 -4.1408
17664TIP3    H274408   3.073   6.122  16.872 -0.4009 -0.1534 -1.9890
17665TIP3   OH274409   2.928   4.581  12.772 -0.8012  0.6436 -0.0687
17665TIP3    H174410   2.853   4.623  12.730 -0.1681  2.7672  0.8214
17665TIP3    H274411   2.932   4.620  12.859  1.1603  0.3559  0.0150
17666TIP3   OH274412   4.480   0.706   4.997 -0.3017 -0.2357  0.2142
17666TIP3    H174413   4.461   0.764   4.923  0.8014 -0.6287 -0.3832
17666TIP3    H274414   4.546   0.645   4.965  0.2997 -0.3352  1.5570
17667TIP3   OH274415   2.367   4.528   0.136  0.6793  0.1837 -0.6798
17667TIP3    H174416   2.409   4.604   0.177 -0.8313  1.5875 -1.6220
17667TIP3    H274417   2.283   4.561   0.104 -0.7519 -2.2619  0.2624
17668TIP3   OH274418   2.711   4.046  11.606  0.1553 -0.1609  0.1547
17668TIP3    H174419   2.619   4.071  11.614  0.9102  3.1829  0.0678
17668TIP3    H274420   2.734   4.010  11.691 -0.7970  0.7590  0.8275
17669TIP3   OH274421   6.505   4.390   2.282 -0.4435  0.2263  0.0992
17669TIP3    H174422   6.520   4.344   2.199  0.2512  0.1199  0.2841
17669TIP3    H274423   6.582   4.445   2.295 -0.4809  0.1378  0.7497
17670TIP3   OH274424   0.780   0.143   0.912 -0.4013 -0.0559  0.3667
17670TIP3    H174425   0.849   0.176   0.970 -0.4627 -0.7825  0.8744
17670TIP3    H274426   0.793   0.189   0.830  1.9397 -1.5555 -0.1963
17671TIP3   OH274427   2.738   5.484  12.322  0.0691 -0.3005  0.8056
17671TIP3    H174428   2.691   5.481  12.238  0.3672 -0.9060  0.6516
17671TIP3    H274429   2.734   5.394  12.355 -1.0082  0.1562  1.9871
17672TIP3   OH274430   0.246   4.256   6.130  0.1369 -0.3016  0.5974
17672TIP3    H174431   0.242   4.330   6.190  0.9417 -1.0839  1.6651
17672TIP3    H274432   0.335   4.259   6.094  0.6155 -1.4404  1.6086
17673TIP3   OH274433   0.698   4.408   3.070  0.3015  0.0405 -0.3566
17673TIP3    H174434   0.788   4.418   3.102 -0.1594  1.6255  0.5227
17673TIP3    H274435   0.670   4.323   3.104  0.1969  1.1701  2.7018
17674TIP3   OH274436   0.546   3.827  12.192  0.0530 -0.5965  0.1789
17674TIP3    H174437   0.548   3.899  12.129 -0.4387 -0.5969  0.1613
17674TIP3    H274438   0.523   3.869  12.275 -0.4606 -0.7595  0.1236
17675TIP3   OH274439   4.715   5.719   5.262  0.3979  0.0460  0.3149
17675TIP3    H174440   4.708   5.736   5.168  0.6149 -0.5321  0.1876
17675TIP3    H274441   4.723   5.805   5.302 -1.3287  0.4115 -0.0528
17676TIP3   OH274442   0.097   6.483  12.149 -0.5861  0.7407  0.6123
17676TIP3    H174443   0.077   6.563  12.199 -1.5230 -0.0882  1.5948
17676TIP3    H274444   0.157   6.435  12.205 -0.2763  0.5974  0.1594
17677TIP3   OH274445   4.025   0.785   5.119 -0.6217  0.3887  0.8537
17677TIP3    H174446   3.992   0.827   5.039 -0.8797 -1.0474  0.1723
17677TIP3    H274447   3.952   0.732   5.150  0.0875 -0.5396  0.9795
17678TIP3   OH274448   0.675   5.417   1.683 -0.1832 -1.3745  0.2378
17678TIP3    H174449   0.617   5.461   1.745 -1.2092 -2.1308 -0.1502
17678TIP3    H274450   0.675   5.473   1.606 -1.1418 -1.8139 -0.0956
17679TIP3   OH274451   5.018   4.837   5.560 -0.4428  0.4706 -0.5144
17679TIP3    H174452   4.952   4.869   5.499 -0.4353  1.6318  0.0733
17679TIP3    H274453   4.968   4.794   5.629 -0.6298  1.6124  0.0855
17680TIP3   OH274454   5.053   4.915   2.003  0.1140  0.3881  0.0427
17680TIP3    H174455   4.997   4.965   2.063  1.2443 -0.3463  1.8069
17680TIP3    H274456   5.045   4.824   2.032  2.7013  0.3322  0.8597
17681TIP3   OH274457   4.001   0.526   2.582  0.2361  0.9092 -0.2282
17681TIP3    H174458   3.906   0.518   2.570  0.4970 -1.6001 -1.1355
17681TIP3    H274459   4.033   0.563   2.500  0.2485 -0.2699 -0.7646
17682TIP3   OH274460   6.237   4.687  12.974 -0.3287  0.3268 -0.7044
17682TIP3    H174461   6.260   4.776  12.950  0.0459  0.7433  1.0523
17682TIP3    H274462   6.160   4.696  13.031  1.3361 -0.1596  1.7939
17683TIP3   OH274463   5.770   4.993   1.272  0.5668 -0.0425  0.1579
17683TIP3    H174464   5.689   5.043   1.282  1.0153  0.7610 -0.1635
17683TIP3    H274465   5.756   4.939   1.194  0.8367  1.0818 -0.6819
17684TIP3   OH274466   6.465   6.694  17.003 -0.3441 -0.6954  0.2730
17684TIP3    H174467   6.414   6.774  16.988 -1.9595 -0.8633  3.7668
17684TIP3    H274468   6.527   6.718  17.073  0.4422 -2.0265  0.0688
17685TIP3   OH274469   3.795   5.417   6.342 -0.3671 -0.1183 -0.0454
17685TIP3    H174470   3.728   5.474   6.305 -1.2471  0.4942  2.2760
17685TIP3    H274471   3.878   5.452   6.310 -1.0633 -0.1127 -1.9579
17686TIP3   OH274472   6.606   5.497   1.340 -0.1350  0.1681  0.3443
17686TIP3    H174473   6.602   5.586   1.374 -0.8415  0.1670  0.2827
17686TIP3    H274474   6.659   5.449   1.404  0.9833  0.8166 -0.0691
17687TIP3   OH274475   2.414   2.001   0.304 -0.1596 -0.0751  0.1555
17687TIP3    H174476   2.356   1.948   0.359 -0.2172 -0.5755 -0.3822
17687TIP3    H274477   2.454   1.938   0.244  0.6889  0.3116  0.3028
17688TIP3   OH274478   1.601   5.659   2.035 -0.1444 -0.1337 -0.2117
17688TIP3    H174479   1.647   5.582   2.070 -1.3997 -1.3163 -1.0634
17688TIP3    H274480   1.637   5.668   1.946 -0.9918 -0.6151 -0.6146
17689TIP3   OH274481   0.109   0.396  12.145 -0.4164  0.3889 -0.0230
17689TIP3    H174482   0.096   0.453  12.069 -1.1577 -1.7051 -1.5770
17689TIP3    H274483   0.031   0.410  12.199 -0.9441  0.3126 -0.7542
17690TIP3   OH274484   4.246   6.302   1.593  0.5868  0.2617  0.2040
17690TIP3    H174485   4.218   6.309   1.684  2.0436  0.6061  0.6526
17690TIP3    H274486   4.169   6.269   1.546 -0.9586  2.3356  1.1299
17691TIP3   OH274487   6.364   3.481  12.341 -0.3054 -0.9522  0.5611
17691TIP3    H174488   6.431   3.479  12.410  0.3451  0.1419 -0.0158
17691TIP3    H274489   6.327   3.569  12.347 -0.1612 -0.8036 -0.5519
17692TIP3   OH274490   5.460   3.064  17.251 -0.3367 -0.3913  0.1456
17692TIP3    H174491   5.389   3.004  17.274 -1.0228  0.0081 -0.8689
17692TIP3    H274492   5.416   3.148  17.238  0.3903 -0.0345 -0.0355
17693TIP3   OH274493   0.360   4.917  14.616  0.6457  0.1725 -0.6598
17693TIP3    H174494   0.416   4.993  14.606  0.3316  0.6588  0.9453
17693TIP3    H274495   0.416   4.851  14.658 -0.0226  0.8279  1.4141
17694TIP3   OH274496   5.618   0.954   0.148 -0.0964  0.0665  0.1073
17694TIP3    H174497   5.568   0.915   0.220 -0.1938 -0.2830 -0.1481
17694TIP3    H274498   5.662   0.880   0.106  0.7658  0.3909  0.4221
17695TIP3   OH274499   0.876   5.591   0.252  0.5634 -0.1786  0.4477
17695TIP3    H174500   0.924   5.567   0.331 -0.0751 -0.1608  0.8506
17695TIP3    H274501   0.910   5.532   0.185  2.2770  0.8974  0.3152
17696TIP3   OH274502   4.103   2.761  13.427  0.2317 -0.3862  0.1281
17696TIP3    H174503   4.042   2.811  13.373  0.9353  1.2221  0.7611
17696TIP3    H274504   4.111   2.677  13.382 -2.2002 -0.5652 -0.1230
17697TIP3   OH274505   4.211   5.458  15.907 -0.5066 -0.0977  0.2366
17697TIP3    H174506   4.286   5.424  15.956  0.5086  1.3903 -0.1903
17697TIP3    H274507   4.139   5.399  15.928  0.2344 -0.2898  2.4206
17698TIP3   OH274508   0.142   2.581  13.092 -0.7418  0.5011 -0.6662
17698TIP3    H174509   0.090   2.532  13.155 -3.7034  4.3096  0.2319
17698TIP3    H274510   0.087   2.586  13.014  0.0353  1.2997 -1.1789
17699TIP3   OH274511   0.733   4.331   6.763  0.3715 -0.2713 -0.4564
17699TIP3    H174512   0.646   4.289   6.766  0.5890 -0.7035  0.5595
17699TIP3    H274513   0.778   4.289   6.690  0.5164 -1.7159  0.4270
17700TIP3   OH274514   1.750   6.607  13.663  0.6305  0.2509  0.2271
17700TIP3    H174515   1.824   6.667  13.675  1.3973 -0.6623  0.2022
17700TIP3    H274516   1.748   6.589  13.569 -0.0825  0.8274  0.1251
17701TIP3   OH274517   1.836   5.179   0.091  0.7629  0.0473  0.2094
17701TIP3    H174518   1.778   5.239   0.138  0.2454  0.5361 -0.9956
17701TIP3    H274519   1.778   5.110   0.059  1.2451 -0.7381  0.9910
17702TIP3   OH274520   5.662   1.949   0.609 -0.1929 -0.6990 -0.0245
17702TIP3    H174521   5.745   1.975   0.648 -0.7083  0.3046  0.4221
17702TIP3    H274522   5.685   1.876   0.551  0.9523 -0.6077  0.2906
17703TIP3   OH274523   0.427   2.855  15.428  0.4375  0.3096  0.1626
17703TIP3    H174524   0.472   2.925  15.476  2.0892 -0.4763 -0.1572
17703TIP3    H274525   0.335   2.865  15.451  0.6299  2.5575  0.1552
17704TIP3   OH274526   1.125   3.184   2.576 -0.3312  0.2355 -0.0925
17704TIP3    H174527   1.096   3.275   2.584  1.1683  0.6630  0.8490
17704TIP3    H274528   1.059   3.134   2.623  0.2865  1.1676  1.8709
17705TIP3   OH274529   6.134   3.347   3.076 -0.6080 -0.3652 -0.0486
17705TIP3    H174530   6.203   3.306   3.023  0.7025  0.8752  0.6139
17705TIP3    H274531   6.077   3.389   3.011 -0.4388 -0.9470 -0.5912
17706TIP3   OH274532   6.007   0.825   5.840  0.8218  0.4188  0.2868
17706TIP3    H174533   6.049   0.826   5.927  3.0730  2.2538 -0.7050
17706TIP3    H274534   6.043   0.902   5.796 -0.4129 -0.3615 -2.2354
17707TIP3   OH274535   6.472   5.020  15.846  0.3658  0.5579  0.3373
17707TIP3    H174536   6.513   4.992  15.765 -0.0611  1.3641 -0.1699
17707TIP3    H274537   6.389   5.059  15.819  0.0242  0.4692  1.1990
17708TIP3   OH274538   0.399   1.608  10.709 -0.0765 -0.1244  0.0560
17708TIP3    H174539   0.411   1.611  10.804 -1.3740  1.4322  0.2124
17708TIP3    H274540   0.306   1.591  10.697 -0.4569  2.1914 -0.8508
17709TIP3   OH274541   1.911   1.621  13.173 -0.1638 -0.3608 -0.2004
17709TIP3    H174542   1.899   1.630  13.267  2.2017  0.2013  0.1001
17709TIP3    H274543   1.866   1.539  13.151 -1.9592  0.1966  1.1249
17710TIP3   OH274544   5.428   4.257  14.714 -0.2418  0.0651 -0.0296
17710TIP3    H174545   5.427   4.175  14.664  0.8748 -1.2861  2.0445
17710TIP3    H274546   5.359   4.310  14.673 -1.4917 -2.1511 -1.0078
17711TIP3   OH274547   1.276   0.967  10.787 -0.4651 -0.4840  0.3141
17711TIP3    H174548   1.319   0.959  10.873  0.0671 -2.7689 -0.0912
17711TIP3    H274549   1.347   0.988  10.727 -0.0620 -2.8193 -0.1260
17712TIP3   OH274550   5.852   5.411  11.643 -0.2643  0.0139 -0.1422
17712TIP3    H174551   5.776   5.467  11.659 -1.2185 -1.0411 -0.8626
17712TIP3    H274552   5.918   5.471  11.608 -0.9765  0.8423 -0.1102
17713TIP3   OH274553   0.500   0.737   2.465  0.3644 -0.2159 -0.8709
17713TIP3    H174554   0.494   0.784   2.382  0.9594 -0.0761 -0.8402
17713TIP3    H274555   0.412   0.741   2.502  0.1462 -0.1101 -1.4029
17714TIP3   OH274556   4.959   5.257  15.376  0.0345  0.0469 -0.0734
17714TIP3    H174557   4.991   5.337  15.416  1.3255  0.0772 -1.0988
17714TIP3    H274558   4.864   5.266  15.377  0.1586  1.4978  0.0177
17715TIP3   OH274559   6.478   6.653  16.384  0.5316  0.2603  0.7449
17715TIP3    H174560   6.521   6.585  16.434 -0.3034 -0.2247  0.8229
17715TIP3    H274561   6.531   6.732  16.399  1.8031 -0.4691  0.2317
17716TIP3   OH274562   0.006   0.274   3.477 -0.5631 -0.0128 -0.0935
17716TIP3    H174563   0.015   0.271   3.382  1.2917  3.6684 -0.2075
17716TIP3    H274564  -0.076   0.321   3.491  0.6292  2.2023 -0.0680
17717TIP3   OH274565   6.531   4.419  15.847 -0.2133 -0.0630 -0.2923
17717TIP3    H174566   6.518   4.387  15.758 -0.4892 -1.9776  0.3862
17717TIP3    H274567   6.626   4.431  15.854 -0.1956  0.1623 -0.8561
17718TIP3   OH274568   6.316   3.896  12.923 -0.4749  0.5122  0.1094
17718TIP3    H174569   6.318   3.839  13.000 -2.5780 -1.9375 -1.5030
17718TIP3    H274570   6.401   3.941  12.925 -0.0967 -0.0651  3.3256
17719TIP3   OH274571   4.943   3.603  13.656 -0.7725  0.4961  0.6070
17719TIP3    H174572   4.866   3.648  13.622 -0.2901  1.2144  0.4348
17719TIP3    H274573   4.918   3.574  13.743 -1.3530  0.4228  0.4164
17720TIP3   OH274574   4.524   4.909   4.428  0.0670 -0.1471  0.5706
17720TIP3    H174575   4.564   4.966   4.362  0.4396 -0.9225  0.1116
17720TIP3    H274576   4.440   4.951   4.448  0.1719  0.3698 -0.0263
17721TIP3   OH274577   4.294   5.393  13.036  0.3271  0.1874 -0.3871
17721TIP3    H174578   4.351   5.331  12.991 -1.5119 -0.4918 -1.8697
17721TIP3    H274579   4.269   5.456  12.968 -3.3438 -1.4479 -0.7634
17722TIP3   OH274580   4.033   4.721   5.030  0.9410  0.0385  0.0670
17722TIP3    H174581   4.008   4.805   4.992  2.0927  1.6975  2.7234
17722TIP3    H274582   4.127   4.728   5.046  1.1587 -1.9591 -0.0378
17723TIP3   OH274583   2.932   1.177   0.389  0.1967 -0.6512  0.1232
17723TIP3    H174584   2.967   1.093   0.361 -0.5535 -1.1084  0.5134
17723TIP3    H274585   3.003   1.218   0.439  0.8180 -0.7226 -0.6918
17724TIP3   OH274586   1.147   0.042  14.333 -0.2899 -0.1579  0.0103
17724TIP3    H174587   1.193   0.082  14.260  1.1010 -1.1979  0.2703
17724TIP3    H274588   1.200   0.063  14.410 -0.8133 -0.4901  0.4744
17725TIP3   OH274589   1.289   2.533   1.310  0.0784 -0.1902 -0.3966
17725TIP3    H174590   1.366   2.515   1.255  0.8775  0.2579  0.5377
17725TIP3    H274591   1.256   2.618   1.278 -1.7174 -1.6034 -2.6122
17726TIP3   OH274592   4.543   0.842  11.189  0.1034  0.2826 -0.1082
17726TIP3    H174593   4.456   0.802  11.182  0.4983 -0.6281 -0.0017
17726TIP3    H274594   4.525   0.935  11.206 -0.8768 -0.2594  2.2135
17727TIP3   OH274595   3.555   6.278   2.134  0.2241 -0.5441 -0.3171
17727TIP3    H174596   3.544   6.333   2.056  2.8975 -1.2922 -1.3448
17727TIP3    H274597   3.642   6.240   2.124  1.1799  0.1610  3.5822
17728TIP3   OH274598   0.957   2.983   1.728 -0.5375 -0.1522 -0.4141
17728TIP3    H174599   0.975   2.965   1.635  0.4474  0.9345 -0.4496
17728TIP3    H274600   0.909   3.065   1.727 -0.4399 -0.0897  0.0425
17729TIP3   OH274601   6.245   5.921  13.590  1.3903 -0.0651 -0.1886
17729TIP3    H174602   6.218   5.845  13.642 -0.0431  0.8573  0.4714
17729TIP3    H274603   6.253   5.887  13.500  1.9539 -1.2402  0.2835
17730TIP3   OH274604   0.316   0.074  13.954  0.1850  0.1429  0.2208
17730TIP3    H174605   0.333   0.118  13.870 -1.5403 -0.9391 -0.7463
17730TIP3    H274606   0.233   0.111  13.984  0.5863  0.2282  1.2811
17731TIP3   OH274607   3.118   5.490   4.247  0.1000 -0.7016 -0.7069
17731TIP3    H174608   3.182   5.554   4.277  0.4312 -0.7198 -1.3569
17731TIP3    H274609   3.168   5.431   4.190 -0.4898 -0.7193 -1.2186
17732TIP3   OH274610   3.938   4.881   2.115  0.2458  0.6902 -0.6359
17732TIP3    H174611   3.963   4.947   2.051  3.4102 -1.7687 -2.1919
17732TIP3    H274612   3.874   4.826   2.069  0.8967  0.1657 -0.9172
17733TIP3   OH274613   3.720   4.567   3.063  0.6019  0.0468  0.0103
17733TIP3    H174614   3.651   4.563   3.129 -0.2659  0.8744 -0.8366
17733TIP3    H274615   3.675   4.584   2.981  1.7643  0.0095 -0.6595
17734TIP3   OH274616   3.180   3.076   4.780  0.5012  0.1768  0.4608
17734TIP3    H174617   3.248   3.140   4.801  0.8540  0.1997 -0.7026
17734TIP3    H274618   3.195   3.053   4.688  0.4480 -1.6561  0.8588
17735TIP3   OH274619   1.641   2.835   4.036  0.2553  0.0930  0.4055
17735TIP3    H174620   1.719   2.779   4.028  0.0185 -0.0766 -0.9256
17735TIP3    H274621   1.650   2.900   3.966  0.5378  1.7930  1.9503
17736TIP3   OH274622   2.501   5.875  16.341  0.0444  0.1031 -0.2916
17736TIP3    H174623   2.498   5.863  16.246 -0.5535 -0.3371 -0.2162
17736TIP3    H274624   2.460   5.961  16.356  1.1113  0.6724 -0.5155
17737TIP3   OH274625   0.332   4.405   0.820 -0.1939 -0.7858 -0.4374
17737TIP3    H174626   0.253   4.398   0.766 -0.3877 -1.1054 -0.1205
17737TIP3    H274627   0.373   4.487   0.792 -0.5670 -0.6854 -0.7015
17738TIP3   OH274628   2.953   0.441   0.037 -0.3599 -0.1518 -0.4596
17738TIP3    H174629   2.976   0.421   0.128 -1.3079 -1.3360 -0.4541
17738TIP3    H274630   2.867   0.401   0.024 -0.0025 -0.4961 -2.0414
17739TIP3   OH274631   2.641   0.341  14.270 -0.2734  0.3144  0.0567
17739TIP3    H174632   2.596   0.412  14.315 -0.8437 -0.1251  0.1902
17739TIP3    H274633   2.627   0.264  14.325  1.3376  0.3124  0.5366
17740TIP3   OH274634   4.443   6.165   5.882 -0.4255  0.0823  0.0864
17740TIP3    H174635   4.491   6.113   5.946  0.3190  1.3312  0.5719
17740TIP3    H274636   4.375   6.105   5.849 -0.1636 -0.9068  1.2590
17741TIP3   OH274637   4.539   3.642  16.587 -0.1900 -0.2347  0.4676
17741TIP3    H174638   4.631   3.659  16.568 -0.1130 -0.7407  0.3802
17741TIP3    H274639   4.539   3.559  16.635 -0.6686 -0.6784 -0.2753
17742TIP3   OH274640   3.907   5.324   4.168 -0.6469 -0.3951 -0.0594
17742TIP3    H174641   3.942   5.327   4.079  2.5901 -0.4281  1.0438
17742TIP3    H274642   3.856   5.244   4.172 -2.7458  0.7261 -2.4251
17743TIP3   OH274643   5.294   0.453  12.819 -0.3123  0.4424 -0.4543
17743TIP3    H174644   5.313   0.380  12.878  1.7563 -0.1746 -1.7484
17743TIP3    H274645   5.250   0.412  12.745 -2.4781  1.1382  0.3790
17744TIP3   OH274646   5.778   0.209   2.979  0.3423  0.0211 -0.9987
17744TIP3    H174647   5.841   0.215   2.908 -0.9137  0.1079 -2.1561
17744TIP3    H274648   5.693   0.219   2.936 -0.4043  1.6461  0.7127
17745TIP3   OH274649   3.230   2.821   2.757  0.1794 -0.9676 -0.1964
17745TIP3    H174650   3.226   2.902   2.706 -3.3834 -0.6108  0.3717
17745TIP3    H274651   3.287   2.842   2.831 -0.5087  1.0159 -0.1604
17746TIP3   OH274652   5.843   2.332   5.576 -0.3534 -0.4117  0.3960
17746TIP3    H174653   5.917   2.279   5.548  0.3255  1.1472 -0.8882
17746TIP3    H274654   5.882   2.409   5.618 -1.3019 -2.2072  5.2122
17747TIP3   OH274655   4.757   4.602   1.507 -0.0597 -0.3389  0.0947
17747TIP3    H174656   4.819   4.593   1.579  0.4604 -3.3832 -0.5776
17747TIP3    H274657   4.671   4.598   1.548  0.1694  1.3054  0.7931
17748TIP3   OH274658   1.213   2.576   4.566 -0.6594 -0.2484 -0.4244
17748TIP3    H174659   1.278   2.506   4.570 -2.0803 -1.5680  0.1754
17748TIP3    H274660   1.256   2.645   4.515  1.7094 -0.5071  1.0880
17749TIP3   OH274661   5.935   0.646  12.928 -0.5577 -0.5090  0.3825
17749TIP3    H174662   5.984   0.728  12.931  0.2766 -1.0260  1.2981
17749TIP3    H274663   5.844   0.673  12.915 -0.4365  0.6326  1.6528
17750TIP3   OH274664   5.521   2.788   2.704  0.6278 -0.0280  0.8810
17750TIP3    H174665   5.580   2.856   2.670  0.8993 -1.1574 -1.0094
17750TIP3    H274666   5.576   2.737   2.764  0.5790  1.0044  1.8604
17751TIP3   OH274667   3.824   0.333   2.272 -0.5214  0.2252  0.1394
17751TIP3    H174668   3.794   0.368   2.356  0.0050 -0.3488  0.5775
17751TIP3    H274669   3.918   0.316   2.285  0.0549  1.9794 -1.1844
17752TIP3   OH274670   1.138   3.094   5.755 -0.1685 -0.3288 -0.2736
17752TIP3    H174671   1.145   3.064   5.845  0.4492 -0.7955 -0.4742
17752TIP3    H274672   1.051   3.066   5.727 -0.5697  0.2755  0.3355
17753TIP3   OH274673   0.173   0.552   4.517  0.0820  0.2862  0.6552
17753TIP3    H174674   0.103   0.511   4.568 -0.5577  0.6101  0.0562
17753TIP3    H274675   0.229   0.592   4.582 -0.5169  0.3716  1.1300
17754TIP3   OH274676   1.515   0.949   4.066  0.0091 -0.0180  0.1693
17754TIP3    H174677   1.561   0.876   4.024 -0.1283  0.5342 -0.9704
17754TIP3    H274678   1.568   1.026   4.046  0.6621  0.1063  2.1616
17755TIP3   OH274679   0.226   1.018  13.500  0.0701  0.2899  0.2493
17755TIP3    H174680   0.262   1.009  13.412 -1.9405  1.0908 -0.7246
17755TIP3    H274681   0.136   0.986  13.493  0.2084 -0.7362  2.3222
17756TIP3   OH274682   2.334   3.475  11.464 -0.7334  0.1329  0.0293
17756TIP3    H174683   2.401   3.485  11.532 -0.9443 -0.9019  0.4101
17756TIP3    H274684   2.313   3.565  11.438  3.0461  0.5564 -2.3611
17757TIP3   OH274685   2.255   2.906  16.905 -0.2501 -0.1631  0.7782
17757TIP3    H174686   2.225   2.990  16.940 -0.0271  0.2952 -0.0979
17757TIP3    H274687   2.244   2.914  16.811  2.7234  0.1074  0.3590
17758TIP3   OH274688   4.700   4.554   4.985  0.3843 -0.2272 -0.7048
17758TIP3    H174689   4.615   4.511   4.984  0.2586  0.0193 -1.2839
17758TIP3    H274690   4.760   4.489   5.021 -0.2566  0.0057  0.8385
17759TIP3   OH274691   6.747   5.399   0.068  0.1724  0.2126  0.1653
17759TIP3    H174692   6.775   5.316   0.107 -0.0678  0.0190 -0.0740
17759TIP3    H274693   6.822   5.426   0.014 -0.2006 -0.4463 -0.6971
17760TIP3   OH274694   4.162   1.930  15.180  0.1024  0.7556 -0.6255
17760TIP3    H174695   4.156   1.835  15.166 -0.0160  0.4832  1.0310
17760TIP3    H274696   4.177   1.939  15.274  1.9173  2.3286 -0.9977
17761TIP3   OH274697   0.376   1.085  10.677  0.1789 -0.5741  0.4579
17761TIP3    H174698   0.284   1.111  10.678 -0.0832 -1.4977  0.5788
17761TIP3    H274699   0.421   1.161  10.639 -0.4932  0.3008  1.3648
17762TIP3   OH274700   6.273   4.568  14.600  0.2715  0.2936  0.6260
17762TIP3    H174701   6.368   4.569  14.596  0.3070 -0.2796  1.2199
17762TIP3    H274702   6.245   4.561  14.508  0.7886  0.8856  0.4213
17763TIP3   OH274703   6.551   0.368  11.077  0.0739  0.0021 -0.5334
17763TIP3    H174704   6.607   0.318  11.018 -0.2151  1.6486 -2.2877
17763TIP3    H274705   6.462   0.353  11.046 -0.0903  0.8156 -0.4886
17764TIP3   OH274706   6.364   3.937  16.812  0.2741 -0.1041 -0.2621
17764TIP3    H174707   6.395   3.926  16.723  1.3506  0.4077  0.0387
17764TIP3    H274708   6.440   3.967  16.861 -0.3787 -0.0678  0.7671
17765TIP3   OH274709   2.580   0.130   4.316  0.0551  0.5408  0.5338
17765TIP3    H174710   2.671   0.118   4.341  0.1800 -0.7988 -0.4095
17765TIP3    H274711   2.541   0.043   4.328 -0.8530  0.8643  0.0122
17766TIP3   OH274712   1.656   4.447  15.630 -0.7034 -0.4416 -0.3742
17766TIP3    H174713   1.620   4.529  15.596  0.5630 -0.2505 -1.3642
17766TIP3    H274714   1.598   4.422  15.702 -3.2678 -0.5836 -2.3208
17767TIP3   OH274715   3.457   2.255   1.036 -0.2319  0.5874  0.0956
17767TIP3    H174716   3.478   2.228   0.947  1.0501 -2.6244  1.2217
17767TIP3    H274717   3.364   2.278   1.034 -0.5032 -0.4930 -1.8240
17768TIP3   OH274718   5.677   0.538  11.474 -0.5119 -0.0652 -0.0188
17768TIP3    H174719   5.662   0.598  11.547  2.2081  0.9396 -0.2026
17768TIP3    H274720   5.729   0.467  11.512  0.1696  0.0226 -0.7731
17769TIP3   OH274721   5.178   3.202   3.763 -0.0064 -0.0568 -0.4803
17769TIP3    H174722   5.166   3.125   3.709 -0.6165  0.2819 -0.8408
17769TIP3    H274723   5.245   3.254   3.717  0.9072 -0.6772  0.1175
17770TIP3   OH274724   4.011   1.317  13.436 -0.2608  0.0017 -0.0870
17770TIP3    H174725   3.997   1.222  13.431 -1.6137  0.1276  0.8806
17770TIP3    H274726   4.069   1.328  13.512 -0.2971 -0.0398 -0.0523
17771TIP3   OH274727   0.324   5.840  11.452 -0.0629 -0.8923 -0.1787
17771TIP3    H174728   0.370   5.876  11.528 -1.4173 -0.7113  0.5794
17771TIP3    H274729   0.364   5.885  11.377  0.1546  0.1604  0.5392
17772TIP3   OH274730   6.628   1.827   0.978  0.3405 -0.2736  0.0362
17772TIP3    H174731   6.636   1.908   1.029  1.5323 -0.1421 -0.3218
17772TIP3    H274732   6.605   1.760   1.043  0.6767  0.1061  0.5600
17773TIP3   OH274733   4.255   2.964  15.530  0.3644 -0.2632 -0.4668
17773TIP3    H174734   4.311   3.033  15.564  0.8310 -0.8096 -0.1097
17773TIP3    H274735   4.310   2.886  15.531  0.2013 -0.4282 -1.9109
17774TIP3   OH274736   3.303   1.801   1.036 -0.0139  0.1092 -0.1946
17774TIP3    H174737   3.319   1.806   0.941  0.0402  1.8245 -0.1298
17774TIP3    H274738   3.221   1.753   1.043  0.6053 -1.1240 -1.0331
17775TIP3   OH274739   0.596   4.832  17.316 -0.0732  0.0310 -0.4858
17775TIP3    H174740   0.683   4.871  17.329  0.7331 -2.1233  1.2743
17775TIP3    H274741   0.541   4.873  17.383  0.0825  0.0559 -0.3713
17776TIP3   OH274742   1.713   0.511  15.625 -0.2473 -0.0371  0.4905
17776TIP3    H174743   1.756   0.556  15.698 -0.1450  1.9810 -0.7398
17776TIP3    H274744   1.635   0.563  15.607  0.5922  0.5369 -1.8726
17777TIP3   OH274745   0.861   6.614   3.467 -0.0445 -0.3428  0.5100
17777TIP3    H174746   0.783   6.641   3.516  1.4377 -0.4958  3.1249
17777TIP3    H274747   0.844   6.522   3.446 -0.1766 -0.6654  1.9383
17778TIP3   OH274748   6.482   2.254  10.634 -0.0197  0.1165 -0.1404
17778TIP3    H174749   6.477   2.196  10.710 -0.4655 -2.1357 -1.7995
17778TIP3    H274750   6.423   2.215  10.570 -0.1084  2.2762 -1.4668
17779TIP3   OH274751   2.771   5.038  14.768  0.8183  0.1515  0.0192
17779TIP3    H174752   2.795   5.070  14.854  0.8379 -0.0748  0.0970
17779TIP3    H274753   2.683   5.073  14.753  0.6708 -0.1065  0.2813
17780TIP3   OH274754   4.309   2.324   4.640  0.1916 -0.3210 -0.2157
17780TIP3    H174755   4.320   2.418   4.625  1.8754 -0.3451  0.6262
17780TIP3    H274756   4.258   2.294   4.565 -2.5743  1.6375  0.7305
17781TIP3   OH274757   2.220   4.149  11.832  0.0325  0.0435 -0.1624
17781TIP3    H174758   2.227   4.156  11.927  0.1985  2.5662 -0.2897
17781TIP3    H274759   2.178   4.230  11.805  0.6534 -0.2763 -2.3142
17782TIP3   OH274760   6.750   6.198   3.630  0.3906 -0.2416  0.4351
17782TIP3    H174761   6.683   6.130   3.639 -0.2271  0.3427  0.4050
17782TIP3    H274762   6.759   6.234   3.718 -0.4325  0.6762  0.1635
17783TIP3   OH274763   3.194   3.241   3.038 -0.5714  0.4248  0.7873
17783TIP3    H174764   3.148   3.161   3.062 -0.7323  0.5851  1.0182
17783TIP3    H274765   3.163   3.261   2.950  0.1057 -0.2285  0.3859
17784TIP3   OH274766   6.381   1.371   3.002 -0.2104  0.0142 -0.0427
17784TIP3    H174767   6.368   1.439   2.936  1.6858 -0.6344 -1.1609
17784TIP3    H274768   6.358   1.413   3.085 -1.5486  1.1969 -0.9752
17785TIP3   OH274769   2.546   0.649   2.676  0.3294 -0.2510 -0.7646
17785TIP3    H174770   2.480   0.716   2.695  1.6069  0.9034 -0.2241
17785TIP3    H274771   2.572   0.616   2.762  0.4412 -0.7096 -0.9728
17786TIP3   OH274772   1.710   1.068   4.837 -0.1841  0.8691  0.6148
17786TIP3    H174773   1.745   1.003   4.776 -0.0533  0.6481  0.9197
17786TIP3    H274774   1.779   1.133   4.846 -0.2668  0.9864  0.4037
17787TIP3   OH274775   4.186   5.646   0.972  0.3833 -0.3300 -0.2238
17787TIP3    H174776   4.228   5.668   1.055  0.6452 -1.6451  0.0131
17787TIP3    H274777   4.112   5.590   0.997 -0.4585  0.5201 -0.7675
17788TIP3   OH274778   5.516   4.519   3.530 -0.4009  0.0289  0.8235
17788TIP3    H174779   5.605   4.503   3.561  0.2662  0.5285 -0.7655
17788TIP3    H274780   5.502   4.613   3.544 -0.8174 -0.1058  1.3685
17789TIP3   OH274781   3.060   3.239   0.672 -0.1729  0.6237  0.2836
17789TIP3    H174782   3.087   3.288   0.750 -0.8373 -0.6774  1.3717
17789TIP3    H274783   3.136   3.183   0.652 -0.4413  0.0778  0.7526
17790TIP3   OH274784   6.292   1.353  15.119  0.0637  0.0990 -0.3202
17790TIP3    H174785   6.356   1.395  15.177 -0.3937  1.6403 -0.8989
17790TIP3    H274786   6.340   1.281  15.079  1.4597  1.2421 -0.7696
17791TIP3   OH274787   3.593   6.742  15.497  0.0023 -0.2029  0.0329
17791TIP3    H174788   3.522   6.783  15.547 -0.5435 -1.2804  0.1531
17791TIP3    H274789   3.631   6.679  15.558  1.2857  0.5767  0.0769
17792TIP3   OH274790   2.763   5.777   0.639  0.2487 -0.1214  1.0617
17792TIP3    H174791   2.848   5.753   0.674  0.9635 -0.0682 -0.5673
17792TIP3    H274792   2.775   5.865   0.604 -0.4039 -0.2113  0.5938
17793TIP3   OH274793   1.782   5.622  16.661 -0.3796 -0.0755 -0.1846
17793TIP3    H174794   1.705   5.634  16.717  0.3553  2.1378  0.4277
17793TIP3    H274795   1.776   5.692  16.597  0.7489 -0.3326 -0.5844
17794TIP3   OH274796   5.747   3.633   0.069  0.2123  0.5170 -0.2271
17794TIP3    H174797   5.690   3.710   0.061  1.3863  1.5552  0.9999
17794TIP3    H274798   5.800   3.635  -0.010 -0.2910  0.5052 -0.5736
17795TIP3   OH274799   6.053   3.648  15.986  0.2069  0.5436 -0.7974
17795TIP3    H174800   6.005   3.570  16.013  1.3559 -0.3493 -1.1970
17795TIP3    H274801   5.986   3.711  15.961 -0.7568 -0.6868 -1.4565
17796TIP3   OH274802   4.196   4.672  15.967  0.5885  0.0022 -0.5614
17796TIP3    H174803   4.239   4.602  15.918  0.3770 -0.2112 -0.4447
17796TIP3    H274804   4.180   4.741  15.902  1.8681  0.4485 -0.4450
17797TIP3   OH274805   1.295   3.593  13.462 -0.1554 -0.3738 -0.3152
17797TIP3    H174806   1.225   3.541  13.502  1.7236 -3.0542 -0.3051
17797TIP3    H274807   1.294   3.569  13.370 -0.6774  1.3291 -0.7848
17798TIP3   OH274808   6.024   5.964   5.790  0.0035  0.2426 -0.8157
17798TIP3    H174809   5.938   5.938   5.824  0.1153 -0.5592 -1.1289
17798TIP3    H274810   6.082   5.956   5.865  0.0272 -0.3833 -0.8963
17799TIP3   OH274811   3.935   3.812   5.958  0.2440  0.1654 -0.7163
17799TIP3    H174812   3.932   3.719   5.932 -0.4158 -0.5224  1.6090
17799TIP3    H274813   3.850   3.829   5.999  0.7914  1.4640 -0.0571
17800TIP3   OH274814   2.236   4.802  15.434 -0.4669 -0.0771  0.0558
17800TIP3    H174815   2.255   4.739  15.365  1.2770 -1.4185  1.6272
17800TIP3    H274816   2.322   4.838  15.457 -1.1228  0.9885  0.8963
17801TIP3   OH274817   0.337   5.543  17.231 -0.0736 -0.0901  0.0610
17801TIP3    H174818   0.261   5.602  17.230  0.8844  1.1876 -0.2801
17801TIP3    H274819   0.368   5.542  17.140 -0.5627 -1.8325 -0.1308
17802TIP3   OH274820   1.209   5.800   3.003  0.3602 -0.2904  0.4574
17802TIP3    H174821   1.210   5.757   2.917 -1.3110  0.9353 -0.2205
17802TIP3    H274822   1.174   5.733   3.062 -0.7942 -0.3819 -0.2995
17803TIP3   OH274823   4.294   4.939   1.480  0.0423  0.5050 -0.3431
17803TIP3    H174824   4.217   4.991   1.501  1.2704  1.6551  1.5990
17803TIP3    H274825   4.287   4.862   1.537  0.8593  1.1799  0.7145
17804TIP3   OH274826   3.882   5.061  11.523  0.0670  0.0275 -0.3354
17804TIP3    H174827   3.916   5.063  11.612 -1.3452  1.1476  0.2086
17804TIP3    H274828   3.961   5.060  11.468  1.0239 -3.3847  0.8522
17805TIP3   OH274829   3.904   3.364   2.976 -0.0419 -0.4746  0.3362
17805TIP3    H174830   3.826   3.314   3.001 -0.9561  0.2337 -0.9530
17805TIP3    H274831   3.939   3.316   2.900 -0.1273  0.0680 -0.0497
17806TIP3   OH274832   4.289   2.097  12.884 -0.1726  0.0557  0.0786
17806TIP3    H174833   4.350   2.043  12.833  1.9712  3.2256 -0.9784
17806TIP3    H274834   4.218   2.118  12.823 -0.5289 -0.7186  0.2105
17807TIP3   OH274835   4.711   4.463  12.149 -0.5879 -0.2753  0.2102
17807TIP3    H174836   4.801   4.471  12.118 -0.5967 -0.6841  0.0682
17807TIP3    H274837   4.719   4.425  12.236 -0.4696  2.3503  1.4424
17808TIP3   OH274838   4.037   0.500  13.561  0.0801 -0.6379 -0.3968
17808TIP3    H174839   4.093   0.578  13.560  0.4816 -0.8950  0.7982
17808TIP3    H274840   4.096   0.427  13.541  0.2618 -0.9461  1.1596
17809TIP3   OH274841   3.935   2.786  15.737  0.4892 -0.8300  0.1352
17809TIP3    H174842   3.900   2.852  15.678  3.9412  0.7685 -0.3887
17809TIP3    H274843   3.981   2.724  15.681  2.1261 -0.4016  0.9195
17810TIP3   OH274844   4.391   6.591   4.785  0.4154  0.3861  0.1339
17810TIP3    H174845   4.398   6.681   4.818  4.2454  0.5651 -0.6902
17810TIP3    H274846   4.396   6.600   4.690  0.1993 -0.7064  0.0066
17811TIP3   OH274847   4.286   6.144  17.033  0.3973 -0.3120  0.2559
17811TIP3    H174848   4.270   6.190  17.116  0.3819  0.0315  0.0647
17811TIP3    H274849   4.234   6.064  17.039 -0.1856  0.0654  0.2743
17812TIP3   OH274850   5.473   6.414  14.625  0.0448  0.1432  0.9483
17812TIP3    H174851   5.567   6.416  14.644 -0.1755 -1.7992  2.7155
17812TIP3    H274852   5.459   6.331  14.580 -1.0374 -0.5040  2.3941
17813TIP3   OH274853   3.243   1.703  16.393 -0.7488 -0.4292 -0.6608
17813TIP3    H174854   3.293   1.785  16.399 -0.9543 -0.3448 -0.0235
17813TIP3    H274855   3.282   1.657  16.318  0.1698 -0.2825 -0.2914
17814TIP3   OH274856   4.313   3.895  11.326 -0.2402 -0.1022  0.6837
17814TIP3    H174857   4.368   3.973  11.335 -1.4180  0.7309  0.8863
17814TIP3    H274858   4.317   3.874  11.232  2.3760 -1.5769  1.0150
17815TIP3   OH274859   0.729   6.633   2.386 -0.3244  0.1151  0.8433
17815TIP3    H174860   0.725   6.546   2.345  0.6295  0.8770 -1.0132
17815TIP3    H274861   0.756   6.616   2.476  1.2102 -1.4578  0.1493
17816TIP3   OH274862   4.491   1.550   5.135 -0.5275 -0.0007  0.5541
17816TIP3    H174863   4.502   1.590   5.222  0.1227 -1.2695  1.0760
17816TIP3    H274864   4.579   1.525   5.109 -0.5453  1.3621 -1.0041
17817TIP3   OH274865   3.361   5.530  17.001 -0.0603  0.2011  0.8304
17817TIP3    H174866   3.371   5.435  16.994 -2.2929 -0.0693  0.6341
17817TIP3    H274867   3.398   5.564  16.920  1.1898 -0.4229  1.1072
17818TIP3   OH274868   3.611   6.193  15.626  0.4246 -0.6997 -0.1182
17818TIP3    H174869   3.683   6.224  15.570  0.1293  1.0727  0.4370
17818TIP3    H274870   3.544   6.260  15.618  0.7307  0.1702  3.0651
17819TIP3   OH274871   1.800   4.050   2.851  0.0477 -0.8516  0.1877
17819TIP3    H174872   1.746   4.087   2.921  0.6439  0.3673  0.0215
17819TIP3    H274873   1.763   4.087   2.771  0.2016 -1.1996 -0.0475
17820TIP3   OH274874   1.036   4.940  15.950 -0.0800  0.3576  0.0322
17820TIP3    H174875   0.965   4.875  15.950  0.9842 -0.8341  0.9145
17820TIP3    H274876   1.071   4.937  15.861  1.1824 -1.7006  0.5357
17821TIP3   OH274877   3.903   4.584  11.785  0.6189  0.2848 -0.6862
17821TIP3    H174878   3.917   4.592  11.880  1.1092 -0.5027 -0.6764
17821TIP3    H274879   3.989   4.602  11.747  0.3473  0.9215 -1.0070
17822TIP3   OH274880   1.200   4.671  17.136 -0.3548  0.3934 -0.0026
17822TIP3    H174881   1.181   4.699  17.046  2.0588  0.6336 -0.5153
17822TIP3    H274882   1.215   4.576  17.129 -3.5830 -0.3179  0.8563
17823TIP3   OH274883   5.360   0.297  15.950  0.7010  0.0971 -0.4022
17823TIP3    H174884   5.286   0.353  15.925 -0.0823 -1.5470 -2.0245
17823TIP3    H274885   5.379   0.246  15.871  2.7344 -0.4674  0.3843
17824TIP3   OH274886   0.948   5.632   5.267  0.1196 -0.2035  0.5925
17824TIP3    H174887   0.889   5.574   5.219 -2.2652  0.6416  2.2969
17824TIP3    H274888   0.941   5.716   5.221  1.4068 -0.5121 -0.2192
17825TIP3   OH274889   5.151   0.576   6.635 -0.8274 -0.1899  0.6349
17825TIP3    H174890   5.105   0.548   6.714  1.2740 -0.1160  1.9622
17825TIP3    H274891   5.181   0.664   6.656  0.5218 -0.5130  0.1046
17826TIP3   OH274892   2.899   2.277   3.205  0.0094 -0.8053  0.0393
17826TIP3    H174893   2.935   2.191   3.229 -1.5506 -1.6413 -0.5388
17826TIP3    H274894   2.971   2.321   3.160  1.2683 -1.2674  1.5152
17827TIP3   OH274895   2.032   5.541  16.931  0.3791  0.0122  0.2315
17827TIP3    H174896   1.984   5.568  17.009  0.9466 -2.3785  1.4924
17827TIP3    H274897   2.076   5.621  16.902 -1.7770  1.5311  0.8747
17828TIP3   OH274898   2.931   1.178  16.448 -1.0468 -0.7077  0.2007
17828TIP3    H174899   2.910   1.251  16.507 -0.4495  0.3264 -0.8125
17828TIP3    H274900   2.873   1.191  16.373  2.4004  1.8850 -2.4031
17829TIP3   OH274901   5.999   6.231  16.183  0.1823 -0.5231  0.1608
17829TIP3    H174902   6.036   6.158  16.233 -0.1515 -0.3928  0.5956
17829TIP3    H274903   5.941   6.275  16.243  1.2968  0.8546  0.2791
17830TIP3   OH274904   3.220   1.011  12.237 -0.2634 -0.2574 -0.6224
17830TIP3    H174905   3.128   1.005  12.263 -0.2771  0.4712 -0.5040
17830TIP3    H274906   3.223   1.082  12.173  0.6031  1.4093  1.1815
17831TIP3   OH274907   5.224   1.285  13.588  0.2992  0.1320  0.4168
17831TIP3    H174908   5.283   1.232  13.534 -0.4206 -1.5515  1.2102
17831TIP3    H274909   5.249   1.264  13.678 -0.5879  0.4708  0.7552
17832TIP3   OH274910   6.552   5.903  17.302 -0.0697  0.1519  0.0723
17832TIP3    H174911   6.576   5.828  17.357  0.3043  0.5296  0.4345
17832TIP3    H274912   6.459   5.915  17.316  0.5703  2.3828  3.3672
17833TIP3   OH274913   4.007   3.007   4.282  0.3116  0.2495  0.3936
17833TIP3    H174914   3.930   3.035   4.233  0.5506 -1.6337 -1.1881
17833TIP3    H274915   3.972   2.950   4.350  0.2257  0.2306  0.3338
17834TIP3   OH274916   6.608   3.459   4.871 -0.4330  0.0627  0.4881
17834TIP3    H174917   6.566   3.544   4.858 -1.8451 -0.7180 -0.2634
17834TIP3    H274918   6.542   3.395   4.843  1.1605 -1.2389 -0.4471
17835TIP3   OH274919   3.264   6.351  14.540 -0.0966 -1.1537  0.0898
17835TIP3    H174920   3.223   6.301  14.470  1.6164 -1.6520 -0.6209
17835TIP3    H274921   3.240   6.305  14.620 -0.0952 -2.0241 -0.3980
17836TIP3   OH274922   4.642   2.550  14.341 -0.1103 -0.7279  0.1164
17836TIP3    H174923   4.703   2.624  14.339 -1.7158  0.7373  1.6081
17836TIP3    H274924   4.696   2.473  14.325  1.6195  0.7399 -1.6837
17837TIP3   OH274925   1.717   1.650  14.266  0.1780 -0.0845  0.4837
17837TIP3    H174926   1.716   1.714  14.338  1.7274  0.9238 -0.3534
17837TIP3    H274927   1.791   1.676  14.212  1.4763 -3.1771  0.6069
17838TIP3   OH274928   2.824   4.957   4.943  0.4788 -0.0547  0.4289
17838TIP3    H174929   2.887   4.908   4.891 -0.7697  1.6718 -3.0807
17838TIP3    H274930   2.758   4.986   4.879 -1.2494  2.2925  3.0325
17839TIP3   OH274931   2.517   1.923   6.144 -0.2612 -0.6447 -0.5787
17839TIP3    H174932   2.584   1.858   6.165  0.2673 -0.5507 -1.8842
17839TIP3    H274933   2.439   1.893   6.192  0.9336 -0.1662  1.8553
17840TIP3   OH274934   5.295   2.059  12.334  0.0195  0.0139 -0.5610
17840TIP3    H174935   5.385   2.033  12.312 -0.1296 -2.0821  1.0250
17840TIP3    H274936   5.289   2.150  12.305  2.8937  0.4756 -0.0351
17841TIP3   OH274937   1.181   1.739  15.833  0.2091 -0.0141  0.2602
17841TIP3    H174938   1.130   1.764  15.910  0.7833 -0.4215  0.7891
17841TIP3    H274939   1.120   1.747  15.760 -0.0657  1.3510  0.6177
17842TIP3   OH274940   6.731   5.291  15.903 -0.2551 -0.4284  0.2160
17842TIP3    H174941   6.652   5.282  15.957 -1.8758  2.0035 -1.4900
17842TIP3    H274942   6.743   5.386  15.896  2.4273 -0.7331 -0.2206
17843TIP3   OH274943   2.411   0.613   4.547 -0.1109  0.3413  0.1993
17843TIP3    H174944   2.491   0.593   4.499 -0.3810  3.2893 -1.7218
17843TIP3    H274945   2.341   0.597   4.484 -0.7147  1.5295  0.5534
17844TIP3   OH274946   6.668   5.547  13.200  0.1310  0.3523  0.2279
17844TIP3    H174947   6.693   5.622  13.147  1.0144  0.1268  0.3067
17844TIP3    H274948   6.657   5.476  13.138 -0.5215  0.4914  0.1745
17845TIP3   OH274949   4.054   4.440  13.866  0.4886 -0.0539 -0.2525
17845TIP3    H174950   4.074   4.359  13.818 -0.0676  0.5143 -1.4831
17845TIP3    H274951   4.097   4.428  13.951  0.3553 -1.6698 -0.3670
17846TIP3   OH274952   0.724   3.464  13.859 -0.0484  0.1295  0.0964
17846TIP3    H174953   0.732   3.557  13.840 -0.2204 -0.1325 -1.3789
17846TIP3    H274954   0.655   3.459  13.926  1.4746  1.2010  1.8438
17847TIP3   OH274955   4.925   1.162   3.443 -0.1073  0.0078  0.3099
17847TIP3    H174956   4.939   1.160   3.348 -0.2842  2.3536  0.1598
17847TIP3    H274957   4.850   1.220   3.454  1.2188  1.5138  1.9637
17848TIP3   OH274958   0.258   2.400   5.736  0.3822 -0.1098 -0.2318
17848TIP3    H174959   0.343   2.357   5.744  1.4305  2.0908  1.7224
17848TIP3    H274960   0.201   2.353   5.797  0.8283 -0.2420  0.0872
17849TIP3   OH274961   6.424   2.595   3.774 -0.2272  0.0839  0.2495
17849TIP3    H174962   6.432   2.685   3.742  1.4153 -0.2597 -0.4421
17849TIP3    H274963   6.335   2.569   3.751 -0.2596  1.0718 -0.8258
17850TIP3   OH274964   6.025   2.704   4.402 -0.2289 -0.0310  0.3208
17850TIP3    H174965   5.944   2.657   4.382  1.2547 -2.8186  0.4391
17850TIP3    H274966   6.037   2.763   4.327 -2.1788  0.2593  0.1789
17851TIP3   OH274967   6.268   3.255  13.076 -0.6167  0.1809  0.3543
17851TIP3    H174968   6.237   3.313  13.145 -1.0450 -1.1460  1.3049
17851TIP3    H274969   6.201   3.261  13.008 -0.5045  1.0048  0.2990
17852TIP3   OH274970   3.776   6.666  16.349 -0.4761  0.1221 -0.2510
17852TIP3    H174971   3.761   6.755  16.317 -2.0972 -0.4426 -1.1980
17852TIP3    H274972   3.851   6.674  16.408 -0.6170  2.1163 -0.2672
17853TIP3   OH274973   0.921   2.291   3.318 -0.2372  0.5409 -0.0527
17853TIP3    H174974   1.016   2.296   3.322 -0.2357  1.2458 -0.7518
17853TIP3    H274975   0.902   2.202   3.287  0.2100  0.5392 -0.3255
17854TIP3   OH274976   0.229   0.798   0.287 -0.4315 -0.1148  0.1044
17854TIP3    H174977   0.285   0.874   0.299  0.4631 -0.5177 -1.2682
17854TIP3    H274978   0.146   0.834   0.254 -0.1380  0.2853 -0.2038
17855TIP3   OH274979   3.188   2.735  12.587  0.4536  0.2569 -0.9042
17855TIP3    H174980   3.107   2.690  12.564  0.7470 -0.6651 -0.1492
17855TIP3    H274981   3.238   2.736  12.505  0.4801 -0.8734 -0.9154
17856TIP3   OH274982   3.887   4.921   6.452 -0.4132  0.3790  0.0877
17856TIP3    H174983   3.900   4.934   6.358 -0.0709  1.0284  0.2158
17856TIP3    H274984   3.943   4.847   6.474  0.5828  1.0800  0.0150
17857TIP3   OH274985   2.855   0.159  16.410  0.1163 -0.4597  0.0651
17857TIP3    H174986   2.895   0.186  16.327  2.1805  2.0700  1.7239
17857TIP3    H274987   2.869   0.064  16.414  4.1515 -0.0809 -0.5449
17858TIP3   OH274988   0.354   5.688  14.595  0.2644 -0.6030 -0.0310
17858TIP3    H174989   0.274   5.736  14.570  0.0481 -0.5288  0.7628
17858TIP3    H274990   0.333   5.650  14.680  0.1999 -2.6825 -0.9194
17859TIP3   OH274991   0.190   6.490  16.894  0.1054  0.1016  0.0715
17859TIP3    H174992   0.157   6.478  16.983  0.8585  0.1344  0.3629
17859TIP3    H274993   0.227   6.578  16.894 -1.0921  0.6262 -0.6691
17860TIP3   OH274994   5.815   4.202   3.145  0.2552 -0.2950  0.2630
17860TIP3    H174995   5.893   4.222   3.092 -0.5282  0.0714 -0.7739
17860TIP3    H274996   5.851   4.168   3.227  1.5710  1.4117  0.4690
17861TIP3   OH274997   4.039   6.375  13.647 -0.2077 -0.2887  0.0735
17861TIP3    H174998   4.109   6.312  13.669  1.1011  1.5860  1.6420
17861TIP3    H274999   4.028   6.366  13.553  1.5876 -1.2622 -0.0993
17862TIP3   OH275000   6.715   0.809  14.774 -0.0528  0.3348  0.1943
17862TIP3    H175001   6.724   0.877  14.842 -1.0845  2.4902 -1.6939
17862TIP3    H275002   6.627   0.773  14.788 -0.2676  0.7817  0.0230
17863TIP3   OH275003   4.735   0.615   1.796 -0.3391  0.3849  0.0563
17863TIP3    H175004   4.802   0.678   1.822 -0.6910 -0.0597  2.2097
17863TIP3    H275005   4.779   0.530   1.800 -0.7526  0.1878  0.4211
17864TIP3   OH275006   1.745   2.314  12.441  0.9725 -0.0814 -0.4001
17864TIP3    H175007   1.698   2.340  12.520 -0.4940  0.3054 -1.3661
17864TIP3    H275008   1.707   2.230  12.417 -1.1270  1.3678 -2.5783
17865TIP3   OH275009   3.898   3.218  11.594 -0.2859 -0.2753 -0.5354
17865TIP3    H175010   3.935   3.218  11.505 -1.0679  3.7205 -1.0742
17865TIP3    H275011   3.970   3.248  11.650 -0.1555 -1.5580  0.0037
17866TIP3   OH275012   6.723   1.218  11.728 -0.5965  0.5118 -0.3335
17866TIP3    H175013   6.715   1.222  11.823 -0.5574 -0.9078 -0.2539
17866TIP3    H275014   6.640   1.182  11.698 -0.8158  1.4608 -0.8951
17867TIP3   OH275015   1.442   3.494  16.517  0.1889  0.0317 -0.2823
17867TIP3    H175016   1.412   3.453  16.436 -1.5907  0.5962  0.0264
17867TIP3    H275017   1.534   3.469  16.525 -0.2696 -2.1496 -1.1471
17868TIP3   OH275018   1.446   5.652  12.553 -0.3187  0.2696  0.3179
17868TIP3    H175019   1.425   5.713  12.483  0.6893 -0.1714 -0.3962
17868TIP3    H275020   1.539   5.666  12.569  0.0879 -1.4767 -0.2877
17869TIP3   OH275021   4.772   2.857   0.333  0.2703  0.2946 -0.1410
17869TIP3    H175022   4.752   2.793   0.401  0.9477  1.6857  1.4419
17869TIP3    H275023   4.787   2.939   0.380  0.0749  1.4987 -2.0314
17870TIP3   OH275024   2.883   5.797   5.811 -0.2426 -0.3481  0.8893
17870TIP3    H175025   2.976   5.776   5.806 -0.3726 -0.7027 -0.6703
17870TIP3    H275026   2.863   5.798   5.905  1.2049 -0.7972  1.2255
17871TIP3   OH275027   3.977   1.388   4.969  0.3345  0.4653 -0.0658
17871TIP3    H175028   3.958   1.305   4.925 -0.5932 -0.3404  1.7332
17871TIP3    H275029   4.068   1.408   4.946  0.1677 -0.3644 -1.5638
17872TIP3   OH275030   2.947   4.851  12.012 -0.2213 -0.9993 -0.4050
17872TIP3    H175031   2.998   4.771  12.022  1.3915 -0.0855 -0.9448
17872TIP3    H275032   2.914   4.848  11.922  0.6670 -0.6209 -0.7562
17873TIP3   OH275033   3.159   5.076   2.427 -0.2560  0.1144 -0.0643
17873TIP3    H175034   3.155   5.117   2.513  0.2548  0.7543 -0.3365
17873TIP3    H275035   3.252   5.073   2.406 -0.4675  1.6863 -1.3937
17874TIP3   OH275036   5.829   4.814   2.505  0.0092  0.3734  0.0301
17874TIP3    H175037   5.800   4.864   2.429 -0.3039 -1.4565 -1.1189
17874TIP3    H275038   5.814   4.722   2.481  0.2686 -0.2864  2.1514
17875TIP3   OH275039   5.424   1.899   0.378  0.8458 -0.6375 -0.1274
17875TIP3    H175040   5.348   1.851   0.345  1.1540 -0.0205 -1.8500
17875TIP3    H275041   5.492   1.833   0.388  0.9011 -0.7756 -1.2893
17876TIP3   OH275042   6.553   2.786  14.370 -0.5235 -0.2181  0.2197
17876TIP3    H175043   6.615   2.764  14.439 -0.2106 -1.2843 -0.3682
17876TIP3    H275044   6.467   2.764  14.406 -0.4772  0.3670  0.6933
17877TIP3   OH275045   5.878   4.371  16.562 -0.3876  0.2186  0.4674
17877TIP3    H175046   5.948   4.362  16.498  0.8065  0.0962  1.7484
17877TIP3    H275047   5.903   4.448  16.614 -0.5865 -0.5050  1.6698
17878TIP3   OH275048   0.521   2.401   3.382 -0.4418 -0.2619  0.5749
17878TIP3    H175049   0.497   2.389   3.290  0.0115 -0.4458  0.4761
17878TIP3    H275050   0.609   2.437   3.379  0.1371 -1.5797  0.9488
17879TIP3   OH275051   2.826   2.593  16.188 -0.3672 -0.2696  0.0459
17879TIP3    H175052   2.772   2.563  16.115 -0.5750  0.6291 -0.1864
17879TIP3    H275053   2.868   2.673  16.155 -1.6486  1.0200  1.4080
17880TIP3   OH275054   4.702   1.725   6.770  0.1968  0.3254  0.2642
17880TIP3    H175055   4.713   1.642   6.725 -1.4850  0.6225 -0.7984
17880TIP3    H275056   4.643   1.706   6.843  1.5019  0.1919  1.3015
17881TIP3   OH275057   5.729   1.271   1.118  0.2815 -0.3463  0.5537
17881TIP3    H175058   5.816   1.247   1.150  0.5785 -0.4685 -0.3205
17881TIP3    H275059   5.683   1.303   1.195  0.8560 -0.9774  1.1685
17882TIP3   OH275060   3.937   1.082  14.047 -0.5196 -0.1254  0.0877
17882TIP3    H175061   3.886   1.074  14.127 -1.0394 -0.0890 -0.2330
17882TIP3    H275062   4.016   1.131  14.072  0.3054 -1.8440  1.0072
17883TIP3   OH275063   0.137   4.274   5.755 -0.2310 -0.0332 -0.3957
17883TIP3    H175064   0.160   4.226   5.675 -0.7009 -0.5365 -0.2361
17883TIP3    H275065   0.054   4.236   5.782  0.7659 -1.1214  1.3231
17884TIP3   OH275066   2.290   1.074  13.846  0.5648 -0.1625  0.3443
17884TIP3    H175067   2.331   1.003  13.895 -0.0475  0.8691  2.5029
17884TIP3    H275068   2.216   1.033  13.801  0.8052 -1.0611  0.7578
17885TIP3   OH275069   6.275   1.227  11.990  0.1946 -0.1673 -0.7040
17885TIP3    H175070   6.362   1.262  12.008 -0.5595  0.9929  0.9413
17885TIP3    H275071   6.291   1.145  11.943  2.0909  1.2029 -2.6841
17886TIP3   OH275072   2.877   3.943   5.653  0.1883  0.6237 -0.0190
17886TIP3    H175073   2.817   4.018   5.646  0.2075  0.6063 -0.4113
17886TIP3    H275074   2.854   3.901   5.736  0.8807  1.6614  0.7226
17887TIP3   OH275075   6.508   1.486  12.976 -0.4090  0.2300  0.0422
17887TIP3    H175076   6.496   1.420  12.908  0.6501 -0.4005  0.4310
17887TIP3    H275077   6.595   1.523  12.958  0.2826 -0.5759  1.5564
17888TIP3   OH275078   3.380   1.607  17.210 -0.3911  0.4784 -0.2601
17888TIP3    H175079   3.427   1.523  17.205 -1.0406  0.0680  0.2333
17888TIP3    H275080   3.317   1.604  17.138 -0.4903  0.4885 -0.1739
17889TIP3   OH275081   3.974   0.225  13.846 -0.2593  0.7614 -0.3737
17889TIP3    H175082   4.009   0.242  13.933  1.0139  0.9801 -0.9142
17889TIP3    H275083   4.050   0.221  13.789 -0.9664 -0.6974 -1.2846
17890TIP3   OH275084   0.018   3.589  12.205  0.0751 -0.4523 -0.0025
17890TIP3    H175085  -0.075   3.610  12.199 -0.0983 -0.1838  2.4632
17890TIP3    H275086   0.019   3.496  12.228  0.4246 -0.5112 -0.2550
17891TIP3   OH275087   5.915   4.500   2.736 -0.1702  0.0528 -0.4419
17891TIP3    H175088   5.820   4.494   2.743 -0.0410 -1.1878  0.7701
17891TIP3    H275089   5.938   4.435   2.669  0.0028 -1.9329  1.4220
17892TIP3   OH275090   6.504   1.722  13.852  0.2785 -0.4090  0.1285
17892TIP3    H175091   6.589   1.747  13.888 -0.3384  2.7497 -0.3873
17892TIP3    H275092   6.520   1.710  13.759  0.2389 -0.3011  0.1083
17893TIP3   OH275093   1.734   2.162  14.337  0.4781 -0.5039  0.5135
17893TIP3    H175094   1.707   2.235  14.392  4.1857 -0.4221  2.5195
17893TIP3    H275095   1.717   2.084  14.390 -3.0723 -1.2927 -1.4565
17894TIP3   OH275096   5.498   5.772  16.571 -0.1698  0.1245  0.6968
17894TIP3    H175097   5.457   5.690  16.546 -0.1095  0.6094 -1.1541
17894TIP3    H275098   5.432   5.839  16.553  0.3744  0.6311  0.5433
17895TIP3   OH275099   2.272   1.560   2.064  0.2181 -0.0596 -0.1843
17895TIP3    H175100   2.288   1.621   2.136  0.9846 -1.2220  0.6707
17895TIP3    H275101   2.263   1.475   2.107 -2.2619 -0.4020 -1.1958
17896TIP3   OH275102   0.117   3.979  17.146  0.2414  0.1614  0.0847
17896TIP3    H175103   0.155   4.029  17.218  0.5382  1.3270 -0.8347
17896TIP3    H275104   0.138   3.888  17.165  1.0936  0.5322  1.0029
17897TIP3   OH275105   1.657   4.977   3.435 -0.0564  0.2369 -0.0606
17897TIP3    H175106   1.667   5.041   3.364  1.0089  0.9903  0.7202
17897TIP3    H275107   1.728   4.999   3.496 -0.0522 -1.3168  0.5276
17898TIP3   OH275108   6.410   1.408  10.427 -0.3968 -0.1737 -0.2080
17898TIP3    H175109   6.405   1.342  10.497 -0.8371 -0.6929 -0.7109
17898TIP3    H275110   6.487   1.460  10.448 -0.7373 -0.0731  0.8726
17899TIP3   OH275111   5.464   3.747  12.435 -0.3711 -0.1415 -0.6451
17899TIP3    H175112   5.440   3.655  12.422  0.5773 -0.4392 -0.3878
17899TIP3    H275113   5.415   3.773  12.512 -2.3774  0.2480 -1.9826
17900TIP3   OH275114   1.924   3.603  14.510  0.3088 -0.5116  0.0222
17900TIP3    H175115   1.975   3.524  14.496  1.1678  0.0639 -0.1720
17900TIP3    H275116   1.892   3.628  14.423  0.1883 -0.5480  0.0560
17901TIP3   OH275117   6.729   4.095   0.324  0.0042  0.3323 -0.2492
17901TIP3    H175118   6.665   4.024   0.332  1.4079 -1.1810 -1.5529
17901TIP3    H275119   6.680   4.168   0.287 -1.7279  0.4590  2.0794
17902TIP3   OH275120   5.294   2.048   3.330 -0.1922  0.6131 -0.1392
17902TIP3    H175121   5.314   2.059   3.237 -0.0654 -0.1177 -0.2070
17902TIP3    H275122   5.358   1.983   3.360 -0.5442  0.4879  0.3449
17903TIP3   OH275123   0.666   6.644  11.010 -0.3784 -0.7172  0.1939
17903TIP3    H175124   0.597   6.578  11.012 -2.0407  0.9265  0.2255
17903TIP3    H275125   0.745   6.597  11.035 -1.7561 -2.3900  1.7141
17904TIP3   OH275126   6.737   2.040   3.278 -0.4273  0.1765 -0.6028
17904TIP3    H175127   6.799   2.093   3.327  1.0282  0.5405 -2.6974
17904TIP3    H275128   6.759   1.950   3.302 -1.1766  0.4008  0.9974
17905TIP3   OH275129   1.026   0.943   4.442  0.0373 -0.3356  0.3165
17905TIP3    H175130   0.994   0.853   4.438  0.4702 -0.5496  1.4260
17905TIP3    H275131   1.026   0.972   4.351 -0.6278 -1.2711  0.0038
17906TIP3   OH275132   2.655   5.272  15.537  0.5166  0.0804  0.0443
17906TIP3    H175133   2.600   5.216  15.482  0.1090 -0.7485  1.2743
17906TIP3    H275134   2.741   5.231  15.535  1.1191  1.2770 -1.7287
17907TIP3   OH275135   2.551   4.575  11.819  0.3360 -0.2572 -0.0433
17907TIP3    H175136   2.526   4.601  11.730 -0.1263 -1.6562 -0.3512
17907TIP3    H275137   2.536   4.653  11.872  1.3205  0.8255 -1.3049
17908TIP3   OH275138   3.813   2.035  15.454 -0.6086  0.7705  0.2897
17908TIP3    H175139   3.858   1.952  15.440 -1.8642 -0.2880  2.1133
17908TIP3    H275140   3.786   2.063  15.366  1.4944  0.2733 -0.5681
17909TIP3   OH275141   4.399   2.073  13.452 -0.0340 -0.0996  0.2881
17909TIP3    H175142   4.307   2.076  13.477 -0.4963 -0.2860 -1.2826
17909TIP3    H275143   4.400   2.100  13.360  1.4510 -0.3332  0.2076
17910TIP3   OH275144   6.541   0.973   3.936 -0.3405 -0.2618  0.5109
17910TIP3    H175145   6.553   0.888   3.978  1.7200 -0.5876 -0.5982
17910TIP3    H275146   6.605   1.030   3.978 -0.0729  0.1019 -0.3712
17911TIP3   OH275147   3.947   4.293   1.686  0.1638 -0.6729  0.0738
17911TIP3    H175148   3.907   4.207   1.675 -0.1233 -0.4927 -0.3297
17911TIP3    H275149   4.017   4.295   1.620  0.1007 -0.5546  0.0110
17912TIP3   OH275150   4.042   3.973   0.231 -0.2997  0.2227  0.2046
17912TIP3    H175151   3.965   4.013   0.190 -0.2495 -1.6851 -1.8908
17912TIP3    H275152   4.112   3.983   0.168  1.2474  1.8359  2.0471
17913TIP3   OH275153   4.449   1.103  11.236 -0.6025  0.1845  0.2357
17913TIP3    H175154   4.472   1.160  11.163  1.0290  0.6768  1.0974
17913TIP3    H275155   4.361   1.070  11.214 -1.3337  2.5059 -0.5809
17914TIP3   OH275156   1.819   3.822   6.693 -0.2281  0.2682 -0.0659
17914TIP3    H175157   1.737   3.860   6.662 -0.7863  0.5555  1.6637
17914TIP3    H275158   1.796   3.733   6.718 -0.3298  0.7474  1.6240
17915TIP3   OH275159   0.711   6.701   1.879  0.3230 -0.1013 -0.4724
17915TIP3    H175160   0.641   6.644   1.913 -0.5183  0.1685 -1.6781
17915TIP3    H275161   0.677   6.790   1.891 -0.2236 -0.0087 -2.4081
17916TIP3   OH275162   3.099   5.422   1.130 -0.6683  0.6274  0.0023
17916TIP3    H175163   3.060   5.502   1.096 -0.3764 -0.0153 -1.9807
17916TIP3    H275164   3.193   5.433   1.115 -0.6206 -0.0429 -0.2287
17917TIP3   OH275165   0.134   5.789   0.996 -0.2712 -0.6988  0.3054
17917TIP3    H175166   0.061   5.834   0.954 -0.0235  1.3455  1.9349
17917TIP3    H275167   0.093   5.731   1.060 -0.5148 -1.2867 -0.3670
17918TIP3   OH275168   4.009   3.579  16.042 -0.4051  0.3553  0.5613
17918TIP3    H175169   3.943   3.513  16.019 -0.1792 -0.0599  1.0856
17918TIP3    H275170   4.078   3.568  15.977 -1.1134  1.2181 -0.3881
17919TIP3   OH275171   1.672   1.438  11.315 -0.0574 -0.0561 -0.2373
17919TIP3    H175172   1.684   1.364  11.375 -0.5532 -0.5650 -0.7577
17919TIP3    H275173   1.689   1.515  11.369 -1.6397 -0.4405  0.9010
17920TIP3   OH275174   5.059   4.583  13.246  0.1501 -0.5836  0.9538
17920TIP3    H175175   5.030   4.577  13.155  1.3840  0.4553  0.4596
17920TIP3    H275176   4.987   4.627  13.291 -0.0913 -0.2646  0.2738
17921TIP3   OH275177   4.658   3.878  13.819  0.5644  0.1935 -0.7553
17921TIP3    H175178   4.645   3.834  13.903  1.9930  0.5727 -0.3109
17921TIP3    H275179   4.750   3.904  13.819  0.2740  1.3600 -1.8835
17922TIP3   OH275180   3.736   0.405   1.063  0.5846 -0.0382 -0.4941
17922TIP3    H175181   3.729   0.313   1.039 -0.2773 -0.2453  0.4859
17922TIP3    H275182   3.646   0.438   1.056  0.5264  0.2145  1.0894
17923TIP3   OH275183   3.287   2.647  13.983  0.4708  0.3204 -0.2276
17923TIP3    H175184   3.354   2.701  13.941  0.4183  1.0160  0.5401
17923TIP3    H275185   3.218   2.709  14.008 -0.4893 -0.3935 -1.0340
17924TIP3   OH275186   1.851   5.526  15.914 -0.2276  0.1427  0.3466
17924TIP3    H175187   1.889   5.600  15.962 -1.1084  0.6459  0.3016
17924TIP3    H275188   1.921   5.494  15.858  0.7775 -0.3288  1.8051
17925TIP3   OH275189   5.548   2.631   5.073 -0.6300  0.8258  0.3316
17925TIP3    H175190   5.563   2.560   5.135 -0.9392 -0.9219 -1.5185
17925TIP3    H275191   5.501   2.697   5.124  0.9352  0.3698  2.4737
17926TIP3   OH275192   1.734   1.442   0.762 -0.5658 -0.0983  0.0855
17926TIP3    H175193   1.737   1.347   0.748 -0.7765 -0.1395  0.3103
17926TIP3    H275194   1.647   1.468   0.731 -0.7995 -0.0952  0.7214
17927TIP3   OH275195   1.518   4.669  15.538 -0.4548 -0.5506  0.3350
17927TIP3    H175196   1.561   4.677  15.453 -0.8817  0.1113  0.1799
17927TIP3    H275197   1.517   4.758  15.573 -2.3299 -0.4205  0.0283
17928TIP3   OH275198   5.498   0.113  15.796 -0.3188 -0.2600  0.1730
17928TIP3    H175199   5.472   0.027  15.762 -1.1572 -0.5136  1.3716
17928TIP3    H275200   5.592   0.119  15.780 -0.5522 -0.6582 -1.4862
17929TIP3   OH275201   6.160   4.939   2.925  0.8274  0.1173  0.4881
17929TIP3    H175202   6.102   4.875   2.883  0.7325 -0.4063  1.3998
17929TIP3    H275203   6.212   4.974   2.853  0.0768 -0.1421 -0.1955
17930TIP3   OH275204   6.065   1.411  17.276  0.4071 -0.1716 -0.1745
17930TIP3    H175205   6.147   1.365  17.257  0.9789  0.6825  0.1124
17930TIP3    H275206   6.071   1.491  17.223  1.4098  1.6030  2.4070
17931TIP3   OH275207   0.803   5.743  11.606  0.1190 -0.1246 -0.1478
17931TIP3    H175208   0.777   5.675  11.668 -0.3293 -0.1655 -0.3758
17931TIP3    H275209   0.802   5.824  11.657 -2.3268  0.1870 -0.5592
17932TIP3   OH275210   4.313   3.749   0.770 -0.2306  0.6537 -0.2144
17932TIP3    H175211   4.336   3.669   0.816 -2.0458 -0.1372 -0.5931
17932TIP3    H275212   4.391   3.771   0.719  0.9325  0.1764  1.3013
17933TIP3   OH275213   0.535   3.068   0.208  0.6232 -0.6091 -0.3625
17933TIP3    H175214   0.545   3.163   0.217  0.6440 -0.6620  0.2182
17933TIP3    H275215   0.603   3.042   0.147  1.4618 -0.4209  0.4661
17934TIP3   OH275216   6.180   4.565   2.768 -0.2254  0.1312  0.3578
17934TIP3    H175217   6.088   4.539   2.762 -0.4682  1.0013  0.1567
17934TIP3    H275218   6.178   4.661   2.766  0.5723  0.2114  1.9817
17935TIP3   OH275219   3.099   4.805  17.324  0.5302  0.1982  0.1267
17935TIP3    H175220   3.016   4.758  17.332  0.1086  0.9862  0.4151
17935TIP3    H275221   3.103   4.861  17.401  2.8530 -2.1446  1.9352
17936TIP3   OH275222   3.060   3.508  14.734  0.7812  1.0479 -0.1971
17936TIP3    H175223   3.082   3.500  14.827 -1.1970  1.8657  0.4106
17936TIP3    H275224   3.080   3.422  14.697 -1.9934 -0.6948  1.8874
17937TIP3   OH275225   3.504   6.350  16.063  0.5575 -0.2316 -0.6653
17937TIP3    H175226   3.554   6.428  16.090  1.1277 -0.3919 -1.2519
17937TIP3    H275227   3.430   6.385  16.013 -0.8569  0.1205  1.5075
17938TIP3   OH275228   6.281   1.615   6.081  0.4490 -0.0575  0.1675
17938TIP3    H175229   6.225   1.566   6.142 -0.3247 -0.7206 -1.0265
17938TIP3    H275230   6.244   1.703   6.081 -1.8613 -0.8839 -1.9274
17939TIP3   OH275231   4.651   5.725   4.655  0.6051 -0.3356 -0.2411
17939TIP3    H175232   4.604   5.687   4.728 -0.9166  1.0740 -0.4315
17939TIP3    H275233   4.741   5.736   4.687  0.3170 -1.1013  0.8761
17940TIP3   OH275234   2.633   0.817   2.174 -0.1634  0.2885 -0.3581
17940TIP3    H175235   2.593   0.902   2.153  0.8500  0.7571 -0.4329
17940TIP3    H275236   2.626   0.811   2.269  4.1271  2.8057  0.3893
17941TIP3   OH275237   6.587   6.486  14.601 -0.0625 -0.1171 -0.1405
17941TIP3    H175238   6.565   6.577  14.619 -2.1606 -0.5351 -0.3298
17941TIP3    H275239   6.525   6.436  14.653  0.5127 -1.4405 -0.6860
17942TIP3   OH275240   3.651   1.747   1.319 -0.2383 -0.5141 -0.1869
17942TIP3    H175241   3.617   1.662   1.291 -0.9913 -0.9011  1.7574
17942TIP3    H275242   3.576   1.806   1.309 -0.9316 -0.9244  2.0870
17943TIP3   OH275243   2.553   0.743  13.356  0.5660 -0.4114 -0.0926
17943TIP3    H175244   2.627   0.686  13.336 -0.7487 -1.8464 -1.1184
17943TIP3    H275245   2.577   0.787  13.437  1.6775 -2.3521  0.6799
17944TIP3   OH275246   2.312   5.550  14.530  0.4700  0.0586 -0.1913
17944TIP3    H175247   2.389   5.503  14.496  0.0032 -0.7651 -0.1475
17944TIP3    H275248   2.345   5.636  14.556  1.2979 -0.1463 -0.5403
17945TIP3   OH275249   5.996   5.625   4.363  0.1515  0.7160 -0.3234
17945TIP3    H175250   6.056   5.687   4.321  1.0456  0.7113  0.8742
17945TIP3    H275251   5.949   5.677   4.428  0.0850  0.3821 -0.0993
17946TIP3   OH275252   3.066   3.794  13.296  0.1402 -0.5667  0.1336
17946TIP3    H175253   3.146   3.785  13.347 -0.3685 -0.0603  1.0521
17946TIP3    H275254   3.092   3.842  13.218  0.3263  1.7669  1.5450
17947TIP3   OH275255   2.448   0.074   1.576 -0.6503  0.4769 -0.6067
17947TIP3    H175256   2.511   0.075   1.504  0.6682  0.5371  0.4928
17947TIP3    H275257   2.487   0.132   1.642 -1.2571 -0.4402  0.5997
17948TIP3   OH275258   3.645   2.192   2.573 -0.0592  0.3576  0.3665
17948TIP3    H175259   3.644   2.122   2.508  0.8739  0.4375  0.2602
17948TIP3    H275260   3.600   2.265   2.529 -2.0678 -0.4853  0.8820
17949TIP3   OH275261   4.823   2.874  15.173  0.4180 -0.3413 -0.1737
17949TIP3    H175262   4.752   2.935  15.154 -0.6037 -1.7843 -1.2339
17949TIP3    H275263   4.901   2.929  15.183 -0.4519  1.1156 -1.1144
17950TIP3   OH275264   1.562   5.567  15.827  0.0452 -0.0020 -0.2842
17950TIP3    H175265   1.634   5.535  15.882 -1.2445 -2.1304  0.3089
17950TIP3    H275266   1.564   5.511  15.750 -1.4862 -0.7633  0.1718
17951TIP3   OH275267   6.123   0.469   1.784 -0.5841  0.0804 -0.2345
17951TIP3    H175268   6.050   0.531   1.792 -0.7132  0.0869 -1.3573
17951TIP3    H275269   6.179   0.506   1.717 -0.5975 -0.9537 -0.8398
17952TIP3   OH275270   2.342   3.693  12.647  0.0656  0.4776  0.3222
17952TIP3    H175271   2.346   3.625  12.714 -2.4228  0.0989  0.1947
17952TIP3    H275272   2.396   3.660  12.575  0.5476 -0.3917  1.0746
17953TIP3   OH275273   3.506   1.905   2.638 -0.6813  0.0917 -1.1246
17953TIP3    H175274   3.599   1.916   2.658 -0.5233  0.2829 -1.9211
17953TIP3    H275275   3.485   1.816   2.666 -0.5956  0.5004  0.3011
17954TIP3   OH275276   6.319   5.054  11.528 -0.4248 -0.0368 -0.0084
17954TIP3    H175277   6.251   5.045  11.462  0.7708 -2.2732 -1.0558
17954TIP3    H275278   6.392   5.003  11.494  1.2497  1.0333  1.7776
17955TIP3   OH275279   0.508   5.913   4.822  0.5651  0.5250 -0.4043
17955TIP3    H175280   0.604   5.910   4.819  0.5858 -0.7973  0.6503
17955TIP3    H275281   0.487   5.919   4.915 -0.3748 -1.2847 -0.4451
17956TIP3   OH275282   6.206   3.493  11.410  0.3040 -0.0647 -1.0301
17956TIP3    H175283   6.148   3.552  11.362  0.1826  0.6954  0.0272
17956TIP3    H275284   6.232   3.542  11.488 -1.6158 -2.2016  1.1092
17957TIP3   OH275285   3.892   4.637  17.297  0.4063 -0.9029  0.0672
17957TIP3    H175286   3.825   4.589  17.248  1.6535 -0.5025 -2.1909
17957TIP3    H275287   3.947   4.568  17.334  1.5697 -1.3260 -2.2701
17958TIP3   OH275288   2.868   3.641   5.379  0.3294  0.1054  0.0311
17958TIP3    H175289   2.863   3.654   5.284  0.4433  2.1507  0.2464
17958TIP3    H275290   2.916   3.718   5.410  0.5471 -0.6903  1.7180
17959TIP3   OH275291   2.717   5.639   5.407  0.3810  0.3614 -0.4748
17959TIP3    H175292   2.801   5.648   5.363  0.7774  0.3028  0.2628
17959TIP3    H275293   2.708   5.718   5.460  0.0480  0.2928 -0.4238
17960TIP3   OH275294   2.350   0.982  11.708  0.5069 -0.4022 -0.2187
17960TIP3    H175295   2.319   0.985  11.618  0.7133  0.9241 -0.2599
17960TIP3    H275296   2.349   1.073  11.738  1.1738 -0.7225  0.8673
17961TIP3   OH275297   0.773   5.713   1.618  0.0448  0.3055 -0.2681
17961TIP3    H175298   0.678   5.718   1.625  0.0742  1.3962 -0.3880
17961TIP3    H275299   0.792   5.745   1.530  0.5547  0.6877 -0.0267
17962TIP3   OH275300   1.741   6.482  15.349  0.4448  0.5980  0.6468
17962TIP3    H175301   1.691   6.460  15.270  0.1096  2.2451  0.3694
17962TIP3    H275302   1.750   6.398  15.395 -0.5567 -0.1493 -0.4426
17963TIP3   OH275303   3.054   4.416   2.501  0.8167 -0.6749 -0.8234
17963TIP3    H175304   3.056   4.359   2.424 -0.0069  0.3864 -1.6659
17963TIP3    H275305   3.056   4.505   2.465  1.5105 -0.1604  0.4348
17964TIP3   OH275306   1.323   0.668   2.643  0.3677 -0.2885  0.7497
17964TIP3    H175307   1.365   0.640   2.724  1.0981 -0.2360  0.3910
17964TIP3    H275308   1.322   0.589   2.588 -1.2055 -0.6495  1.2354
17965TIP3   OH275309   5.325   4.863   5.298 -0.3123  0.4377 -0.2933
17965TIP3    H175310   5.418   4.872   5.276  0.0466  0.6295  1.1555
17965TIP3    H275311   5.279   4.874   5.215  0.9708  0.0876 -1.0798
17966TIP3   OH275312   1.555   0.194   5.807 -0.1398 -0.3028 -0.0098
17966TIP3    H175313   1.504   0.255   5.861  0.2489  1.0399 -1.0841
17966TIP3    H275314   1.551   0.232   5.719  2.8334 -0.0382 -0.1066
17967TIP3   OH275315   6.649   3.813   4.248  0.3371  0.3050  0.5090
17967TIP3    H175316   6.738   3.829   4.215  1.0110 -2.2281  0.8995
17967TIP3    H275317   6.595   3.808   4.169  0.6349  1.2744  0.2332
17968TIP3   OH275318   4.024   4.413   4.595  0.3219 -0.4329  0.0936
17968TIP3    H175319   3.988   4.365   4.521  2.1802 -3.1640  0.8231
17968TIP3    H275320   3.967   4.389   4.668  0.1670 -0.0297  0.1063
17969TIP3   OH275321   1.736   0.497  12.142  0.7186  0.3910  0.6020
17969TIP3    H175322   1.742   0.444  12.063  1.8211  1.0979  0.1900
17969TIP3    H275323   1.661   0.461  12.190  1.8257 -1.9738  0.6855
17970TIP3   OH275324   5.920   3.171  13.895 -0.4418 -0.4847  0.6515
17970TIP3    H175325   6.011   3.146  13.909 -0.7923 -0.9733  2.3663
17970TIP3    H275326   5.870   3.106  13.945 -1.7082 -0.0398 -0.0014
17971TIP3   OH275327   2.480   4.181  16.982 -0.2633 -0.4695  0.3026
17971TIP3    H175328   2.403   4.127  16.966  0.2310 -0.9631 -0.5007
17971TIP3    H275329   2.539   4.161  16.909 -0.3430  1.6810 -0.4189
17972TIP3   OH275330   1.340   5.244   2.782 -0.1167  0.4976  0.0196
17972TIP3    H175331   1.286   5.280   2.712 -2.0722 -1.0573  0.6212
17972TIP3    H275332   1.281   5.187   2.831  1.8906 -0.6548  1.2568
17973TIP3   OH275333   0.960   3.465  12.574 -0.1433  0.2817 -0.2845
17973TIP3    H175334   0.972   3.404  12.500 -2.1806 -2.2017  1.2461
17973TIP3    H275335   0.905   3.535  12.538  0.0843 -0.1124 -1.4669
17974TIP3   OH275336   5.889   6.306  14.335 -0.1515 -0.0836  0.2788
17974TIP3    H175337   5.931   6.264  14.260  1.0356 -1.5463  1.6693
17974TIP3    H275338   5.796   6.289  14.323 -0.0740  0.4592 -1.2809
17975TIP3   OH275339   0.843   4.175   2.893 -0.0851 -0.2267 -0.0485
17975TIP3    H175340   0.874   4.206   2.978 -0.6735  0.6882 -0.1455
17975TIP3    H275341   0.901   4.103   2.870  0.7092  0.1762  0.6649
17976TIP3   OH275342   5.837   3.959   1.429  0.1482 -0.2709  0.6220
17976TIP3    H175343   5.849   3.942   1.335 -0.4087  2.6719 -0.0690
17976TIP3    H275344   5.742   3.957   1.442 -0.0887  2.9012  0.2212
17977TIP3   OH275345   4.503   0.016  12.636  0.2689 -0.0837  0.2813
17977TIP3    H175346   4.572   0.081  12.621  0.2981 -0.4084 -1.1813
17977TIP3    H275347   4.450   0.020  12.556 -1.9006  0.7159  1.6756
17978TIP3   OH275348   0.174   1.655   4.812 -0.6316 -0.2188  0.4848
17978TIP3    H175349   0.266   1.641   4.794 -0.6691  0.1671 -0.0283
17978TIP3    H275350   0.162   1.750   4.804 -0.9261 -0.1770  1.2565
17979TIP3   OH275351   2.181   1.057  11.019 -0.7921 -0.4375  0.4506
17979TIP3    H175352   2.150   0.990  11.080 -1.5474 -1.3942 -0.9251
17979TIP3    H275353   2.244   1.011  10.963 -1.2058  0.0470 -0.4183
17980TIP3   OH275354   0.463   1.456  13.185 -0.3446  0.1051 -0.4017
17980TIP3    H175355   0.416   1.481  13.265  1.8170 -0.5266  1.1413
17980TIP3    H275356   0.469   1.537  13.134  0.2836  1.0979  1.1838
17981TIP3   OH275357   5.060   5.492   1.479 -0.1760  0.3723 -0.3656
17981TIP3    H175358   5.115   5.414   1.490 -0.8375 -0.1136 -0.4134
17981TIP3    H275359   4.992   5.465   1.417 -0.2587  1.0733 -0.5899
17982TIP3   OH275360   6.084   2.795   5.550 -0.0947 -0.3320  0.2712
17982TIP3    H175361   6.021   2.821   5.618  0.1791 -1.0681  0.8072
17982TIP3    H275362   6.039   2.816   5.468 -0.7703 -0.2100  0.6617
17983TIP3   OH275363   2.637   3.571   5.091 -0.1809 -0.1104 -0.3610
17983TIP3    H175364   2.544   3.592   5.095 -0.1645 -0.2993  2.4914
17983TIP3    H275365   2.664   3.559   5.182  2.5480 -0.5241 -1.1216
17984TIP3   OH275366   6.538   4.300   5.138  0.3289  0.5013  0.0391
17984TIP3    H175367   6.617   4.344   5.105  0.5267 -0.2813 -0.5851
17984TIP3    H275368   6.466   4.358   5.113  0.6224  0.7000 -0.3682
17985TIP3   OH275369   3.547   1.973   0.353 -0.2247 -0.2377 -0.3752
17985TIP3    H175370   3.550   1.882   0.326 -2.4645 -0.7068  0.6923
17985TIP3    H275371   3.490   2.015   0.288 -0.9508 -0.0997  0.3394
17986TIP3   OH275372   0.957   6.122   0.457 -0.5710  0.3840 -0.0857
17986TIP3    H175373   0.959   6.046   0.399  3.5785  1.4078 -1.6723
17986TIP3    H275374   0.973   6.087   0.544 -0.7043 -0.7077 -0.4889
17987TIP3   OH275375   5.847   0.383  11.268  0.0694  0.4999 -0.2361
17987TIP3    H175376   5.782   0.320  11.236 -1.4400  1.2211  1.2793
17987TIP3    H275377   5.796   0.446  11.318  2.0579  0.4631  1.9944
17988TIP3   OH275378   4.407   4.781  13.616 -0.3487 -0.0139  0.3696
17988TIP3    H175379   4.323   4.795  13.573  0.4293  0.9200 -0.9299
17988TIP3    H275380   4.471   4.818  13.556  1.0010 -0.6569  1.3510
17989TIP3   OH275381   5.280   5.282  17.228  0.3292  0.4796  0.2348
17989TIP3    H175382   5.196   5.289  17.182  1.2594 -0.9960 -1.8535
17989TIP3    H275383   5.276   5.349  17.296 -2.7904  0.0011  0.6719
17990TIP3   OH275384   0.712   0.998  16.533 -0.2573 -0.1331 -0.5827
17990TIP3    H175385   0.740   0.951  16.611 -0.5753  0.1387 -0.2998
17990TIP3    H275386   0.673   0.931  16.477 -0.0834 -0.3183 -0.4822
17991TIP3   OH275387   1.514   4.948   0.877  0.1627  0.4702 -0.3198
17991TIP3    H175388   1.507   4.855   0.856  1.7764  0.8041 -2.6883
17991TIP3    H275389   1.607   4.962   0.895 -0.0926  1.6111  0.2393
17992TIP3   OH275390   4.689   6.108   6.208 -0.3249 -0.0978  0.6907
17992TIP3    H175391   4.777   6.094   6.244 -0.8229 -1.0154  1.5803
17992TIP3    H275392   4.684   6.203   6.195  1.2236 -0.1440 -0.5280
17993TIP3   OH275393   0.365   4.133  13.489 -0.0161  0.4968 -0.2137
17993TIP3    H175394   0.334   4.119  13.578 -0.8465  1.5420 -0.3053
17993TIP3    H275395   0.425   4.208  13.496 -0.6916  1.0914 -0.6283
17994TIP3   OH275396   5.762   2.155   1.670  0.3092  0.2912  0.2714
17994TIP3    H175397   5.808   2.230   1.706  0.5505  1.0154 -1.4469
17994TIP3    H275398   5.690   2.192   1.618  0.9037 -0.5812 -1.2591
17995TIP3   OH275399   6.014   5.960  14.002  0.4133  0.4599  0.0197
17995TIP3    H175400   6.051   6.048  14.007  0.6493  0.3556  0.1119
17995TIP3    H275401   5.927   5.968  14.042  0.4839  0.6251  0.1387
17996TIP3   OH275402   6.719   2.409   5.520  0.0895  0.2381 -0.2206
17996TIP3    H175403   6.658   2.397   5.593  1.5110 -0.1370  0.9411
17996TIP3    H275404   6.708   2.330   5.466  0.6963 -0.6126  0.8657
17997TIP3   OH275405   6.628   2.630  15.784  0.1189 -0.3351 -0.4910
17997TIP3    H175406   6.673   2.607  15.703  0.2563 -1.6102 -0.0769
17997TIP3    H275407   6.535   2.628  15.761  0.2051  0.8255 -0.9818
17998TIP3   OH275408   5.613   4.104  12.587 -0.1083  0.0002  0.0098
17998TIP3    H175409   5.537   4.073  12.635 -0.1464  1.0051  0.6192
17998TIP3    H275410   5.578   4.132  12.502 -0.4620  0.7087  0.3869
17999TIP3   OH275411   3.718   5.168   6.660 -0.0625  0.0125  0.8065
17999TIP3    H175412   3.658   5.161   6.735 -1.7998  0.0269 -0.5104
17999TIP3    H275413   3.686   5.244   6.612 -1.9931 -2.5217 -2.3667
18000TIP3   OH275414   4.628   2.895   4.107  0.0040  0.1821  0.1259
18000TIP3    H175415   4.535   2.873   4.115 -0.2919  1.6907  1.0750
18000TIP3    H275416   4.646   2.886   4.013 -0.7679 -1.3088  0.0850
18001TIP3   OH275417   0.497   6.008   5.287  0.2415  0.1200 -0.0240
18001TIP3    H175418   0.500   5.937   5.223  0.7820  1.0036 -1.0171
18001TIP3    H275419   0.514   6.087   5.235 -0.1724  0.9525  1.0809
18002TIP3   OH275420   3.541   3.645   3.451 -0.2726 -0.3331 -0.1556
18002TIP3    H175421   3.456   3.624   3.490 -0.4570  0.6649  0.0314
18002TIP3    H275422   3.575   3.716   3.506  0.3516 -0.2271 -0.6659
18003TIP3   OH275423   3.049   5.614  16.872 -0.0031  0.4982  0.1760
18003TIP3    H175424   3.132   5.619  16.918 -0.6848  0.7638  1.4209
18003TIP3    H275425   3.068   5.645  16.784  1.5584 -1.0005 -0.0670
18004TIP3   OH275426   3.601   2.417  15.088 -0.1281  0.2581 -0.3149
18004TIP3    H175427   3.599   2.513  15.091 -0.3745  0.2343  2.1296
18004TIP3    H275428   3.647   2.397  15.007  0.6378  2.4516 -0.4948
18005TIP3   OH275429   3.816   3.964   3.198  0.2164 -0.1759  0.2622
18005TIP3    H175430   3.882   4.030   3.175  0.3870 -0.5160 -0.2257
18005TIP3    H275431   3.867   3.884   3.213 -0.1287 -0.5775 -0.6581
18006TIP3   OH275432   4.671   3.013   4.780 -0.3639 -0.1405 -0.0811
18006TIP3    H175433   4.657   3.057   4.863 -0.2461 -1.2570  0.5536
18006TIP3    H275434   4.603   2.945   4.776 -0.6575  0.1883 -1.1124
18007TIP3   OH275435   0.883   5.213  12.465  0.2258 -0.9784  0.4419
18007TIP3    H175436   0.940   5.202  12.390  1.6322 -2.8998  1.6960
18007TIP3    H275437   0.843   5.127  12.479  0.0860 -0.7158  1.9218
18008TIP3   OH275438   4.640   2.140   2.410  0.1501 -0.1038 -0.0473
18008TIP3    H175439   4.709   2.096   2.461 -0.7635  0.2408  1.5572
18008TIP3    H275440   4.653   2.233   2.428 -0.5855 -0.0215  0.0653
18009TIP3   OH275441   5.155   6.763  15.571 -0.0516  0.1587 -0.0616
18009TIP3    H175442   5.085   6.704  15.598  0.0221  0.1409  0.0935
18009TIP3    H275443   5.129   6.794  15.485 -0.3698  0.3451  0.1029
18010TIP3   OH275444   0.282   3.626  13.215  0.2840  0.1056  0.8201
18010TIP3    H175445   0.367   3.637  13.257 -0.0543 -0.3919  1.6651
18010TIP3    H275446   0.245   3.548  13.255 -0.2165 -0.1802 -0.1557
18011TIP3   OH275447   0.388   5.646  16.167  0.7668 -0.1717  0.0921
18011TIP3    H175448   0.392   5.551  16.153  0.9756 -0.0519 -0.6949
18011TIP3    H275449   0.297   5.662  16.193  0.2252 -0.3682 -1.5683
18012TIP3   OH275450   5.622   0.484   0.794  0.1067  0.7187  0.0801
18012TIP3    H175451   5.579   0.558   0.836  0.4746 -0.2565  2.2864
18012TIP3    H275452   5.626   0.509   0.701  1.3985  4.0719  0.8738
18013TIP3   OH275453   2.993   1.839  16.305  0.2929 -0.2455 -0.4052
18013TIP3    H175454   2.933   1.769  16.329 -0.7179  0.9107  0.6429
18013TIP3    H275455   3.079   1.806  16.327 -0.1693 -1.1458  0.0878
18014TIP3   OH275456   0.234   0.610  17.229 -0.1827  0.2685 -0.4161
18014TIP3    H175457   0.175   0.536  17.243  0.8304 -0.6532 -0.8465
18014TIP3    H275458   0.193   0.662  17.159  0.4129 -1.4192 -2.1172
18015TIP3   OH275459   5.124   0.718   0.626  0.4229 -0.3370 -0.0735
18015TIP3    H175460   5.085   0.674   0.702 -0.5646 -1.3012 -1.1235
18015TIP3    H275461   5.091   0.808   0.632 -1.5936 -0.9904 -0.6311
18016TIP3   OH275462   3.445   2.454  14.448  0.2376  0.7227 -0.1100
18016TIP3    H175463   3.417   2.511  14.376  2.5380  2.1257  0.0084
18016TIP3    H275464   3.485   2.379  14.404  0.5167  0.9739 -0.2859
18017TIP3   OH275465   0.894   1.155  16.372 -0.1100  0.5325  0.2487
18017TIP3    H175466   0.883   1.087  16.306  0.1512  0.5959  0.1362
18017TIP3    H275467   0.853   1.120  16.451 -0.6229  0.5482 -0.0084
18018TIP3   OH275468   0.977   4.219  11.358  0.0186 -0.3803  0.6937
18018TIP3    H175469   0.935   4.234  11.274 -2.0945  1.2308  1.9389
18018TIP3    H275470   1.041   4.150  11.341  0.4736  0.6459 -2.4494
18019TIP3   OH275471   3.273   4.919  12.624  0.3013 -0.3824  0.3658
18019TIP3    H175472   3.208   4.921  12.694  0.0437  0.1076  0.1190
18019TIP3    H275473   3.327   4.997  12.639 -1.0517  0.9416 -1.1715
18020TIP3   OH275474   4.053   2.472   0.997  0.4323  0.5188 -0.0645
18020TIP3    H175475   4.011   2.466   1.083  0.0259  0.0603 -0.2983
18020TIP3    H275476   4.092   2.386   0.983  0.5369  0.6070 -0.3233
18021TIP3   OH275477   1.471   2.758   1.982  0.3818 -0.7965 -0.5205
18021TIP3    H175478   1.525   2.684   2.011  0.4540 -1.3727 -2.0225
18021TIP3    H275479   1.430   2.791   2.062  2.0397 -1.0910  0.4810
18022TIP3   OH275480   3.112   1.296   2.943 -0.1653  0.3501  0.1835
18022TIP3    H175481   3.182   1.342   2.989  1.5545 -1.7507 -0.2232
18022TIP3    H275482   3.069   1.243   3.010 -0.8247  0.9678  0.2607
18023TIP3   OH275483   1.174   1.737  15.533 -0.7994 -0.0027  0.3928
18023TIP3    H175484   1.268   1.720  15.540 -0.8885  0.0775  2.1253
18023TIP3    H275485   1.133   1.653  15.553 -1.1070  0.4394  1.7242
18024TIP3   OH275486   5.858   3.375  14.507  0.2445  0.0578 -0.0727
18024TIP3    H175487   5.880   3.437  14.576 -0.1198  1.0326 -0.8136
18024TIP3    H275488   5.768   3.347  14.528  0.0111  0.6023 -0.3143
18025TIP3   OH275489   0.264   3.717   4.316  0.4693  0.1288  0.4831
18025TIP3    H175490   0.210   3.787   4.353  1.6493  1.6439 -0.5025
18025TIP3    H275491   0.241   3.715   4.223  2.0048  0.8023  0.0429
18026TIP3   OH275492   4.794   5.966   3.629 -0.4749 -0.5434  0.2284
18026TIP3    H175493   4.819   5.904   3.560 -1.2204 -1.6840  0.9435
18026TIP3    H275494   4.821   6.051   3.595  3.6062 -1.4880  0.5546
18027TIP3   OH275495   5.967   4.800  12.577  0.2125 -0.5286 -0.6806
18027TIP3    H175496   5.903   4.835  12.639 -0.2886 -1.5868 -0.5699
18027TIP3    H275497   5.965   4.861  12.504  0.3156  0.3712  0.0449
18028TIP3   OH275498   2.096   5.970   5.810 -0.2705 -0.5253  0.4021
18028TIP3    H175499   2.122   5.980   5.719 -0.6703 -0.7209  0.2664
18028TIP3    H275500   2.157   6.026   5.858  1.5713 -2.3285  0.2847
18029TIP3   OH275501   0.668   1.177   5.040 -0.9214 -0.0440 -0.4205
18029TIP3    H175502   0.763   1.184   5.050 -0.8759 -0.3232 -0.6481
18029TIP3    H275503   0.642   1.259   4.998 -0.3918 -1.1153 -3.0111
18030TIP3   OH275504   3.186   3.309  14.305 -0.2791 -0.0948  0.2536
18030TIP3    H175505   3.112   3.298  14.244  0.0074  0.8934 -0.2933
18030TIP3    H275506   3.210   3.401  14.297  0.1432 -0.0846  1.4500
18031TIP3   OH275507   1.248   3.168  14.265 -0.6078  0.0154  0.1521
18031TIP3    H175508   1.184   3.238  14.251 -0.6987  0.1323  1.0951
18031TIP3    H275509   1.217   3.123  14.343 -0.4139 -0.9359 -0.3103
18032TIP3   OH275510   3.444   5.818  13.259 -0.6483  0.0105  0.5368
18032TIP3    H175511   3.484   5.758  13.323 -1.4947 -0.5687  0.5379
18032TIP3    H275512   3.519   5.857  13.214 -0.0590 -0.8872  0.6926
18033TIP3   OH275513   3.851   3.475  11.870 -0.4374 -0.1825 -0.0560
18033TIP3    H175514   3.885   3.538  11.933 -1.3504 -0.5198  0.8077
18033TIP3    H275515   3.926   3.453  11.815  0.9495 -1.3599  2.1567
18034TIP3   OH275516   3.607   3.779   0.614 -0.0170 -0.0851  0.4162
18034TIP3    H175517   3.571   3.866   0.632  0.0654  0.1339 -0.4232
18034TIP3    H275518   3.542   3.737   0.558  0.8414  0.1882 -0.8318
18035TIP3   OH275519   3.462   2.223   4.586 -0.3121 -0.0262 -0.1959
18035TIP3    H175520   3.427   2.301   4.630 -0.6905  0.5711 -1.5115
18035TIP3    H275521   3.481   2.162   4.658 -0.9810  0.8778  0.7875
18036TIP3   OH275522   4.621   5.235  12.420 -0.1911  0.1350 -0.1472
18036TIP3    H175523   4.604   5.246  12.326  0.3618 -0.7176 -0.3635
18036TIP3    H275524   4.695   5.174  12.423 -0.6384 -0.3699  0.8591
18037TIP3   OH275525   5.448   3.766  13.649  0.9190  1.0669  0.1063
18037TIP3    H175526   5.375   3.709  13.626 -0.3569  2.5193  0.3713
18037TIP3    H275527   5.526   3.717  13.624 -0.1629 -0.2729 -0.7822
18038TIP3   OH275528   1.964   4.278   4.588  0.0967  0.1832 -0.2161
18038TIP3    H175529   1.947   4.372   4.580  0.4617  0.3734  1.0661
18038TIP3    H275530   1.882   4.241   4.620  0.1211  0.1409 -0.2018
18039TIP3   OH275531   6.638   5.559  13.773  0.6004 -0.3840  0.1241
18039TIP3    H175532   6.649   5.584  13.681  1.1549  0.0081  0.2969
18039TIP3    H275533   6.704   5.491  13.788  0.0293 -0.9716  0.0417
18040TIP3   OH275534   4.264   3.764   3.181  0.1217 -0.2641  0.2622
18040TIP3    H175535   4.174   3.735   3.192  0.2877 -0.3229  1.5193
18040TIP3    H275536   4.261   3.859   3.192 -0.1040  0.0417 -1.8886
18041TIP3   OH275537   6.659   2.891  12.147 -0.1877  0.7287 -0.1895
18041TIP3    H175538   6.714   2.913  12.223  1.2965  1.5040 -1.4298
18041TIP3    H275539   6.639   2.798  12.158 -0.4485  0.9487  1.4077
18042TIP3   OH275540   5.016   4.515  13.634  0.2529  0.2968 -0.4489
18042TIP3    H175541   5.066   4.456  13.578 -1.0198  0.0316 -1.3515
18042TIP3    H275542   4.926   4.507  13.602 -0.0277  2.3556 -0.2569
18043TIP3   OH275543   0.697   1.680   2.327 -0.0958 -0.5505  0.1001
18043TIP3    H175544   0.619   1.734   2.340 -0.3083 -0.5747 -1.0154
18043TIP3    H275545   0.770   1.742   2.336 -0.2363 -0.4881  0.9211
18044TIP3   OH275546   5.849   0.733  16.527  0.5220  0.5805  0.4217
18044TIP3    H175547   5.831   0.652  16.576  0.8061  1.3260  1.8127
18044TIP3    H275548   5.767   0.782  16.530 -0.1361 -0.2807 -1.7564
18045TIP3   OH275549   5.620   1.942  14.493 -0.2895 -0.8423 -0.1036
18045TIP3    H175550   5.673   2.004  14.444 -1.2581  0.8744  0.9072
18045TIP3    H275551   5.634   1.858  14.449  1.1307  0.0548 -1.4735
18046TIP3   OH275552   5.931   2.081   6.044 -0.0406  0.2247  0.5728
18046TIP3    H175553   5.964   2.004   6.090 -1.6380 -0.4087  0.7066
18046TIP3    H275554   5.917   2.146   6.113  1.3948  0.7007  0.4493
18047TIP3   OH275555   5.242   5.329  11.833  0.3434 -0.5678  0.1486
18047TIP3    H175556   5.160   5.298  11.871 -0.4882  0.3553 -0.8015
18047TIP3    H275557   5.245   5.288  11.747 -0.8643  1.9475 -1.2034
18048TIP3   OH275558   6.605   6.370   0.965 -0.0485  0.1920 -0.3501
18048TIP3    H175559   6.526   6.340   0.919  1.7128 -2.4495 -1.9449
18048TIP3    H275560   6.604   6.321   1.047 -0.1689  0.3164 -0.2767
18049TIP3   OH275561   5.999   3.674   0.439 -0.4429  0.1339 -0.5410
18049TIP3    H175562   6.026   3.588   0.472 -0.2432  0.0745 -0.8537
18049TIP3    H275563   5.982   3.726   0.517  4.2647  1.4331 -0.0782
18050TIP3   OH275564   4.674   3.281  14.995  0.3832 -0.1474 -0.3470
18050TIP3    H175565   4.686   3.187  14.986  0.7238 -0.0470 -0.9839
18050TIP3    H275566   4.581   3.292  15.012  0.1454 -0.5367 -1.3300
18051TIP3   OH275567   2.182   2.647  17.007 -0.2628  0.6090 -0.1253
18051TIP3    H175568   2.261   2.628  17.057  0.0971  0.2872 -0.8056
18051TIP3    H275569   2.200   2.732  16.966  0.1047  0.1194 -1.0040
18052TIP3   OH275570   2.765   4.495  16.179 -0.5925 -0.2475  0.2246
18052TIP3    H175571   2.778   4.587  16.156 -0.5118 -0.2127  0.4063
18052TIP3    H275572   2.676   4.476  16.150 -0.3634 -0.3105 -0.4527
18053TIP3   OH275573   0.863   5.768  15.429 -0.2366  0.0098 -0.6595
18053TIP3    H175574   0.939   5.715  15.403  0.4139 -1.1185  2.9068
18053TIP3    H275575   0.866   5.845  15.372  5.1539  1.2899  0.7956
18054TIP3   OH275576   4.542   6.109   0.068  0.2597 -0.0457 -0.0711
18054TIP3    H175577   4.530   6.113   0.163  1.7478 -2.6749  0.3226
18054TIP3    H275578   4.635   6.090   0.056 -0.0623 -0.5811 -2.0318
18055TIP3   OH275579   3.162   5.308  13.498 -0.5260 -0.3594 -0.2484
18055TIP3    H175580   3.142   5.399  13.521  0.7624 -0.8507  3.6553
18055TIP3    H275581   3.097   5.256  13.546  2.7714 -1.5274  3.5776
18056TIP3   OH275582   1.978   4.661  14.487 -0.8262  0.4639  0.0131
18056TIP3    H175583   2.057   4.611  14.470 -1.2560  0.1188 -1.0793
18056TIP3    H275584   1.963   4.652  14.581 -0.7369 -1.2507 -0.1077
18057TIP3   OH275585   4.422   2.279   2.679  0.3280  0.1661  0.3655
18057TIP3    H175586   4.354   2.253   2.740  1.2408 -1.4453  0.7580
18057TIP3    H275587   4.440   2.199   2.628  1.3211  0.7905 -0.2957
18058TIP3   OH275588   0.685   5.561   6.364 -0.0180  0.4111  0.1919
18058TIP3    H175589   0.753   5.505   6.401 -1.1859 -2.4433 -1.6557
18058TIP3    H275590   0.603   5.523   6.396 -0.8802  0.3583 -1.9541
18059TIP3   OH275591   3.669   6.745  12.904 -0.5649 -0.0781 -0.3291
18059TIP3    H175592   3.614   6.745  12.982  0.4133 -0.0977  0.3668
18059TIP3    H275593   3.753   6.712  12.933 -0.4110 -0.8542 -1.5619
18060TIP3   OH275594   3.370   4.486   4.359  0.1288  0.2754 -0.1267
18060TIP3    H175595   3.447   4.480   4.416 -0.1714 -0.6669  0.1831
18060TIP3    H275596   3.298   4.508   4.418 -0.0337  0.1221 -0.2696
18061TIP3   OH275597   0.613   0.351  13.783 -0.4420  0.1989 -0.4188
18061TIP3    H175598   0.537   0.294  13.778  0.3165 -0.7423 -1.7863
18061TIP3    H275599   0.668   0.324  13.710  0.4463  1.9670 -0.4544
18062TIP3   OH275600   1.180   1.340  11.615 -0.6219 -0.1502 -0.2224
18062TIP3    H175601   1.206   1.266  11.560 -2.0605 -0.4371 -0.5406
18062TIP3    H275602   1.162   1.411  11.553  1.9911  0.9403  0.1281
18063TIP3   OH275603   5.190   4.602   5.727 -0.3390  0.1548  0.0970
18063TIP3    H175604   5.128   4.660   5.683 -1.3140 -0.7945  0.1857
18063TIP3    H275605   5.192   4.633   5.817 -1.1199 -0.1545  0.2247
18064TIP3   OH275606   0.848   4.518   4.615 -0.2118 -0.3158  0.8003
18064TIP3    H175607   0.937   4.514   4.650  0.5926  1.1902 -0.8911
18064TIP3    H275608   0.859   4.506   4.521 -1.3880  3.0557  0.1216
18065TIP3   OH275609   2.385   4.436   4.417 -0.0824 -0.5244 -0.2351
18065TIP3    H175610   2.378   4.470   4.506  1.5403 -0.0849 -0.2565
18065TIP3    H275611   2.322   4.363   4.415  0.0406 -0.7141  1.3472
18066TIP3   OH275612   1.340   5.954  13.002 -0.5853 -0.0805  1.2700
18066TIP3    H175613   1.367   6.022  12.940 -1.3502  0.0613  1.0720
18066TIP3    H275614   1.330   5.876  12.948 -1.5260  0.1098  1.1493
18067TIP3   OH275615   3.750   5.317   3.089  0.0169 -0.3072  0.2050
18067TIP3    H175616   3.687   5.294   3.157 -1.0502  1.2404 -0.2014
18067TIP3    H275617   3.714   5.397   3.049  2.0632  0.4217 -0.2770
18068TIP3   OH275618   5.986   6.581  14.231 -0.5721  0.4505  0.2095
18068TIP3    H175619   5.908   6.635  14.245  0.7489  2.5179  0.0866
18068TIP3    H275620   5.997   6.533  14.314 -1.1224  1.3122  0.7985
18069TIP3   OH275621   1.209   4.940  11.093 -0.5869 -0.3388  0.5263
18069TIP3    H175622   1.245   4.853  11.108  0.0852  0.0941  1.4442
18069TIP3    H275623   1.276   5.001  11.124 -1.0808  0.5176 -0.0237
18070TIP3   OH275624   4.756   1.385   3.780  0.1283  0.0953  0.3048
18070TIP3    H175625   4.741   1.376   3.875 -0.5767  1.3521  0.3350
18070TIP3    H275626   4.679   1.432   3.748  0.3489 -0.3433 -0.9075
18071TIP3   OH275627   4.273   2.117   2.922 -0.0152 -0.2483  0.3640
18071TIP3    H175628   4.210   2.180   2.887  0.8574 -0.0785 -0.9541
18071TIP3    H275629   4.229   2.079   2.998 -0.6699  1.7433  1.0322
18072TIP3   OH275630   0.192   6.057   0.829 -0.1801 -0.2000 -0.2192
18072TIP3    H175631   0.211   5.964   0.838  0.8390 -0.0262 -0.4035
18072TIP3    H275632   0.169   6.086   0.917  0.2467 -0.4777 -0.0122
18073TIP3   OH275633   4.855   1.004  11.939 -0.3784  0.3768  0.3869
18073TIP3    H175634   4.824   0.928  11.989 -2.2362  1.1645  0.5224
18073TIP3    H275635   4.775   1.055  11.922  0.7061  1.8530 -0.4493
18074TIP3   OH275636   2.821   1.773   2.130  0.0199  0.4524  0.0987
18074TIP3    H175637   2.748   1.810   2.079  0.4255  1.7151  0.3942
18074TIP3    H275638   2.793   1.780   2.221 -0.8580 -2.1488  0.0865
18075TIP3   OH275639   3.719   5.589  12.963  0.0155 -0.2828  0.0041
18075TIP3    H175640   3.648   5.536  12.925 -0.7188  1.2803 -0.8927
18075TIP3    H275641   3.718   5.670  12.912  1.8353  0.1608  0.6231
18076TIP3   OH275642   6.768   3.801   1.646  0.0318  1.0728 -0.4206
18076TIP3    H175643   6.738   3.887   1.676 -0.8292  0.4064  0.7262
18076TIP3    H275644   6.851   3.788   1.692 -1.1155  0.2066  1.5517
18077TIP3   OH275645   1.727   5.206   0.508 -0.4211 -0.3781 -0.8162
18077TIP3    H175646   1.795   5.140   0.521 -1.5664 -1.2644  0.9143
18077TIP3    H275647   1.647   5.165   0.539 -1.2922  1.5954 -0.3131
18078TIP3   OH275648   5.439   6.115   2.264 -0.0769  0.1539  0.5930
18078TIP3    H175649   5.442   6.020   2.260 -2.2969  0.0773 -0.5046
18078TIP3    H275650   5.523   6.140   2.303  1.1280 -2.1480 -0.3694
18079TIP3   OH275651   1.605   3.435   3.972  0.2576 -0.3455  0.7564
18079TIP3    H175652   1.553   3.453   4.050 -0.3144 -0.7475  0.4724
18079TIP3    H275653   1.550   3.464   3.899 -0.1540 -2.0333  0.3718
18080TIP3   OH275654   5.937   1.897  15.463 -0.1674 -0.3069 -0.3068
18080TIP3    H175655   5.880   1.970  15.490  2.5273  1.4476  1.0592
18080TIP3    H275656   5.961   1.918  15.373  1.3487  1.1356  0.3733
18081TIP3   OH275657   5.116   2.608   0.182  0.0541  0.3315 -0.0195
18081TIP3    H175658   5.139   2.555   0.105 -0.0782  0.0445  0.1339
18081TIP3    H275659   5.022   2.591   0.195  0.4412 -1.1130  1.3086
18082TIP3   OH275660   1.559   4.418   4.270  0.3097  0.7205 -0.5506
18082TIP3    H175661   1.621   4.446   4.337 -0.3254 -0.4191  0.5594
18082TIP3    H275662   1.601   4.341   4.229  0.0627  0.5436 -0.4721
18083TIP3   OH275663   3.398   3.988  13.237 -0.3637 -0.1201  0.5470
18083TIP3    H175664   3.335   3.960  13.170  1.0561  0.0468 -0.9159
18083TIP3    H275665   3.371   4.077  13.259 -1.4590 -0.5419  0.9734
18084TIP3   OH275666   3.945   3.583   1.894 -0.4381 -0.3215  0.3844
18084TIP3    H175667   3.983   3.579   1.807 -0.9330 -0.4400  0.1670
18084TIP3    H275668   4.004   3.533   1.949 -0.5313 -0.9048 -0.0401
18085TIP3   OH275669   1.864   6.372  12.315  0.3433 -0.3347  0.1000
18085TIP3    H175670   1.824   6.395  12.398 -0.4435  1.2984 -0.6839
18085TIP3    H275671   1.869   6.276  12.316  1.8431 -0.3204  2.6776
18086TIP3   OH275672   0.872   1.378  12.621  0.2820  0.4666 -0.0371
18086TIP3    H175673   0.812   1.321  12.669  2.9470 -2.3593  0.2784
18086TIP3    H275674   0.943   1.395  12.683  1.6949  0.3602 -1.5663
18087TIP3   OH275675   1.758   2.464   3.828 -0.0039  0.3187  0.1029
18087TIP3    H175676   1.825   2.431   3.888 -0.2857 -0.6779 -0.1162
18087TIP3    H275677   1.682   2.481   3.884 -0.4498 -1.1403 -0.0361
18088TIP3   OH275678   0.673   4.560   2.860 -0.5369  0.1200  0.5511
18088TIP3    H175679   0.617   4.504   2.805 -1.0583  0.5952  0.5853
18088TIP3    H275680   0.686   4.510   2.940 -0.6234 -0.1434  0.4012
18089TIP3   OH275681   0.144   5.177  14.017 -0.0540 -0.5011  0.5366
18089TIP3    H175682   0.110   5.094  14.049 -2.5290 -0.1521 -0.9779
18089TIP3    H275683   0.099   5.243  14.068 -2.9632  0.0149 -2.3814
18090TIP3   OH275684   5.848   2.412  11.616 -0.1914 -0.4331 -0.6275
18090TIP3    H175685   5.776   2.435  11.557 -0.5988 -1.7173 -0.6389
18090TIP3    H275686   5.925   2.449  11.573 -0.8875  1.7168 -0.1950
18091TIP3   OH275687   6.627   3.384   0.676 -0.4057  0.7488 -0.1396
18091TIP3    H175688   6.553   3.327   0.697 -1.6427  2.3740  0.0827
18091TIP3    H275689   6.620   3.398   0.582  0.2004  0.1659 -0.2827
18092TIP3   OH275690   1.585   2.011   1.748  0.4341 -0.2381 -0.5873
18092TIP3    H175691   1.549   2.011   1.659  0.6142  0.2377 -0.6645
18092TIP3    H275692   1.552   1.931   1.788 -2.3632  1.0844  0.0195
18093TIP3   OH275693   6.738   1.096  15.630  0.3384 -0.3214  0.0656
18093TIP3    H175694   6.777   1.076  15.715  2.3427 -0.0344 -0.7206
18093TIP3    H275695   6.808   1.077  15.567 -0.9563 -0.1347 -1.4943
18094TIP3   OH275696   2.971   5.190   1.438  0.2342 -0.4555 -0.0858
18094TIP3    H175697   3.017   5.129   1.496  2.7923  1.7410  0.3831
18094TIP3    H275698   3.016   5.181   1.354  0.6917  0.7836  0.0096
18095TIP3   OH275699   1.302   3.658   5.982  0.1040 -0.2724  0.4179
18095TIP3    H175700   1.326   3.674   5.890 -2.1487  2.8054  0.1951
18095TIP3    H275701   1.213   3.623   5.978 -0.2387  0.4402  1.4092
18096TIP3   OH275702   5.252   0.959  15.251 -0.1370  0.6344  0.0138
18096TIP3    H175703   5.163   0.987  15.228 -1.2013 -1.7279  0.8850
18096TIP3    H275704   5.286   0.921  15.170 -1.2601 -1.4453  0.4378
18097TIP3   OH275705   1.368   0.661  16.600 -0.3218 -0.0444  0.1529
18097TIP3    H175706   1.381   0.756  16.602  1.8862 -0.2882  2.0507
18097TIP3    H275707   1.287   0.649  16.550  0.8578  2.6125 -2.7432
18098TIP3   OH275708   3.075   2.141   6.166  0.2798 -0.3636  0.5254
18098TIP3    H175709   3.082   2.048   6.188 -0.4346 -0.4666  0.3499
18098TIP3    H275710   3.088   2.187   6.249 -1.0399 -0.6940  0.9406
18099TIP3   OH275711   4.742   2.333   1.355 -0.1850  0.2674 -0.2604
18099TIP3    H175712   4.677   2.322   1.425 -2.1793  2.1459 -1.6584
18099TIP3    H275713   4.811   2.271   1.376 -1.0883  0.1539  2.8847
18100TIP3   OH275714   6.047   2.618  12.756  0.4933  0.0106  0.2276
18100TIP3    H175715   6.003   2.580  12.681  0.8080 -0.6423  0.3627
18100TIP3    H275716   6.117   2.671  12.719 -0.0377  0.5847  0.0327
18101TIP3   OH275717   1.320   1.721  16.223 -0.5451 -0.5616  0.7967
18101TIP3    H175718   1.332   1.626  16.216 -2.4451 -0.9024  1.4026
18101TIP3    H275719   1.345   1.755  16.138  1.5225 -1.4189  1.0129
18102TIP3   OH275720   1.721   4.456  13.092  0.3293 -0.5282 -0.4867
18102TIP3    H175721   1.669   4.535  13.095 -0.0916 -0.7754 -1.0618
18102TIP3    H275722   1.675   4.393  13.148  0.0976 -0.6935 -0.8604
18103TIP3   OH275723   5.442   0.174  15.456 -0.0477  0.3771  0.3140
18103TIP3    H175724   5.422   0.102  15.516 -2.2310 -0.2519 -1.0759
18103TIP3    H275725   5.420   0.253  15.506  0.8290  0.0328  1.2828
18104TIP3   OH275726   2.564   5.332   1.327 -0.1006  0.0170 -0.0183
18104TIP3    H175727   2.630   5.354   1.394 -1.3219 -2.1244  2.0316
18104TIP3    H275728   2.559   5.410   1.273 -0.1910  2.6213  3.3836
18105TIP3   OH275729   0.294   3.999   5.847  0.4245 -0.0355 -0.0304
18105TIP3    H175730   0.344   4.079   5.860  0.5247  0.5034 -2.9284
18105TIP3    H275731   0.203   4.029   5.837  0.6911  0.1229 -3.1280
18106TIP3   OH275732   6.018   1.438  15.485  0.4141 -0.4171  0.4368
18106TIP3    H175733   6.009   1.395  15.400  1.3258 -1.9593  1.0639
18106TIP3    H275734   6.090   1.500  15.473 -0.0807  0.0534 -0.1533
18107TIP3   OH275735   4.596   4.654   3.723 -0.2210  0.0087  0.0995
18107TIP3    H175736   4.527   4.609   3.674  0.0104 -0.5289  0.2587
18107TIP3    H275737   4.549   4.701   3.792 -0.5030  0.3665 -0.3372
18108TIP3   OH275738   1.757   1.625   5.631  0.2474  0.4489 -0.2491
18108TIP3    H175739   1.789   1.632   5.721 -1.3317  0.7621  0.3187
18108TIP3    H275740   1.666   1.597   5.641 -0.2036  1.3241 -1.7169
18109TIP3   OH275741   3.660   5.756  14.905 -0.0561 -0.1027 -0.8186
18109TIP3    H175742   3.720   5.787  14.837  0.7597  0.5970  0.1917
18109TIP3    H275743   3.699   5.786  14.987 -1.0432 -0.8903 -0.0355
18110TIP3   OH275744   6.278   5.712  12.355 -0.5525 -0.2770 -0.6012
18110TIP3    H175745   6.198   5.718  12.302 -0.7856 -1.4923 -0.4040
18110TIP3    H275746   6.349   5.711  12.291 -0.6929  0.5440 -0.7876
18111TIP3   OH275747   5.320   2.656  12.300 -0.0981 -0.2457 -0.3557
18111TIP3    H175748   5.305   2.629  12.210 -0.7237  1.0435 -0.6609
18111TIP3    H275749   5.400   2.709  12.297 -1.3244  1.6595 -0.5700
18112TIP3   OH275750   6.562   0.542  16.731  0.4604  0.1502  0.2937
18112TIP3    H175751   6.511   0.610  16.775  1.0662  0.0540  1.1638
18112TIP3    H275752   6.614   0.590  16.666  0.5868  0.4616  0.6231
18113TIP3   OH275753   2.491   1.404  17.056 -0.0055 -0.1366 -0.3794
18113TIP3    H175754   2.450   1.483  17.091 -2.3216 -1.6155  0.4377
18113TIP3    H275755   2.457   1.397  16.967  1.0610  0.3203 -0.8463
18114TIP3   OH275756   2.811   6.680  16.314 -0.0337  1.0780  0.4242
18114TIP3    H175757   2.722   6.714  16.318 -0.6452 -0.3475 -0.2890
18114TIP3    H275758   2.803   6.587  16.335  0.9527  0.4648 -1.5589
18115TIP3   OH275759   0.874   6.453   3.113  0.0573 -0.2868 -0.1632
18115TIP3    H175760   0.800   6.513   3.119 -0.7438 -1.2667  0.0626
18115TIP3    H275761   0.945   6.506   3.078 -0.2029  1.1485  1.3542
18116TIP3   OH275762   6.334   1.690  12.977 -0.4568  0.4341 -0.6593
18116TIP3    H175763   6.386   1.614  13.003 -0.7141  0.2820 -0.5904
18116TIP3    H275764   6.373   1.719  12.894 -0.5388  0.0604 -0.8273
18117TIP3   OH275765   3.667   3.839   1.222 -0.3106 -0.4466  0.2057
18117TIP3    H175766   3.584   3.881   1.197 -0.7940 -1.0866  0.6986
18117TIP3    H275767   3.695   3.794   1.142  0.4868  1.2036 -0.4863
18118TIP3   OH275768   2.383   4.471  13.700 -0.0305  0.2476  0.1933
18118TIP3    H175769   2.320   4.544  13.703 -0.4805 -0.1162 -0.1547
18118TIP3    H275770   2.436   4.482  13.779 -0.6412  0.4748  0.5880
18119TIP3   OH275771   4.391   3.511   3.859  0.3092 -0.0936  0.3263
18119TIP3    H175772   4.356   3.529   3.772  2.7896  0.8321 -0.5478
18119TIP3    H275773   4.314   3.516   3.916 -1.0067  1.9102 -1.4425
18120TIP3   OH275774   1.232   4.366   0.088 -0.0696 -0.0266  0.6358
18120TIP3    H175775   1.269   4.453   0.077 -0.9080  0.2234 -0.3927
18120TIP3    H275776   1.295   4.307   0.045 -0.0955  0.2232  0.2462
18121TIP3   OH275777   3.904   6.367  13.116  0.7060 -0.0195 -0.0163
18121TIP3    H175778   3.862   6.343  13.034  3.2154  1.0147 -1.7290
18121TIP3    H275779   3.989   6.403  13.090  0.7728  2.3047  2.9090
18122TIP3   OH275780   6.006   5.215   5.831 -0.3652 -0.6380 -0.4703
18122TIP3    H175781   6.041   5.202   5.743  0.0593  0.3062 -0.4510
18122TIP3    H275782   5.941   5.285   5.821  1.2159  1.0122  0.3060
18123TIP3   OH275783   5.990   2.930  12.560 -0.3570 -0.6504  0.0279
18123TIP3    H175784   5.987   2.855  12.619  0.5124 -0.5149  0.2629
18123TIP3    H275785   6.080   2.932  12.528  0.2403  1.4507  1.5973
18124TIP3   OH275786   2.751   3.411  12.330 -0.8438 -0.5103  0.7593
18124TIP3    H175787   2.758   3.394  12.236 -0.3294 -1.0062  0.8825
18124TIP3    H275788   2.806   3.488  12.345 -2.5854  0.8874  0.3250
18125TIP3   OH275789   2.621   2.878  13.497 -0.6069 -0.2416 -0.3864
18125TIP3    H175790   2.665   2.822  13.561  1.1574  2.1790  0.6688
18125TIP3    H275791   2.677   2.875  13.420 -0.2174  0.4323 -0.1396
18126TIP3   OH275792   4.098   2.791  15.943 -0.3772  0.2015 -0.9066
18126TIP3    H175793   4.042   2.788  15.866 -1.7000 -1.5115  0.0395
18126TIP3    H275794   4.056   2.855  16.001 -1.0203 -0.6222 -0.4537
18127TIP3   OH275795   3.581   6.739   5.156 -0.1688 -0.3502  0.0120
18127TIP3    H175796   3.675   6.753   5.171 -0.2897 -0.4379  0.8930
18127TIP3    H275797   3.551   6.821   5.116  0.4873 -0.7316 -1.3134
18128TIP3   OH275798   2.052   2.255   4.958 -0.7005 -0.7810  0.4402
18128TIP3    H175799   2.142   2.244   4.989 -0.6136  0.2722  0.5987
18128TIP3    H275800   2.051   2.215   4.871  0.0164 -0.4707  0.2837
18129TIP3   OH275801   2.829   3.908  12.095  0.8092 -0.0069 -0.1588
18129TIP3    H175802   2.891   3.966  12.051  0.0138  0.5127 -0.6224
18129TIP3    H275803   2.806   3.953  12.176 -0.8241  1.0057 -1.1342
18130TIP3   OH275804   5.515   5.283   4.534  0.3561 -0.1683 -0.1385
18130TIP3    H175805   5.574   5.357   4.524 -0.1121  0.2679  0.2669
18130TIP3    H275806   5.569   5.206   4.516  0.8570  0.2681 -0.5056
18131TIP3   OH275807   2.980   6.290   1.646 -0.1377  0.7741  0.0514
18131TIP3    H175808   2.961   6.363   1.706  0.3620  0.0499  1.1221
18131TIP3    H275809   2.923   6.219   1.677  1.0331 -0.0028  0.4754
18132TIP3   OH275810   3.136   6.289  12.405 -0.9014 -0.1802 -0.4979
18132TIP3    H175811   3.224   6.253  12.411 -0.6830  0.0553 -1.9098
18132TIP3    H275812   3.105   6.293  12.496  1.0863  1.1124  0.1857
18133TIP3   OH275813   3.036   4.181   5.520  0.1749  0.5190  0.0641
18133TIP3    H175814   3.110   4.150   5.469 -0.3391 -1.7616  0.5650
18133TIP3    H275815   3.016   4.108   5.579 -0.5893  2.2313  2.0311
18134TIP3   OH275816   0.951   4.807   6.363  0.5541 -0.1797  0.5298
18134TIP3    H175817   0.934   4.895   6.397  1.6382  0.0154  0.5806
18134TIP3    H275818   0.951   4.817   6.268  1.5698  0.0460  0.5530
18135TIP3   OH275819   6.132   1.075   6.103  0.0066  0.3935 -0.4937
18135TIP3    H175820   6.158   1.100   6.014 -0.5116  2.8476 -0.0157
18135TIP3    H275821   6.091   1.153   6.139 -3.7178 -1.7610  0.4717
18136TIP3   OH275822   1.090   0.269  14.706  0.4108  0.0383 -0.5690
18136TIP3    H175823   1.021   0.327  14.737  0.5997 -0.7399  1.5353
18136TIP3    H275824   1.064   0.245  14.617 -2.4208 -0.7754  0.3700
18137TIP3   OH275825   1.657   1.266  14.678  0.8628  0.4883 -0.4954
18137TIP3    H175826   1.748   1.239  14.666  0.4504 -0.6116 -1.3723
18137TIP3    H275827   1.620   1.263  14.590 -0.1210  0.5517 -0.0930
18138TIP3   OH275828   3.429   3.748  12.465 -0.0066  0.5325  0.3003
18138TIP3    H175829   3.481   3.673  12.436 -0.0331  0.1898  1.1109
18138TIP3    H275830   3.421   3.803  12.387 -0.6192 -0.6638 -0.5036
18139TIP3   OH275831   1.854   6.019  16.043 -0.4010 -0.4196  0.0403
18139TIP3    H175832   1.879   6.049  15.955 -0.9459 -2.4449 -0.8510
18139TIP3    H275833   1.761   6.043  16.051 -0.4475 -0.5648 -0.0748
18140TIP3   OH275834   2.048   2.432   0.659  0.1726  0.6614 -0.5915
18140TIP3    H175835   2.137   2.469   0.659  0.0548  1.2494 -4.0040
18140TIP3    H275836   2.058   2.345   0.697  2.0722  0.9640 -0.3007
18141TIP3   OH275837   6.154   1.910  12.183  0.3657 -0.0051  0.4177
18141TIP3    H175838   6.217   1.849  12.221 -0.4691 -1.5276 -0.5679
18141TIP3    H275839   6.185   1.925  12.094 -1.2636 -1.7587 -0.5112
18142TIP3   OH275840   1.833   2.722  12.732 -0.0021  0.3453 -0.8973
18142TIP3    H175841   1.817   2.736  12.825  0.6625  1.0729 -0.8730
18142TIP3    H275842   1.928   2.713  12.725  0.0816  1.5163 -1.6330
18143TIP3   OH275843   5.258   4.930  14.642  0.4355 -0.2097 -0.4160
18143TIP3    H175844   5.336   4.903  14.593 -0.1912 -1.4124 -0.8039
18143TIP3    H275845   5.218   4.847  14.670 -0.0112  0.4255  0.8896
18144TIP3   OH275846   3.869   0.011  14.792  0.2525  0.4559  0.4018
18144TIP3    H175847   3.852   0.029  14.699  2.7503  1.0751 -0.0030
18144TIP3    H275848   3.884   0.097  14.831  1.7885  0.0456  0.7832
18145TIP3   OH275849   1.568   0.254  16.563 -0.2369  0.2520 -0.3356
18145TIP3    H175850   1.548   0.217  16.649 -1.4182 -0.0721 -0.7233
18145TIP3    H275851   1.654   0.295  16.574  0.4081 -1.2568  0.5222
18146TIP3   OH275852   2.389   5.277   4.036  0.0470 -0.4869  0.0036
18146TIP3    H175853   2.396   5.218   4.112  0.6061  0.0417  0.3776
18146TIP3    H275854   2.295   5.289   4.023 -0.0553 -0.0363  1.0578
18147TIP3   OH275855   4.729   0.933  11.505 -0.0135 -0.3598  0.7002
18147TIP3    H175856   4.767   0.945  11.418 -1.6118 -1.5542 -0.2274
18147TIP3    H275857   4.804   0.922  11.563  1.0848 -0.4868 -0.6962
18148TIP3   OH275858   3.048   4.586  12.019  0.1026  0.2791 -0.1946
18148TIP3    H175859   3.086   4.505  11.986 -0.9131 -0.1817 -0.2581
18148TIP3    H275860   3.054   4.580  12.114 -1.8369 -0.8291 -0.0980
18149TIP3   OH275861   6.498   6.515  13.672 -0.1439 -0.0886  0.2878
18149TIP3    H175862   6.564   6.454  13.706 -1.1267 -1.3104  0.1063
18149TIP3    H275863   6.417   6.489  13.718 -1.1337 -0.6309 -1.6675
18150TIP3   OH275864   3.123   3.486  11.779  0.2190  0.1661  0.1610
18150TIP3    H175865   3.092   3.401  11.812  0.7380 -0.2668 -0.4372
18150TIP3    H275866   3.132   3.541  11.857  4.6460 -1.7956  1.3075
18151TIP3   OH275867   5.024   6.084   2.739  0.1238 -0.6195 -0.1259
18151TIP3    H175868   5.032   6.140   2.662  1.5145 -0.5870  0.0138
18151TIP3    H275869   5.076   6.129   2.806  3.6303 -3.3366 -0.7537
18152TIP3   OH275870   2.778   3.172   0.655 -0.6094 -0.1323  0.2365
18152TIP3    H175871   2.776   3.132   0.568 -0.1067  1.3422 -0.4833
18152TIP3    H275872   2.870   3.193   0.669 -0.7055 -0.2317  1.0852
18153TIP3   OH275873   0.629   0.689  12.173  0.4518 -0.2510  0.6557
18153TIP3    H175874   0.596   0.779  12.169  0.2537 -0.1425  3.3470
18153TIP3    H275875   0.552   0.635  12.157  0.8105 -0.0434 -2.3892
18154TIP3   OH275876   0.616   2.241  17.270  0.2582 -0.2455 -0.2254
18154TIP3    H175877   0.562   2.298  17.325  0.5813 -0.1831  0.0297
18154TIP3    H275878   0.631   2.163  17.323 -0.1621 -0.5662 -0.5652
18155TIP3   OH275879   3.478   6.264  14.214 -0.2407  0.2766  0.0123
18155TIP3    H175880   3.546   6.274  14.148 -0.4195  1.7228  0.0071
18155TIP3    H275881   3.473   6.350  14.257 -2.2010  0.2915 -0.1409
18156TIP3   OH275882   2.518   2.593  16.223  0.3301 -0.2336 -0.3647
18156TIP3    H175883   2.559   2.609  16.138 -1.3496  0.1951 -1.1204
18156TIP3    H275884   2.524   2.677  16.269 -2.3820  0.7955 -1.6883
18157TIP3   OH275885   4.461   6.435   1.503  0.6436 -0.3217  0.2974
18157TIP3    H175886   4.510   6.432   1.585  2.1172  1.2492 -0.4643
18157TIP3    H275887   4.389   6.372   1.515  1.1052 -0.4843  2.5772
18158TIP3   OH275888   4.613   5.775   1.558  0.0498 -0.0392 -0.2857
18158TIP3    H175889   4.519   5.770   1.542  0.1241 -1.5829 -0.4525
18158TIP3    H275890   4.652   5.729   1.483  0.8542 -0.4819  0.3894
18159TIP3   OH275891   0.339   3.119  15.820  0.2788  0.1745 -0.7467
18159TIP3    H175892   0.314   3.039  15.774  1.6305 -0.7675  0.0934
18159TIP3    H275893   0.276   3.124  15.893  0.9823 -0.8825 -0.0264
18160TIP3   OH275894   6.205   3.458  14.663 -0.4282 -0.0625 -0.3052
18160TIP3    H175895   6.232   3.503  14.744  0.4185 -0.8279 -0.1461
18160TIP3    H275896   6.201   3.528  14.598  0.5859  0.3128  0.0031
18161TIP3   OH275897   6.241   3.711  14.271 -0.2418  0.1117 -0.1837
18161TIP3    H175898   6.206   3.632  14.313  0.1862  0.2318  0.3984
18161TIP3    H275899   6.285   3.677  14.193 -0.8200 -0.1337 -0.4144
18162TIP3   OH275900   1.321   3.900  12.518  0.3163 -0.1133 -0.2017
18162TIP3    H175901   1.368   3.837  12.463  1.0999 -0.0844  0.4234
18162TIP3    H275902   1.312   3.856  12.602  3.5455  1.6745  1.2293
18163TIP3   OH275903   3.041   5.213  16.997  0.0888  0.1907 -0.2040
18163TIP3    H175904   3.050   5.298  17.039  1.2040 -0.2117  0.3971
18163TIP3    H275905   3.022   5.152  17.069  1.4460 -0.4077 -0.3268
18164TIP3   OH275906   1.595   5.329  14.880  0.0108 -0.5619  0.3145
18164TIP3    H175907   1.583   5.394  14.950  0.4446 -0.2364  0.0896
18164TIP3    H275908   1.563   5.372  14.801 -1.3250 -1.2574  0.4506
18165TIP3   OH275909   0.788   5.152  14.503  0.1216  0.2755  0.2770
18165TIP3    H175910   0.863   5.208  14.523 -1.6247  2.6665  0.6970
18165TIP3    H275911   0.789   5.085  14.570  0.9392  1.2790  1.3098
18166TIP3   OH275912   0.384   3.871   0.675  0.2229 -0.5167  0.3259
18166TIP3    H175913   0.362   3.924   0.751  0.5909 -0.2494  0.2481
18166TIP3    H275914   0.461   3.914   0.637 -0.0274 -0.5820 -0.2595
18167TIP3   OH275915   6.281   2.250  13.059 -0.1842 -0.3762  0.2899
18167TIP3    H175916   6.192   2.269  13.031  0.1213  0.0499 -0.3985
18167TIP3    H275917   6.302   2.319  13.121 -0.4909 -0.7346  0.7996
18168TIP3   OH275918   3.081   1.268  12.706 -0.1269  0.9498  0.0334
18168TIP3    H175919   3.061   1.234  12.794 -2.0139  2.7007  0.3569
18168TIP3    H275920   3.160   1.320  12.719  0.2931  0.2399  0.4262
18169TIP3   OH275921   1.504   5.425   5.743  0.0471 -0.5872 -0.0320
18169TIP3    H175922   1.483   5.337   5.714 -1.4266 -0.0554 -0.6903
18169TIP3    H275923   1.434   5.480   5.707  1.9713  1.1667 -1.4002
18170TIP3   OH275924   4.781   3.981  16.071  0.6822 -0.6048  0.8382
18170TIP3    H175925   4.789   4.066  16.114  3.7846 -0.3551 -0.0214
18170TIP3    H275926   4.842   3.924  16.117 -0.1896 -1.9399  0.4023
18171TIP3   OH275927   5.564   5.049  16.023  0.1147  0.3397 -0.2069
18171TIP3    H175928   5.493   4.987  16.040  0.0911  0.1262 -1.0389
18171TIP3    H275929   5.627   5.033  16.093  1.0071 -1.9798 -1.4166
18172TIP3   OH275930   3.805   1.831   5.714  0.2297  0.9938 -0.5486
18172TIP3    H175931   3.818   1.832   5.620  2.4907  1.6663 -0.2684
18172TIP3    H275932   3.856   1.905   5.747  1.9465 -0.9456  1.4645
18173TIP3   OH275933   6.613   6.064  11.533 -0.1808 -0.0263  0.0083
18173TIP3    H175934   6.648   6.144  11.573  2.7932  0.1077 -2.4817
18173TIP3    H275935   6.677   5.996  11.555 -1.4974 -1.2202  0.2372
18174TIP3   OH275936   4.097   4.435  11.452 -0.5433  0.1686 -0.0396
18174TIP3    H175937   4.152   4.422  11.529 -1.3225 -1.3901  0.2896
18174TIP3    H275938   4.158   4.461  11.383  0.2455  0.9592  0.9338
18175TIP3   OH275939   0.489   2.474   0.389 -0.7589  0.4702 -0.4773
18175TIP3    H175940   0.488   2.548   0.450  1.2794  2.5164 -2.7257
18175TIP3    H275941   0.562   2.420   0.419  0.6109  1.7679 -1.3117
18176TIP3   OH275942   3.353   4.324  15.351  0.5236  0.1975  0.4993
18176TIP3    H175943   3.281   4.280  15.398  0.2473 -0.6122 -0.6394
18176TIP3    H275944   3.328   4.416  15.350 -0.6886 -0.1203 -0.1693
18177TIP3   OH275945   1.216   3.063  17.055 -0.0240 -0.0137 -0.5140
18177TIP3    H175946   1.207   3.044  16.962 -0.0985 -1.0520 -0.3123
18177TIP3    H275947   1.189   2.982  17.098  0.6778  0.2171  0.3859
18178TIP3   OH275948   6.017   1.542   1.642 -0.5682  0.2262 -0.3731
18178TIP3    H175949   6.079   1.580   1.705 -0.3333  0.2110 -0.5921
18178TIP3    H275950   5.948   1.607   1.634 -1.4115 -0.4338  1.0841
18179TIP3   OH275951   5.671   2.040   2.508  0.3493 -0.2607 -0.6885
18179TIP3    H175952   5.592   1.992   2.533 -0.2209  1.5016  1.2000
18179TIP3    H275953   5.667   2.044   2.412 -0.9328 -1.6720 -0.7323
18180TIP3   OH275954   2.538   1.127   3.413 -0.0029 -0.3321 -0.0522
18180TIP3    H175955   2.444   1.108   3.409  0.3706 -2.3727  0.0053
18180TIP3    H275956   2.556   1.132   3.507  0.0247 -0.3360 -0.0574
18181TIP3   OH275957   1.422   1.667  15.324  0.2120  0.0785 -0.1147
18181TIP3    H175958   1.357   1.662  15.254 -1.1055  0.3534  1.0329
18181TIP3    H275959   1.432   1.761  15.341  2.3836  0.1627 -1.5465
18182TIP3   OH275960   2.465   3.042   6.192  0.3048 -0.2208 -0.5898
18182TIP3    H175961   2.376   3.074   6.202  0.1059 -0.7116 -0.7365
18182TIP3    H275962   2.521   3.116   6.216 -0.1314 -0.4114  1.1072
18183TIP3   OH275963   0.960   4.769  14.589  0.5029 -0.3380  0.1988
18183TIP3    H175964   1.049   4.803  14.579  0.5474 -0.8841 -1.6630
18183TIP3    H275965   0.919   4.827  14.652  1.5145  1.2749 -0.5671
18184TIP3   OH275966   2.420   4.455  16.888  0.0147  0.4146 -0.0025
18184TIP3    H175967   2.407   4.550  16.892 -2.6164  0.0984  1.3260
18184TIP3    H275968   2.429   4.428  16.979  1.1872 -0.5953 -0.3959
18185TIP3   OH275969   1.343   2.476   6.171 -0.0091  0.5697  0.1096
18185TIP3    H175970   1.285   2.546   6.203  1.8453  1.5027  1.6357
18185TIP3    H275971   1.380   2.438   6.250  0.6744 -0.6962 -0.7961
18186TIP3   OH275972   1.012   5.655   0.803 -0.1693  0.5270 -0.6332
18186TIP3    H175973   0.971   5.741   0.809 -0.4436  0.4345 -1.1470
18186TIP3    H275974   1.100   5.668   0.840 -0.1684  1.0496 -0.8084
18187TIP3   OH275975   0.265   1.319  12.291 -0.3378  0.1171 -0.0486
18187TIP3    H175976   0.301   1.247  12.344 -1.2687  0.0616  0.5174
18187TIP3    H275977   0.319   1.395  12.314 -0.5052  0.0101  0.7204
18188TIP3   OH275978   5.731   3.519   0.693  0.3114  0.2676  0.6207
18188TIP3    H175979   5.798   3.463   0.655 -0.6243  1.4794 -3.3052
18188TIP3    H275980   5.671   3.459   0.737  2.8852 -0.9965  2.6897
18189TIP3   OH275981   5.824   4.665   4.303 -0.1217  0.4096  0.3857
18189TIP3    H175982   5.784   4.747   4.273 -1.1250  0.1068  0.8583
18189TIP3    H275983   5.788   4.598   4.246 -0.5499  0.0904  1.0149
18190TIP3   OH275984   6.256   3.560   1.732  0.0451 -0.2013 -0.8236
18190TIP3    H175985   6.315   3.502   1.780  0.6376 -0.0714 -1.3704
18190TIP3    H275986   6.293   3.647   1.744 -2.6623  0.6814  2.7982
18191TIP3   OH275987   1.351   1.805  12.413  0.2722 -0.1409  0.1612
18191TIP3    H175988   1.385   1.804  12.323 -1.9054 -1.0125 -0.7275
18191TIP3    H275989   1.309   1.719  12.423  0.8480 -0.2267  2.1889
18192TIP3   OH275990   0.630   2.054  13.556 -0.2621  0.6851 -0.8164
18192TIP3    H175991   0.542   2.020  13.540 -0.2478  0.6535 -0.8266
18192TIP3    H275992   0.632   2.136  13.506 -0.6517  1.2302  0.0327
18193TIP3   OH275993   3.637   5.922   5.092  0.2505 -0.2107 -0.5373
18193TIP3    H175994   3.608   5.866   5.020 -0.4158 -0.7425  0.1157
18193TIP3    H275995   3.722   5.955   5.065  0.3697 -1.0491 -1.2224
18194TIP3   OH275996   2.454   2.756   3.052 -0.2073 -0.7399  0.4294
18194TIP3    H175997   2.502   2.683   3.014 -0.9209 -1.0490  0.0972
18194TIP3    H275998   2.513   2.793   3.118  0.6644 -0.8000 -0.3139
18195TIP3   OH275999   1.837   5.081   3.595 -0.1586 -0.0505  0.0662
18195TIP3    H176000   1.858   5.173   3.579  3.0775 -0.6873  0.0696
18195TIP3    H276001   1.819   5.076   3.689  1.0343  0.4002  0.3364
18196TIP3   OH276002   5.522   6.334  15.159 -0.2271 -0.0918  0.0486
18196TIP3    H176003   5.589   6.308  15.096  1.7997 -1.9358  2.7602
18196TIP3    H276004   5.490   6.251  15.196 -1.2253  0.9052  1.5452
18197TIP3   OH276005   3.590   4.869   6.761  0.1036  0.0299  0.1935
18197TIP3    H176006   3.684   4.885   6.761  0.0272  0.5066  0.9614
18197TIP3    H276007   3.551   4.955   6.773 -0.4501 -0.1166 -0.4921
18198TIP3   OH276008   1.024   0.771   5.202  0.4638  0.4022 -0.4520
18198TIP3    H176009   0.943   0.788   5.251  2.2990  0.9259  2.6512
18198TIP3    H276010   1.016   0.825   5.123 -2.6847 -0.5171 -0.9159
18199TIP3   OH276011   4.038   1.186  16.602  0.0870  0.2812 -0.3633
18199TIP3    H176012   4.123   1.194  16.559  0.4896  0.5507  0.4603
18199TIP3    H276013   3.987   1.129  16.545  0.5430  0.7711 -1.2825
18200TIP3   OH276014   1.898   1.637  11.931  0.2904  0.0436  0.4178
18200TIP3    H176015   1.968   1.701  11.918 -0.3785  0.9811  1.2725
18200TIP3    H276016   1.931   1.578  11.998 -0.2557  1.3410  1.8882
18201TIP3   OH276017   1.125   5.621  16.719  0.2783  0.3399  0.7358
18201TIP3    H176018   1.115   5.584  16.632 -0.2769  1.5538  0.2539
18201TIP3    H276019   1.202   5.678  16.713 -0.1938  1.0061  0.8048
18202TIP3   OH276020   3.246   1.032  11.891  0.2808 -0.1733 -0.1524
18202TIP3    H176021   3.285   1.053  11.807 -0.6710  1.2762 -0.2670
18202TIP3    H276022   3.159   1.073  11.888  0.1639 -0.2349  1.4649
18203TIP3   OH276023   3.859   1.312   2.946 -0.3534 -0.4664 -0.0543
18203TIP3    H176024   3.786   1.281   3.000 -0.7326  0.3336 -0.0944
18203TIP3    H276025   3.928   1.246   2.958  0.1614  0.4388  2.6260
18204TIP3   OH276026   5.338   5.602  17.020  0.2432  0.0211 -0.1827
18204TIP3    H176027   5.316   5.682  16.971 -2.5001 -0.4653  0.0804
18204TIP3    H276028   5.289   5.610  17.102 -0.5753 -2.1523 -0.3992
18205TIP3   OH276029   1.886   4.992   0.499 -0.5025 -0.1607 -0.3549
18205TIP3    H176030   1.842   4.970   0.417  0.4813 -1.4615 -0.5623
18205TIP3    H276031   1.901   4.908   0.542 -0.9149  0.4936  1.1304
18206TIP3   OH276032   1.887   5.791  11.905  0.3218  0.3546  0.5236
18206TIP3    H176033   1.924   5.857  11.964 -0.3100  1.0200  0.2008
18206TIP3    H276034   1.875   5.714  11.959 -1.6045  1.3799  1.6717
18207TIP3   OH276035   4.110   2.757   5.199 -0.6042 -0.0067  0.1148
18207TIP3    H176036   4.143   2.667   5.195  0.5963  0.4160  0.0734
18207TIP3    H276037   4.118   2.789   5.109 -2.5317 -0.3544 -0.2097
18208TIP3   OH276038   6.750   5.012  14.562 -0.4007  0.0261  0.4602
18208TIP3    H176039   6.723   4.924  14.586 -2.2118  0.3709 -0.1427
18208TIP3    H276040   6.757   5.059  14.646 -1.5876 -0.1381  0.6759
18209TIP3   OH276041   2.788   0.629  13.369  0.2231 -0.5146  0.1684
18209TIP3    H176042   2.775   0.539  13.399  0.7060 -0.3007  1.0502
18209TIP3    H276043   2.833   0.672  13.441  1.9163 -0.1197 -1.0628
18210TIP3   OH276044   1.787   2.688   3.050 -0.5986  0.6046 -0.0401
18210TIP3    H176045   1.746   2.727   2.973 -0.1508 -1.0937 -1.2204
18210TIP3    H276046   1.716   2.643   3.095 -0.9462  1.9801  0.8199
18211TIP3   OH276047   2.487   6.188  17.100 -0.1763  0.4449 -0.1901
18211TIP3    H176048   2.395   6.206  17.116 -0.4138 -0.8716  0.0333
18211TIP3    H276049   2.488   6.100  17.063  1.0047  0.3736 -0.0223
18212TIP3   OH276050   5.005   3.464  14.374 -0.4829  0.1212  0.2942
18212TIP3    H176051   4.964   3.546  14.347  1.6745  1.0382 -0.3877
18212TIP3    H276052   4.961   3.397  14.322 -0.9885  1.0702 -0.5323
18213TIP3   OH276053   5.278   1.566   3.016  0.0032  0.5312  0.3987
18213TIP3    H176054   5.299   1.477   3.042  1.4390  1.0996  1.3014
18213TIP3    H276055   5.285   1.566   2.920  1.0585 -0.0736  0.4712
18214TIP3   OH276056   2.635   3.553   1.625  0.4016 -0.0038 -0.7060
18214TIP3    H176057   2.641   3.566   1.720 -1.5924 -0.7290 -0.4410
18214TIP3    H276058   2.701   3.613   1.589  0.3864  1.1697  1.0772
18215TIP3   OH276059   6.767   3.331  12.331 -0.3796 -0.8045 -0.0726
18215TIP3    H176060   6.852   3.285  12.337 -0.1279 -0.4603 -0.7998
18215TIP3    H276061   6.707   3.265  12.296  0.2069 -0.3694 -2.0581
18216TIP3   OH276062   2.483   6.456   0.131 -0.3900 -0.0485  0.6178
18216TIP3    H176063   2.430   6.422   0.059 -0.9596 -0.7449  1.3479
18216TIP3    H276064   2.572   6.459   0.096 -0.7961  0.5520 -0.4230
18217TIP3   OH276065   4.395   5.272   2.984  0.8824  0.5169  0.8532
18217TIP3    H176066   4.323   5.211   2.970  0.3804  0.8551  1.8376
18217TIP3    H276067   4.434   5.245   3.067  2.2078  0.0529  0.1114
18218TIP3   OH276068   0.898   3.967   6.137  0.1365  0.0961 -0.4680
18218TIP3    H176069   0.977   4.011   6.168 -0.7321  0.3173  1.5627
18218TIP3    H276070   0.859   3.928   6.215 -2.1850  0.6417 -1.2655
18219TIP3   OH276071   2.002   0.593  17.140  0.0649 -0.3942  0.3333
18219TIP3    H176072   1.936   0.657  17.115  0.2481 -0.9126 -1.7234
18219TIP3    H276073   2.085   0.638  17.128  0.1514 -0.2073  1.4977
18220TIP3   OH276074   0.328   1.315   2.813  0.5525  0.6240 -0.1433
18220TIP3    H176075   0.275   1.392   2.791 -1.9887 -1.2129 -0.9106
18220TIP3    H276076   0.266   1.254   2.852  2.5985 -0.8840  0.9492
18221TIP3   OH276077   1.055   2.526   0.998 -0.1423 -0.4674 -0.1727
18221TIP3    H176078   1.036   2.520   0.905 -0.2056  0.3014 -0.2110
18221TIP3    H276079   1.150   2.517   1.004  0.0117  0.8080 -0.4385
18222TIP3   OH276080   6.065   4.926   0.519 -0.3244  0.3996 -0.5589
18222TIP3    H176081   6.116   5.001   0.491 -0.1247  0.0749 -1.0798
18222TIP3    H276082   6.013   4.902   0.442  0.5431 -0.7617 -0.8231
18223TIP3   OH276083   1.139   2.281  10.856  0.2165  0.2493 -0.2302
18223TIP3    H176084   1.064   2.294  10.799  0.5203  2.6465 -0.1760
18223TIP3    H276085   1.121   2.335  10.933  1.0468 -0.7933  0.7415
18224TIP3   OH276086   5.474   1.498   0.166  0.2598 -0.0246  0.1711
18224TIP3    H176087   5.563   1.532   0.173  0.4100 -0.3839  0.0545
18224TIP3    H276088   5.473   1.452   0.082 -0.9240  2.5246 -1.3161
18225TIP3   OH276089   4.277   4.004   1.512 -0.0226  0.3283  0.3863
18225TIP3    H176090   4.336   4.072   1.479  0.4311  0.5948  1.6833
18225TIP3    H276091   4.334   3.944   1.561 -0.5098 -0.6669 -0.2194
18226TIP3   OH276092   6.022   3.221   3.787 -0.1100  0.1199 -0.9207
18226TIP3    H176093   5.980   3.236   3.702 -1.3758  0.7925 -0.2228
18226TIP3    H276094   6.022   3.126   3.798 -2.2210  0.1054 -0.6289
18227TIP3   OH276095   1.165   4.708   1.875  0.1916  0.3810  0.1634
18227TIP3    H176096   1.159   4.650   1.951  0.9604 -0.5843 -0.4928
18227TIP3    H276097   1.237   4.767   1.896  0.2144  0.3047  0.3063
18228TIP3   OH276098   2.221   0.783   1.480  0.2100  0.2117  0.1333
18228TIP3    H176099   2.264   0.860   1.445  1.3612 -0.7580 -0.6916
18228TIP3    H276100   2.145   0.770   1.423  0.5956  0.1686 -0.3870
18229TIP3   OH276101   6.718   3.774  14.722 -0.2723 -0.3529  0.2471
18229TIP3    H176102   6.652   3.803  14.786  1.7901  0.7953  1.9849
18229TIP3    H276103   6.679   3.794  14.637 -2.8130 -1.2224  1.1189
18230TIP3   OH276104   5.137   2.274  13.980 -0.2751 -0.2161 -0.0141
18230TIP3    H176105   5.115   2.363  14.007 -1.7832 -0.5093 -0.1836
18230TIP3    H276106   5.055   2.238  13.947  0.3570 -1.6004 -0.1543
18231TIP3   OH276107   2.281   4.684   4.330 -0.5629 -0.5335 -0.2962
18231TIP3    H176108   2.282   4.615   4.396 -1.1389  1.0097  1.4202
18231TIP3    H276109   2.368   4.681   4.290 -1.1118 -3.2869 -1.4944
18232TIP3   OH276110   2.883   0.583  16.484  0.9955 -0.4848 -0.1016
18232TIP3    H176111   2.823   0.539  16.424 -0.0244  1.6631 -0.7527
18232TIP3    H276112   2.967   0.585  16.437  0.8038 -0.8527 -0.4633
18233TIP3   OH276113   6.200   2.507  15.494 -0.0300  0.1193 -0.3649
18233TIP3    H176114   6.184   2.422  15.537  1.5033  0.2949  0.6266
18233TIP3    H276115   6.113   2.541  15.476 -0.7007 -0.9236  0.7460
18234TIP3   OH276116   1.236   0.995   4.923 -0.1351  0.3208 -1.0242
18234TIP3    H176117   1.301   0.982   4.993  0.6065  0.4421 -1.6747
18234TIP3    H276118   1.152   0.972   4.963  0.6121 -2.7287 -0.9449
18235TIP3   OH276119   1.456   6.211  11.973 -0.4871  0.1909  0.1199
18235TIP3    H176120   1.505   6.183  11.896  0.4130 -2.0373  1.4096
18235TIP3    H276121   1.503   6.288  12.006 -0.1688  0.4038 -0.8241
18236TIP3   OH276122   4.779   1.308  13.847  0.0753 -0.2391  0.4850
18236TIP3    H176123   4.755   1.231  13.899 -0.1426 -0.7008 -0.2732
18236TIP3    H276124   4.872   1.295  13.826 -0.2110 -0.8378 -0.5031
18237TIP3   OH276125   6.521   4.461   5.976  0.3436  0.1167 -1.0482
18237TIP3    H176126   6.477   4.519   6.039  0.7094  0.5848 -1.2185
18237TIP3    H276127   6.613   4.462   6.003  0.4613  0.1223 -1.4455
18238TIP3   OH276128   5.903   5.638   2.560 -0.2896 -0.2870 -0.6253
18238TIP3    H176129   5.898   5.543   2.575  0.5597  0.0443  2.5836
18238TIP3    H276130   5.836   5.655   2.494 -0.7157 -3.0636 -1.0518
18239TIP3   OH276131   5.618   4.791  12.558  0.5488 -0.0858 -0.6417
18239TIP3    H176132   5.543   4.845  12.582  0.5332 -0.8326  1.1672
18239TIP3    H276133   5.579   4.714  12.516  0.3224 -0.2409 -0.1551
18240TIP3   OH276134   3.467   6.169   0.134 -0.0923 -0.1526 -0.9726
18240TIP3    H176135   3.452   6.245   0.078 -0.4985  0.7718  0.3311
18240TIP3    H276136   3.495   6.206   0.218  0.8605 -1.5030 -0.6516
18241TIP3   OH276137   2.633   0.859  16.911  0.4275  0.0263 -0.4925
18241TIP3    H176138   2.672   0.777  16.943 -0.3898 -0.2210 -0.0876
18241TIP3    H276139   2.707   0.916  16.893  1.0033 -0.7463 -0.6136
18242TIP3   OH276140   1.110   5.704   0.106 -0.0090  0.1356  0.1863
18242TIP3    H176141   1.166   5.657   0.168  0.3793  1.2581  0.7179
18242TIP3    H276142   1.024   5.706   0.148 -0.6886 -2.1402 -0.9085
18243TIP3   OH276143   1.572   1.912  11.596  0.2667 -0.5534  0.5057
18243TIP3    H176144   1.625   1.859  11.656  0.7068 -0.6662  0.0212
18243TIP3    H276145   1.608   1.894  11.509  0.2038  0.2732  0.2967
18244TIP3   OH276146   1.931   5.511  16.231  0.1157  0.2503 -0.0270
18244TIP3    H176147   1.998   5.467  16.283 -0.6691 -1.9274 -0.7785
18244TIP3    H276148   1.980   5.575  16.179  1.5979 -1.0892 -0.3493
18245TIP3   OH276149   5.739   5.280   0.850 -0.3631 -0.6963  0.9647
18245TIP3    H176150   5.775   5.327   0.775 -1.1355  1.7703  2.0308
18245TIP3    H276151   5.695   5.203   0.813 -1.6738  1.0269 -1.2345
18246TIP3   OH276152   3.877   0.974  11.022 -0.7581 -0.0333 -0.1050
18246TIP3    H176153   3.874   1.060  11.064 -2.6029 -0.3300  0.4561
18246TIP3    H276154   3.786   0.944  11.020 -0.0160 -2.6862  1.1718
18247TIP3   OH276155   3.914   0.972  16.496 -0.8039  0.2399  0.2383
18247TIP3    H176156   3.883   0.962  16.586 -0.9523 -0.1496  0.1444
18247TIP3    H276157   3.932   0.883  16.466 -1.8734  0.2496 -0.5052
18248TIP3   OH276158   5.584   1.021  14.360  0.3014 -0.4929 -0.1767
18248TIP3    H176159   5.615   1.103  14.398  1.0712  0.3575 -2.4792
18248TIP3    H276160   5.489   1.029  14.359  0.1248 -1.1832  2.7831
18249TIP3   OH276161   2.756   2.888  13.255 -0.4023  0.2347  0.6645
18249TIP3    H176162   2.834   2.931  13.220 -0.4938 -1.0815 -1.2886
18249TIP3    H276163   2.775   2.794  13.249 -1.9382 -0.1015  0.6095
18250TIP3   OH276164   2.903   6.353   5.165 -0.0113  0.3500 -0.5251
18250TIP3    H176165   2.958   6.286   5.123 -0.9114 -0.1471 -0.9361
18250TIP3    H276166   2.930   6.435   5.124  0.9742  0.2335 -0.1534
18251TIP3   OH276167   3.095   6.160   5.084 -0.1889 -0.6611  0.7328
18251TIP3    H176168   3.181   6.200   5.094  0.0035 -0.5698 -1.0216
18251TIP3    H276169   3.110   6.067   5.100  0.9957 -1.2126 -2.7625
18252TIP3   OH276170   1.326   1.451  16.152  0.4010 -0.2006  0.3295
18252TIP3    H176171   1.417   1.423  16.138  0.7686  0.7596  0.6914
18252TIP3    H276172   1.294   1.472  16.064  0.7722  0.1743  0.2827
18253TIP3   OH276173   2.112   1.385  10.582 -0.4620  0.5998 -0.4266
18253TIP3    H176174   2.178   1.427  10.638  0.5471 -1.3418 -0.0666
18253TIP3    H276175   2.161   1.358  10.505 -0.3195 -2.4702  0.6088
18254TIP3   OH276176   0.344   3.562  15.952  0.7458 -0.3622 -1.1967
18254TIP3    H176177   0.393   3.529  15.877  1.5058 -0.1778 -0.7924
18254TIP3    H276178   0.361   3.499  16.022  0.4812 -0.2451 -1.0240
18255TIP3   OH276179   6.568   2.817   5.139 -0.0074 -0.1909 -0.0887
18255TIP3    H176180   6.592   2.725   5.152  0.2416 -0.0867  0.1737
18255TIP3    H276181   6.638   2.853   5.084 -0.8160 -0.5113 -1.3905
18256TIP3   OH276182   3.832   1.062  13.149 -0.3625  0.3514  0.3799
18256TIP3    H176183   3.745   1.029  13.125 -0.1381 -0.1597  0.2630
18256TIP3    H276184   3.832   1.152  13.117 -0.4957  0.0502 -0.5076
18257TIP3   OH276185   0.214   6.210  15.173 -0.8638 -0.2152  0.2403
18257TIP3    H176186   0.189   6.298  15.200 -1.3818 -0.0451 -0.7621
18257TIP3    H276187   0.156   6.152  15.223 -1.0185  0.0380  0.3573
18258TIP3   OH276188   4.397   2.495   2.500  0.0098  0.0721  0.1168
18258TIP3    H176189   4.493   2.504   2.498 -0.0144  0.3624  0.2245
18258TIP3    H276190   4.381   2.424   2.561  0.1826 -0.3844 -0.3584
18259TIP3   OH276191   3.184   0.676  12.605  0.5812 -0.3331  0.3375
18259TIP3    H176192   3.172   0.713  12.692  0.7528 -3.1941  1.6797
18259TIP3    H276193   3.247   0.735  12.562 -0.3334  1.7359  1.6926
18260TIP3   OH276194   2.187   6.197  15.232  0.7136  0.4938  0.6388
18260TIP3    H176195   2.106   6.244  15.249  0.9401  1.6387 -1.1385
18260TIP3    H276196   2.172   6.109  15.266  0.1466  1.6782  3.7602
18261TIP3   OH276197   1.868   6.268   5.066 -0.0359  0.2500 -0.5292
18261TIP3    H176198   1.855   6.173   5.068 -0.6942  0.3113 -1.2277
18261TIP3    H276199   1.867   6.295   5.158 -0.4129 -0.3546 -0.3497
18262TIP3   OH276200   2.284   4.062  13.318  0.2631  0.1647 -0.0211
18262TIP3    H176201   2.340   4.112  13.377  1.2341 -2.2163  1.2352
18262TIP3    H276202   2.201   4.110  13.317  0.9252  1.4530  1.5449
18263TIP3   OH276203   0.977   1.892   5.069 -0.3257 -0.0220 -0.2750
18263TIP3    H176204   0.970   1.901   4.974 -0.2676  1.2998 -0.1591
18263TIP3    H276205   0.972   1.981   5.103  0.9339 -0.3611  0.8918
18264TIP3   OH276206   2.112   1.880  12.300 -0.4601  0.0989 -0.2582
18264TIP3    H176207   2.140   1.951  12.242 -2.0471 -1.2153 -2.8448
18264TIP3    H276208   2.046   1.920  12.357 -0.5367  0.9510 -0.9232
18265TIP3   OH276209   6.405   0.205   2.566  0.1287 -0.5927 -0.4103
18265TIP3    H176210   6.494   0.179   2.589 -0.5239 -0.5878  2.4232
18265TIP3    H276211   6.398   0.295   2.597 -0.6655 -0.3353 -1.2800
18266TIP3   OH276212   5.856   0.947  14.866  0.2013 -0.0711 -0.0206
18266TIP3    H176213   5.794   0.967  14.795  1.0071  0.0359 -0.7023
18266TIP3    H276214   5.933   1.000  14.846 -0.2246  1.4215  1.9545
18267TIP3   OH276215   4.417   3.694   1.241 -0.7855  0.0168  0.2057
18267TIP3    H176216   4.356   3.653   1.303 -0.2409  0.1652  0.8553
18267TIP3    H276217   4.404   3.645   1.160  2.0234 -3.6947  1.6879
18268TIP3   OH276218   1.640   4.438   5.702  0.2216  0.3353 -0.3814
18268TIP3    H176219   1.667   4.521   5.741 -0.1132  0.3545 -0.1852
18268TIP3    H276220   1.722   4.392   5.685  0.4073  0.6981 -0.4731
18269TIP3   OH276221   2.448   6.556   5.398 -0.0979 -0.0111  0.6142
18269TIP3    H176222   2.505   6.521   5.466  0.1607  1.0580  0.9754
18269TIP3    H276223   2.470   6.650   5.395 -1.5285  0.3412  0.4732
18270TIP3   OH276224   4.024   3.375  13.829  0.1434  0.2090 -0.5712
18270TIP3    H176225   4.051   3.466  13.819  0.2248  0.1641 -0.7471
18270TIP3    H276226   4.077   3.326  13.766  0.5807 -0.0535 -0.0073
18271TIP3   OH276227   4.762   2.389  17.117 -0.9763 -0.2669  0.1469
18271TIP3    H176228   4.820   2.392  17.041 -1.3748 -1.5081 -0.2283
18271TIP3    H276229   4.795   2.458  17.175  1.0522 -1.0977  0.0679
18272TIP3   OH276230   4.061   0.990  13.803 -0.2377  0.0084 -0.0472
18272TIP3    H176231   4.014   1.016  13.882 -0.8378  1.4031 -0.8358
18272TIP3    H276232   4.151   1.020  13.817  0.0728 -1.2418  0.7855
18273TIP3   OH276233   6.210   1.494   3.853  0.2688  0.1310 -0.2368
18273TIP3    H176234   6.115   1.487   3.857  0.4189 -2.0951  0.9916
18273TIP3    H276235   6.235   1.439   3.779  0.6099  0.7983 -0.6283
18274TIP3   OH276236   5.036   6.654  12.439 -0.3070 -0.0985  0.2971
18274TIP3    H176237   4.943   6.676  12.445 -0.6631 -1.0322 -1.1554
18274TIP3    H276238   5.038   6.577  12.381  1.4880  0.8060 -0.9242
18275TIP3   OH276239   5.399   4.288   0.007  0.4344 -0.5635 -0.0827
18275TIP3    H176240   5.375   4.212  -0.047 -0.9101  0.4578 -1.0001
18275TIP3    H276241   5.329   4.294   0.071  0.2486  0.2024 -0.3516
18276TIP3   OH276242   0.980   5.980  15.174  0.8644  0.2824  0.0979
18276TIP3    H176243   0.932   6.037  15.114 -0.5979 -2.2196 -1.3213
18276TIP3    H276244   0.945   5.893  15.156  4.1880 -1.3724  0.8570
18277TIP3   OH276245   6.259   3.721  11.570 -0.1956  0.1886  0.4168
18277TIP3    H176246   6.337   3.698  11.619  0.4241  1.1368 -0.0993
18277TIP3    H276247   6.188   3.719  11.634  1.0138  4.5675  2.2398
18278TIP3   OH276248   1.903   5.492   5.594 -0.0337 -0.0246 -0.5501
18278TIP3    H176249   1.863   5.426   5.650  0.3857  1.1252  1.1963
18278TIP3    H276250   1.937   5.558   5.655  1.7599  0.5812 -2.0959
18279TIP3   OH276251   2.194   0.485   4.908  0.5301 -0.3868  0.0108
18279TIP3    H176252   2.257   0.419   4.881  0.5292 -1.0040  1.4571
18279TIP3    H276253   2.239   0.536   4.975 -0.1066 -0.0697  0.2083
18280TIP3   OH276254   6.527   5.735   0.290  0.5349 -0.7119  0.7676
18280TIP3    H176255   6.590   5.665   0.273  1.6765  0.4536  0.0095
18280TIP3    H276256   6.573   5.795   0.349 -0.6248 -0.8480  1.8507
18281TIP3   OH276257   0.235   1.442  12.602  0.0070  0.0492  0.4606
18281TIP3    H176258   0.278   1.357  12.610  0.4399  0.3373  1.2835
18281TIP3    H276259   0.200   1.459  12.689  0.0017  0.7629  0.3226
18282TIP3   OH276260   0.895   1.541   5.672 -0.3856  0.4526 -0.3043
18282TIP3    H176261   0.830   1.493   5.723 -2.6392  2.2520 -1.2728
18282TIP3    H276262   0.895   1.499   5.587 -0.7812  0.8314 -0.4972
18283TIP3   OH276263   6.413   5.399   4.682  0.4149 -0.2154  0.5517
18283TIP3    H176264   6.459   5.383   4.599  0.0214 -0.1863  0.3270
18283TIP3    H276265   6.470   5.459   4.730  1.1794 -1.0787  0.7623
18284TIP3   OH276266   1.060   1.750   1.979  0.6273 -0.9449  0.4733
18284TIP3    H176267   0.976   1.715   1.949  0.8048 -1.3136  0.4005
18284TIP3    H276268   1.119   1.675   1.976  1.2357 -0.4464 -0.5424
18285TIP3   OH276269   3.613   5.702   0.859  0.1696  0.2985 -0.5594
18285TIP3    H176270   3.534   5.729   0.906  0.2999 -0.1450 -0.0698
18285TIP3    H276271   3.637   5.619   0.900  0.8332  0.3833 -0.7721
18286TIP3   OH276272   1.860   3.156   1.667 -0.7444  0.1679  0.0304
18286TIP3    H176273   1.921   3.230   1.663 -1.6594  0.9623 -4.2625
18286TIP3    H276274   1.782   3.191   1.711  0.5117  0.2062  2.3361
18287TIP3   OH276275   2.133   3.244   0.258 -0.6311 -0.4821 -0.1312
18287TIP3    H176276   2.192   3.319   0.266 -1.0053  0.0318 -1.8291
18287TIP3    H276277   2.047   3.279   0.282 -1.0076 -0.0316 -2.0027
18288TIP3   OH276278   1.629   6.393   0.043 -0.1234  0.2421 -0.3977
18288TIP3    H176279   1.686   6.464   0.070 -0.2685 -0.2093  1.2437
18288TIP3    H276280   1.682   6.340  -0.017  0.2051  1.3495 -1.0954
18289TIP3   OH276281   0.261   1.034  15.781 -0.1994  0.4579 -0.7090
18289TIP3    H176282   0.189   1.002  15.836  0.6063 -1.1270 -0.5159
18289TIP3    H276283   0.308   0.955  15.756  0.3331  1.2919 -2.4639
18290TIP3   OH276284   6.080   4.811  15.769 -0.0415 -0.4775  0.7926
18290TIP3    H176285   6.005   4.836  15.715  0.5525 -0.4851 -0.0550
18290TIP3    H276286   6.105   4.891  15.814 -0.7464 -0.5466  1.3299
18291TIP3   OH276287   3.766   1.240  14.249  0.1175 -0.1543  0.3584
18291TIP3    H176288   3.718   1.158  14.245 -0.6924  0.3446 -0.5135
18291TIP3    H276289   3.705   1.306  14.216  0.8720  0.7462  0.6914
18292TIP3   OH276290   4.857   1.907   1.684 -0.2377 -0.1439  0.4753
18292TIP3    H176291   4.888   1.981   1.736 -0.5908 -0.1796  0.7435
18292TIP3    H276292   4.921   1.838   1.698  0.6020  0.4013 -0.5122
18293TIP3   OH276293   5.322   3.004  12.684  0.3960 -0.6911  0.0889
18293TIP3    H176294   5.386   2.963  12.626 -0.8156 -2.1694 -0.2807
18293TIP3    H276295   5.360   3.089  12.707  2.2498 -1.3397 -0.4651
18294TIP3   OH276296   1.050   3.969   2.854 -0.0093 -0.3432  0.2393
18294TIP3    H176297   1.047   3.885   2.900 -2.0006  0.2611  1.3628
18294TIP3    H276298   1.119   4.019   2.898 -0.0177 -0.7783  0.7560
18295TIP3   OH276299   2.903   4.553  13.537  0.2791 -0.3921  0.0076
18295TIP3    H176300   2.846   4.562  13.461 -0.5600  0.1480  0.6817
18295TIP3    H276301   2.969   4.621  13.524 -0.4187  0.3430  0.2273
18296TIP3   OH276302   4.860   1.541   5.453 -0.1564  0.0643 -0.2036
18296TIP3    H176303   4.838   1.467   5.510  0.8940 -0.5731 -0.5828
18296TIP3    H276304   4.825   1.618   5.497 -1.3459 -0.6674  0.1612
18297TIP3   OH276305   1.918   4.507  12.860 -0.3021 -0.0108 -0.1477
18297TIP3    H176306   1.867   4.486  12.939 -0.6302  1.9119  0.1893
18297TIP3    H276307   1.856   4.552  12.803  0.4138  0.2375 -0.7395
18298TIP3   OH276308   2.570   0.345  14.632  0.3948  0.1079  0.0740
18298TIP3    H176309   2.561   0.431  14.673 -0.3726 -0.4550  1.1603
18298TIP3    H276310   2.501   0.342  14.566  1.5486  0.9696 -1.2097
18299TIP3   OH276311   3.853   6.113  11.599 -0.0996  0.1520  0.1754
18299TIP3    H176312   3.788   6.122  11.529  0.6026  2.9963 -0.2130
18299TIP3    H276313   3.802   6.123  11.680 -0.4701 -0.0896 -0.0237
18300TIP3   OH276314   6.289   0.145  17.071 -0.7785 -0.0767 -0.0689
18300TIP3    H176315   6.283   0.227  17.023  4.2488  0.2960 -0.6319
18300TIP3    H276316   6.249   0.163  17.156 -1.4610  2.3054 -0.8232
18301TIP3   OH276317   3.276   5.334  15.671 -0.0045  0.0703 -0.2098
18301TIP3    H176318   3.192   5.307  15.708 -0.1796 -1.3356 -1.5442
18301TIP3    H276319   3.335   5.262  15.690  0.4222  0.2422 -0.8443
18302TIP3   OH276320   3.386   4.776   5.912  0.3923 -0.1712  0.7016
18302TIP3    H176321   3.308   4.764   5.966  1.2917  0.0896  2.1079
18302TIP3    H276322   3.356   4.760   5.822 -1.2748 -0.0432  1.2040
18303TIP3   OH276323   0.264   6.143  15.919 -0.1533  0.1635  0.2762
18303TIP3    H176324   0.169   6.141  15.930 -0.1255  1.3455  0.9007
18303TIP3    H276325   0.283   6.229  15.883  0.5998 -0.4767 -0.9640
18304TIP3   OH276326   2.525   5.590   1.938 -0.4269 -0.7707  0.6673
18304TIP3    H176327   2.591   5.650   1.971 -1.2947 -0.5629  2.1303
18304TIP3    H276328   2.457   5.646   1.901 -0.1754 -0.9508 -0.0789
18305TIP3   OH276329   0.152   5.368  13.717 -0.6076  0.5007 -0.5285
18305TIP3    H176330   0.114   5.330  13.638  0.5261 -2.6824  0.3199
18305TIP3    H276331   0.227   5.419  13.686  0.4675 -1.5755 -1.4956
18306TIP3   OH276332   4.135   5.195   2.887  0.1489 -0.3042 -0.1534
18306TIP3    H176333   4.081   5.161   2.959  0.4728 -0.8405 -0.1589
18306TIP3    H276334   4.115   5.288   2.884  1.0026 -0.0400  1.3975
18307TIP3   OH276335   5.540   3.020  12.268  0.1731 -0.2378 -0.3537
18307TIP3    H176336   5.576   2.965  12.337  0.9419 -1.6104 -1.7761
18307TIP3    H276337   5.605   3.016  12.198 -0.0339  2.0282 -0.7721
18308TIP3   OH276338   6.578   4.915  11.083  0.7004  0.1420 -0.2349
18308TIP3    H176339   6.524   4.911  11.004  0.4257  1.7674 -0.1537
18308TIP3    H276340   6.621   5.000  11.080 -1.2956  1.4559  2.5546
18309TIP3   OH276341   1.903   5.536   5.043 -0.2379  0.2864 -0.3426
18309TIP3    H176342   1.899   5.564   5.135  1.5565 -1.5540  0.3763
18309TIP3    H276343   1.945   5.609   4.998  1.6929  0.0218  0.9192
18310TIP3   OH276344   3.806   1.708  17.224 -0.6680 -0.1108  0.0592
18310TIP3    H176345   3.845   1.646  17.163 -0.6686 -0.8392  0.7735
18310TIP3    H276346   3.772   1.778  17.169  0.7492  0.0542 -0.6517
18311TIP3   OH276347   3.203   5.177  10.977 -0.3341  0.2138  0.1776
18311TIP3    H176348   3.214   5.235  10.902 -0.1458  0.5520  0.4624
18311TIP3    H276349   3.208   5.089  10.941 -1.2707  0.3633 -0.3610
18312TIP3   OH276350   4.866   4.710   4.843 -0.1249  0.6051  0.8786
18312TIP3    H176351   4.807   4.663   4.902  0.2269 -0.4643  0.3861
18312TIP3    H276352   4.953   4.676   4.864  0.1890  1.3234  0.7847
18313TIP3   OH276353   3.341   2.133  14.804  0.4570 -0.0552  0.2525
18313TIP3    H176354   3.251   2.162  14.796  0.6906  0.4007 -1.0879
18313TIP3    H276355   3.393   2.205  14.768  1.2415 -0.9060 -0.3736
18314TIP3   OH276356   1.123   5.703  15.384  0.2712  0.3480  0.0173
18314TIP3    H176357   1.180   5.694  15.308 -0.0472 -0.8972 -0.0994
18314TIP3    H276358   1.170   5.661  15.455  1.2895  2.9207  0.9590
18315TIP3   OH276359   0.321   3.447  13.756  0.1965 -0.1607 -0.0849
18315TIP3    H176360   0.351   3.367  13.711 -1.3578  0.2297 -1.9426
18315TIP3    H276361   0.228   3.431  13.773  0.0724  0.9125  0.3020
18316TIP3   OH276362   4.452   1.001  16.729  0.3808  1.1523 -0.3271
18316TIP3    H176363   4.392   0.981  16.802  2.1459 -1.1545  0.6344
18316TIP3    H276364   4.457   1.096  16.727 -2.8112  1.4358 -0.0966
18317TIP3   OH276365   5.828   5.276   5.599  0.8243 -0.4036  0.0502
18317TIP3    H176366   5.828   5.182   5.618  2.1557 -0.4681 -0.1617
18317TIP3    H276367   5.902   5.288   5.540  0.3946  0.7247 -0.2830
18318TIP3   OH276368   2.743   2.738   1.547 -0.1872  0.0911 -0.0384
18318TIP3    H176369   2.725   2.822   1.505 -0.4038 -0.9859 -2.2036
18318TIP3    H276370   2.656   2.701   1.565 -0.1397 -0.8387 -1.5958
18319TIP3   OH276371   0.029   0.443  13.906  0.1545  0.4189 -0.4648
18319TIP3    H176372  -0.039   0.490  13.953  0.5643  2.7514 -2.0347
18319TIP3    H276373   0.008   0.455  13.814  1.8463 -0.0917 -0.9646
18320TIP3   OH276374   1.705   4.410  15.212 -0.3183 -0.5142 -0.0026
18320TIP3    H176375   1.669   4.323  15.196 -1.0847  0.1079 -1.9846
18320TIP3    H276376   1.782   4.415  15.155 -1.2897  0.6783 -1.2997
18321TIP3   OH276377   4.487   4.750  15.748 -0.2735  0.1804 -0.0292
18321TIP3    H176378   4.528   4.726  15.831  1.9637 -1.3635 -1.4510
18321TIP3    H276379   4.439   4.672  15.721  1.6964 -0.5818 -1.6257
18322TIP3   OH276380   5.614   5.730  16.120 -0.0647 -0.4168  0.3944
18322TIP3    H176381   5.670   5.722  16.198  0.5444  0.2369  0.0363
18322TIP3    H276382   5.563   5.809  16.135 -0.8134 -0.9278  0.6485
18323TIP3   OH276383   1.091   6.473  12.848 -0.0717  0.8652 -0.1321
18323TIP3    H176384   1.053   6.387  12.830 -0.1616  0.5551  1.4331
18323TIP3    H276385   1.076   6.487  12.941 -1.1620  3.1225 -0.5796
18324TIP3   OH276386   4.665   2.974  14.562 -0.0196  0.6857  0.0445
18324TIP3    H176387   4.613   2.913  14.511  0.2503  0.2120  0.3298
18324TIP3    H276388   4.687   3.045  14.501 -0.9114  0.8431 -0.1012
18325TIP3   OH276389   2.720   3.567  15.413  0.3426 -0.2513  0.3196
18325TIP3    H176390   2.687   3.608  15.492 -0.8172  2.6610 -1.4904
18325TIP3    H276391   2.696   3.627  15.343  2.3862 -2.0420 -2.1376
18326TIP3   OH276392   0.337   6.007   0.188 -0.6146 -0.3803 -0.1331
18326TIP3    H176393   0.321   6.048   0.274  0.1134 -0.1994 -0.0692
18326TIP3    H276394   0.426   6.035   0.166 -1.3316  0.8405 -1.6584
18327TIP3   OH276395   3.203   4.351   3.947 -0.3572 -0.5429  0.2016
18327TIP3    H176396   3.114   4.385   3.936 -1.2295 -1.1787  4.0985
18327TIP3    H276397   3.257   4.430   3.957 -1.0181 -0.1705  0.9805
18328TIP3   OH276398   6.506   2.947  16.876 -0.3187 -0.0202 -0.4619
18328TIP3    H176399   6.531   2.855  16.884 -0.7639 -0.3115 -2.1553
18328TIP3    H276400   6.557   2.979  16.802 -0.7010  0.9162 -0.3275
18329TIP3   OH276401   1.695   6.380   0.681  0.3886 -0.3595  0.5957
18329TIP3    H176402   1.694   6.287   0.706 -0.3856 -0.5886 -0.2337
18329TIP3    H276403   1.785   6.408   0.697  0.4611 -1.0674  1.5123
18330TIP3   OH276404   6.734   3.521   4.292  0.3784 -0.1502 -0.7239
18330TIP3    H176405   6.733   3.516   4.388 -0.5143 -2.9729 -0.8157
18330TIP3    H276406   6.661   3.580   4.271 -0.9904 -1.4080  0.3051
18331TIP3   OH276407   3.797   0.827  12.731  0.2487  0.3626  0.5394
18331TIP3    H176408   3.750   0.811  12.813  2.0508 -2.8424  1.1407
18331TIP3    H276409   3.888   0.840  12.758  0.8599 -0.6064 -0.9305
18332TIP3   OH276410   1.497   2.121   2.924 -0.7377  0.1469 -0.2891
18332TIP3    H176411   1.425   2.143   2.865 -1.0951 -1.5093 -0.5012
18332TIP3    H276412   1.563   2.080   2.868 -0.2598  0.2932  0.1553
18333TIP3   OH276413   0.483   1.355   4.019 -0.6356 -0.3349  0.2834
18333TIP3    H176414   0.566   1.400   4.025  0.1101 -1.6841  0.5509
18333TIP3    H276415   0.430   1.392   4.090 -1.0664  2.0117 -1.1496
18334TIP3   OH276416   6.741   2.774   2.286 -0.2878 -0.2172  0.6030
18334TIP3    H176417   6.729   2.688   2.246 -0.0244  0.4246 -0.9185
18334TIP3    H276418   6.663   2.824   2.259  0.5123  0.6228 -0.1973
18335TIP3   OH276419   0.800   0.833  15.755  0.2230  0.4052 -0.4895
18335TIP3    H176420   0.810   0.927  15.749 -0.8999  0.6154  0.4554
18335TIP3    H276421   0.826   0.811  15.844 -0.7226  0.0196 -0.2871
18336TIP3   OH276422   1.799   3.555  13.498 -0.2558 -0.2840  0.0967
18336TIP3    H176423   1.886   3.595  13.499  0.5265 -1.8167 -1.1547
18336TIP3    H276424   1.793   3.510  13.583 -0.2764  0.6529  0.6104
18337TIP3   OH276425   6.004   6.690  13.371  0.0855  0.0460 -0.0088
18337TIP3    H176426   6.037   6.625  13.433  0.2885  0.4835  0.3534
18337TIP3    H276427   5.915   6.661  13.351 -0.3706  0.4453  1.3003
18338TIP3   OH276428   5.086   5.377  13.905  0.1080  0.1521  0.0836
18338TIP3    H176429   5.102   5.405  13.815 -2.0681  0.8967 -0.1260
18338TIP3    H276430   5.115   5.451  13.958  0.6695  0.0305 -0.0506
18339TIP3   OH276431   2.281   1.647   0.184 -0.3324 -0.0344 -0.0921
18339TIP3    H176432   2.204   1.630   0.130  0.9765 -1.8521 -1.5378
18339TIP3    H276433   2.333   1.709   0.133 -0.2495  0.2242  0.2995
18340TIP3   OH276434   3.215   4.817  14.855  0.2115 -0.0441 -0.2501
18340TIP3    H176435   3.275   4.747  14.831  0.9433  0.2267  0.7284
18340TIP3    H276436   3.137   4.802  14.802  0.1639 -1.8765  0.3013
18341TIP3   OH276437   0.709   0.784   4.279 -0.1849 -0.8680 -0.9331
18341TIP3    H176438   0.786   0.790   4.222  0.1134  0.1957 -0.4410
18341TIP3    H276439   0.669   0.871   4.275  0.1591 -0.5852  0.8968
18342TIP3   OH276440   1.003   2.969   0.074  0.4293 -0.1851  0.0892
18342TIP3    H176441   0.915   2.976   0.112  0.8497 -1.1536  1.2851
18342TIP3    H276442   0.987   2.945  -0.018 -0.5488 -1.1230  0.4909
18343TIP3   OH276443   3.581   4.336  13.109 -0.1480 -0.3783 -0.3356
18343TIP3    H176444   3.526   4.398  13.158 -2.2955 -2.2890 -0.1721
18343TIP3    H276445   3.587   4.373  13.021 -0.7795  0.4103 -0.0528
18344TIP3   OH276446   3.812   4.866  12.597  0.0105 -0.1764  0.2752
18344TIP3    H176447   3.834   4.784  12.643 -0.3708 -0.7532 -0.5428
18344TIP3    H276448   3.724   4.887  12.628 -1.1538 -1.7360 -1.7270
18345TIP3   OH276449   0.953   1.779  16.020 -0.4166  0.5245  0.1875
18345TIP3    H176450   0.970   1.829  16.100  0.0360 -0.2992  0.6184
18345TIP3    H276451   0.858   1.771  16.017 -0.5000  1.4608  0.0723
18346TIP3   OH276452   1.541   0.096   0.570 -0.0086 -0.2322 -0.3180
18346TIP3    H176453   1.597   0.133   0.638 -0.0991  1.9735 -1.3606
18346TIP3    H276454   1.591   0.024   0.534  0.9953 -0.0120  0.5858
18347TIP3   OH276455   5.031   3.606  13.350 -0.0772 -1.1607 -0.1696
18347TIP3    H176456   5.052   3.699  13.342  0.4666 -1.3947 -1.9669
18347TIP3    H276457   5.060   3.582  13.438  2.7407 -0.3529 -0.7863
18348TIP3   OH276458   6.392   2.129  14.895  0.3903 -0.0974 -0.1072
18348TIP3    H176459   6.390   2.034  14.910 -0.3928  0.0425  0.7174
18348TIP3    H276460   6.304   2.159  14.919  0.3633  0.7327 -1.1436
18349TIP3   OH276461   6.759   4.953   2.886 -0.7249 -0.3849 -0.8911
18349TIP3    H176462   6.718   4.891   2.945  0.6558  0.2987  0.8709
18349TIP3    H276463   6.830   4.992   2.937  1.1357 -0.3991 -3.2702
18350TIP3   OH276464   4.122   1.240   1.273  0.6000  0.0437  0.0918
18350TIP3    H176465   4.115   1.182   1.348  1.9517 -0.9743 -0.5135
18350TIP3    H276466   4.047   1.218   1.218 -0.3387  0.7267  1.0755
18351TIP3   OH276467   1.697   5.065   3.153 -0.5250  0.4416 -0.4472
18351TIP3    H176468   1.757   5.070   3.078 -1.0984 -3.5961 -1.3747
18351TIP3    H276469   1.616   5.030   3.116 -1.7232  0.8188  1.6767
18352TIP3   OH276470   4.238   2.054   5.749 -0.2519 -0.2607  0.4555
18352TIP3    H176471   4.282   2.071   5.833 -0.1180 -1.7661  0.7140
18352TIP3    H276472   4.194   1.970   5.762  0.9364 -1.2235 -1.4409
18353TIP3   OH276473   3.695   0.925  11.396  0.6518  0.4620 -0.3844
18353TIP3    H176474   3.665   1.009  11.432 -0.0703 -0.6026  1.6742
18353TIP3    H276475   3.789   0.923  11.414  0.0694 -0.7701  3.3145
18354TIP3   OH276476   5.676   0.175   4.240  0.2367 -0.3581  0.5586
18354TIP3    H176477   5.720   0.259   4.227  1.1225 -0.8593  0.2240
18354TIP3    H276478   5.601   0.196   4.295 -1.2533  1.1330 -1.8580
18355TIP3   OH276479   3.411   5.587  11.504  0.2225 -0.4493 -0.3672
18355TIP3    H176480   3.321   5.562  11.529  0.1396 -1.2623 -1.4277
18355TIP3    H276481   3.415   5.681  11.522  0.2726 -0.9396  2.9588
18356TIP3   OH276482   4.580   6.751  16.912 -0.3811 -0.1413 -0.3656
18356TIP3    H176483   4.514   6.803  16.867  0.1322  0.5120 -0.3854
18356TIP3    H276484   4.579   6.782  17.002 -0.1954 -0.2210 -0.3346
18357TIP3   OH276485   3.885   6.424   3.144 -0.1568  1.1060  0.2398
18357TIP3    H176486   3.810   6.404   3.200 -0.6170  1.7136 -0.1578
18357TIP3    H276487   3.960   6.420   3.204 -0.5420  0.8997  0.7222
18358TIP3   OH276488   1.833   3.632   0.840 -0.2236 -0.1802 -0.2456
18358TIP3    H176489   1.793   3.719   0.850  0.2299 -0.0245  0.2714
18358TIP3    H276490   1.791   3.578   0.907 -0.3766 -0.3149 -0.4491
18359TIP3   OH276491   3.983   5.339   2.455 -0.0610 -0.3151 -0.3589
18359TIP3    H176492   3.954   5.329   2.365  0.2505 -1.0006 -0.3892
18359TIP3    H276493   4.019   5.428   2.460  0.9725 -0.6728 -1.2093
18360TIP3   OH276494   3.640   2.485  16.848 -0.4172  0.4235 -0.6906
18360TIP3    H176495   3.633   2.559  16.789 -3.2949  0.8623  0.0355
18360TIP3    H276496   3.672   2.522  16.930 -1.5032  0.8259 -0.4358
18361TIP3   OH276497   1.529   0.756   2.052 -0.0022 -0.5699 -0.0301
18361TIP3    H176498   1.548   0.665   2.073  0.4819 -0.1783  1.4041
18361TIP3    H276499   1.603   0.784   1.998  0.6294 -0.6382  0.7695
18362TIP3   OH276500   5.615   1.446   2.984 -0.1762  0.4853 -0.0188
18362TIP3    H176501   5.618   1.365   2.931 -2.3499  0.3408  0.0078
18362TIP3    H276502   5.676   1.429   3.056  0.8164 -0.3708 -1.0115
18363TIP3   OH276503   2.162   4.454  14.563 -0.0651 -0.0274 -0.2474
18363TIP3    H176504   2.231   4.474  14.626  1.2867 -1.8302 -1.0646
18363TIP3    H276505   2.113   4.382  14.604 -2.2445  1.9488  0.8266
18364TIP3   OH276506   3.428   6.233  13.433  0.4599  0.7417 -0.0652
18364TIP3    H176507   3.501   6.219  13.373  0.2371  1.7924 -0.6037
18364TIP3    H276508   3.439   6.323  13.465  0.2376  0.4013  1.0133
18365TIP3   OH276509   5.677   4.309  15.630 -0.3714 -0.4013  0.3696
18365TIP3    H176510   5.619   4.314  15.706 -0.7402  1.1001  0.0141
18365TIP3    H276511   5.749   4.368  15.651  0.4223 -1.3100  0.2730
18366TIP3   OH276512   4.038   0.237  14.849 -0.1722 -0.0842 -0.1580
18366TIP3    H176513   4.089   0.316  14.833  0.0947 -0.2371 -0.0761
18366TIP3    H276514   4.051   0.218  14.942  0.4325 -0.6815 -0.3551
18367TIP3   OH276515   1.494   0.689  15.562  0.3080  0.2315  0.1567
18367TIP3    H176516   1.437   0.762  15.587  0.9302  1.5564 -1.9596
18367TIP3    H276517   1.436   0.613  15.559 -0.7472  0.9868  0.7581
18368TIP3   OH276518   4.567   0.513  13.539 -0.3256  0.3839 -0.7769
18368TIP3    H176519   4.555   0.430  13.586 -0.1463 -0.3579 -1.9731
18368TIP3    H276520   4.627   0.490  13.467 -0.9315  1.3613 -1.6124
18369TIP3   OH276521   3.698   1.231  16.895 -0.7226 -0.3593  1.3235
18369TIP3    H176522   3.750   1.293  16.844 -0.9256 -1.7114 -0.6521
18369TIP3    H276523   3.720   1.250  16.986  2.3641 -0.0966  0.6354
18370TIP3   OH276524   3.704   1.096  12.683 -0.2579  0.4347 -0.4805
18370TIP3    H176525   3.609   1.095  12.695 -0.2000 -0.7622  0.1293
18370TIP3    H276526   3.731   1.006  12.703  1.0867  0.9318  0.0996
18371TIP3   OH276527   4.516   1.437  16.326 -0.2083  0.2117 -0.4963
18371TIP3    H176528   4.464   1.405  16.400  1.1614  0.1009  0.4571
18371TIP3    H276529   4.489   1.528  16.315  0.1784  0.4773  0.6965
18372TIP3   OH276530   5.174   0.412   3.189 -0.0239 -0.0574 -0.4398
18372TIP3    H176531   5.199   0.339   3.246 -0.9880 -0.7897 -0.9301
18372TIP3    H276532   5.253   0.429   3.137  0.0027 -1.2439 -0.8222
18373TIP3   OH276533   3.383   0.041   5.601 -0.3290 -0.1861  0.7888
18373TIP3    H176534   3.463   0.041   5.655 -0.5994  1.9930  1.2744
18373TIP3    H276535   3.358   0.133   5.596 -0.4713 -0.3028 -2.9215
18374TIP3   OH276536   4.850   4.104   0.190 -0.5855  0.1058 -0.2735
18374TIP3    H176537   4.896   4.083   0.109  0.2327  0.8490 -0.0242
18374TIP3    H276538   4.908   4.072   0.260 -0.2248  1.4055  0.0533
18375TIP3   OH276539   4.553   6.170   4.836 -0.5314  0.1800 -0.1436
18375TIP3    H176540   4.612   6.148   4.907 -2.4949  1.4765  2.0316
18375TIP3    H276541   4.543   6.088   4.786  3.0708 -0.0474 -0.7388
18376TIP3   OH276542   4.885   0.247  10.740 -0.0048 -0.1373  0.0375
18376TIP3    H176543   4.811   0.199  10.702 -0.2615  0.3528 -0.0845
18376TIP3    H276544   4.883   0.225  10.833  1.2441 -2.1788 -0.3635
18377TIP3   OH276545   1.148   3.835   3.608 -0.0100 -0.1713  0.3870
18377TIP3    H176546   1.085   3.770   3.576 -0.8255  0.6835  0.2433
18377TIP3    H276547   1.107   3.874   3.684  0.9521 -0.5774  1.1404
18378TIP3   OH276548   4.424   4.310   3.765 -0.1988 -0.2236 -0.2542
18378TIP3    H176549   4.435   4.225   3.723  0.1755 -1.8742  2.8468
18378TIP3    H276550   4.411   4.289   3.858 -0.6326  3.1072  0.5715
18379TIP3   OH276551   6.304   1.460  13.280 -0.0538  0.0515  0.1127
18379TIP3    H176552   6.322   1.399  13.351 -2.3860 -1.0263 -0.1244
18379TIP3    H276553   6.368   1.437  13.212  0.7410 -0.4153  0.9973
18380TIP3   OH276554   4.151   1.683   2.940 -0.4916 -0.3275  0.2152
18380TIP3    H176555   4.145   1.621   3.013 -0.8674 -0.8014 -0.2121
18380TIP3    H276556   4.205   1.637   2.875  0.8280  0.5482  0.6464
18381TIP3   OH276557   5.258   4.441   0.622  0.1640  0.3821  0.0578
18381TIP3    H176558   5.297   4.378   0.561 -0.0536  1.0505 -0.8019
18381TIP3    H276559   5.316   4.518   0.616  0.2048  0.4109  0.7870
18382TIP3   OH276560   2.043   2.178  14.525 -0.1563  0.5467 -0.3912
18382TIP3    H176561   2.077   2.095  14.560  0.3416  0.4852 -1.0060
18382TIP3    H276562   2.117   2.216  14.478 -0.5192  1.1240 -0.4997
18383TIP3   OH276563   4.443   2.139  16.410 -0.0897 -0.0412  0.5641
18383TIP3    H176564   4.432   2.174  16.322 -0.5313  0.0578  0.6550
18383TIP3    H276565   4.536   2.152  16.430 -0.4362  2.1266  1.0282
18384TIP3   OH276566   5.491   1.028  11.699  0.1966  0.3476 -0.3640
18384TIP3    H176567   5.490   0.933  11.690  2.2439  0.1070  1.2102
18384TIP3    H276568   5.456   1.060  11.616  1.7407 -1.7267 -1.9373
18385TIP3   OH276569   1.157   0.561  16.167 -0.4305 -0.1984 -0.0015
18385TIP3    H176570   1.095   0.515  16.224  0.5299 -0.8916  0.5044
18385TIP3    H276571   1.194   0.630  16.222 -0.1947 -0.2691 -0.0703
18386TIP3   OH276572   5.334   5.998   0.986  0.1384 -0.2019  0.3061
18386TIP3    H176573   5.339   5.914   1.033 -0.7998  0.9549  2.6402
18386TIP3    H276574   5.241   6.019   0.985  0.2022  0.1345 -1.6291
18387TIP3   OH276575   6.113   5.931  12.074 -0.4422 -0.3647 -0.1227
18387TIP3    H176576   6.106   6.018  12.113  0.0213 -1.1780  1.9463
18387TIP3    H276577   6.124   5.946  11.981 -0.8233  1.7667  0.1420
18388TIP3   OH276578   0.876   0.010  16.861 -0.4205  0.1887  0.1320
18388TIP3    H176579   0.861  -0.009  16.953 -1.0306  1.4819  0.3176
18388TIP3    H276580   0.880  -0.076  16.819 -1.5384 -0.3739  1.1346
18389TIP3   OH276581   4.063   4.090   0.553  0.2314  0.3806 -0.6542
18389TIP3    H176582   3.970   4.075   0.567  0.0903  1.5003 -0.3225
18389TIP3    H276583   4.077   4.071   0.460  0.1415 -1.9774 -0.2714
18390TIP3   OH276584   5.958   1.230   4.534  0.5956  0.3876  1.0050
18390TIP3    H176585   5.870   1.256   4.562 -0.0085 -0.2582 -0.2211
18390TIP3    H276586   5.989   1.302   4.480  0.4894  0.2716  0.7868
18391TIP3   OH276587   6.487   3.036   1.578  0.6566  0.1851 -0.1020
18391TIP3    H176588   6.543   2.980   1.524  1.5976  1.6121 -0.6477
18391TIP3    H276589   6.398   3.018   1.547  0.9316 -1.0059 -0.2457
18392TIP3   OH276590   4.218   4.600  13.011  0.5229 -0.6247  0.1313
18392TIP3    H176591   4.226   4.558  12.926 -0.5652  1.6038 -1.1816
18392TIP3    H276592   4.125   4.592  13.034  0.1532  1.3788 -0.4281
18393TIP3   OH276593   3.876   0.174  11.293  0.0145  0.0662  0.1321
18393TIP3    H176594   3.906   0.196  11.204  1.7852 -0.4773  0.5554
18393TIP3    H276595   3.897   0.252  11.345  0.0800 -0.0592  0.2946
18394TIP3   OH276596   6.190   1.051  14.974 -0.2327  0.3245 -0.2671
18394TIP3    H176597   6.102   1.052  15.011  0.0905 -1.8822  0.7204
18394TIP3    H276598   6.248   1.045  15.050  0.6849  0.1705 -0.9627
18395TIP3   OH276599   2.261   6.374  17.304 -0.1424 -0.4685 -0.1105
18395TIP3    H176600   2.177   6.356  17.347 -0.0186  0.8531  0.7418
18395TIP3    H276601   2.259   6.320  17.225 -1.4577 -1.0539  0.2816
18396TIP3   OH276602   0.003   2.996   2.670  0.0276  0.1926 -0.1169
18396TIP3    H176603  -0.031   2.916   2.631 -0.8415 -0.4703  1.8632
18396TIP3    H276604   0.069   3.027   2.609 -0.3826 -1.4359 -1.4508
18397TIP3   OH276605   6.484   3.142  14.284  0.3269  0.3341 -0.1556
18397TIP3    H176606   6.564   3.166  14.331 -0.6351  0.8104  1.2885
18397TIP3    H276607   6.413   3.173  14.340 -1.0126 -3.7538  0.7151
18398TIP3   OH276608   1.699   4.095   2.195 -0.5036  0.4078 -0.5598
18398TIP3    H176609   1.781   4.123   2.236  0.1713 -1.4927 -0.5091
18398TIP3    H276610   1.725   4.053   2.113 -1.3721 -0.5352 -0.3813
18399TIP3   OH276611   2.257   2.788   3.853  0.2238  0.4161 -0.2193
18399TIP3    H176612   2.279   2.879   3.876  0.4748  0.2974  0.0096
18399TIP3    H276613   2.165   2.792   3.829  0.4573  0.9022 -1.0965
18400TIP3   OH276614   3.677   2.019   3.126  0.2116 -0.0244  0.0587
18400TIP3    H176615   3.618   1.983   3.192  0.5406 -0.7480 -0.0389
18400TIP3    H276616   3.753   2.049   3.176  0.3068 -0.2491  0.0512
18401TIP3   OH276617   0.263   0.102   1.526 -0.2985 -0.1487  0.7587
18401TIP3    H176618   0.179   0.113   1.571 -0.5767  0.5222  0.1051
18401TIP3    H276619   0.284   0.190   1.494  0.1625 -0.5001  0.0694
18402TIP3   OH276620   3.967   6.525   1.023  0.2973  0.0678 -0.4896
18402TIP3    H176621   3.968   6.465   0.949  0.7729 -0.5583  0.0125
18402TIP3    H276622   4.057   6.557   1.029  0.3667 -0.2081  0.0672
18403TIP3   OH276623   3.335   2.879  15.322  0.1164 -0.7669 -0.1584
18403TIP3    H176624   3.325   2.917  15.235 -0.1037  0.3573  0.3305
18403TIP3    H276625   3.425   2.898  15.347 -1.0979  3.6383  1.8808
18404TIP3   OH276626   0.851   4.682   1.573  0.0995  0.5825 -0.5053
18404TIP3    H176627   0.929   4.732   1.596  0.6000 -0.5676  0.3548
18404TIP3    H276628   0.858   4.669   1.478  2.1726 -1.4266 -0.1757
18405TIP3   OH276629   4.234   3.568  11.910 -0.0310  0.3721 -0.1175
18405TIP3    H176630   4.145   3.591  11.885 -0.2670  0.5825  0.8716
18405TIP3    H276631   4.225   3.526  11.996  0.8918  1.1429  0.3825
18406TIP3   OH276632   0.844   3.432  11.736 -0.2485 -0.5556  0.5596
18406TIP3    H176633   0.897   3.500  11.778 -0.4869 -0.8610  1.3850
18406TIP3    H276634   0.895   3.352  11.747  0.8270 -0.2780 -1.8851
18407TIP3   OH276635   1.751   5.825   4.238 -0.8287  0.0537 -0.0476
18407TIP3    H176636   1.673   5.871   4.267 -0.9399 -0.3036  0.2280
18407TIP3    H276637   1.739   5.812   4.144 -0.8643  0.4494 -0.0983
18408TIP3   OH276638   3.433   3.439   4.369 -0.3602  0.6537  0.5440
18408TIP3    H176639   3.511   3.386   4.383  0.5918  1.9170  0.1885
18408TIP3    H276640   3.410   3.425   4.277 -0.1617  0.7822  0.4743
18409TIP3   OH276641   5.818   1.972   5.103  0.2594  0.4013 -0.3418
18409TIP3    H176642   5.905   2.010   5.107  0.4370  0.0410 -0.6839
18409TIP3    H276643   5.781   2.004   5.021  0.6440 -0.6323 -0.9401
18410TIP3   OH276644   3.693   0.755   2.003  0.2085 -0.6095  0.4852
18410TIP3    H176645   3.759   0.688   2.024  0.7190 -0.0199  0.7770
18410TIP3    H276646   3.738   0.838   2.018  0.0493 -0.1757 -1.3116
18411TIP3   OH276647   2.201   2.563  10.739 -0.4651  0.0926 -0.1880
18411TIP3    H176648   2.173   2.639  10.789 -2.8280 -1.4096  0.9285
18411TIP3    H276649   2.291   2.547  10.768  0.1139  2.4284 -0.5061
18412TIP3   OH276650   4.658   0.460  17.246 -0.0674 -0.0404 -0.1691
18412TIP3    H176651   4.648   0.366  17.263 -0.1602 -0.9357 -4.1453
18412TIP3    H276652   4.571   0.488  17.217  0.3855  0.8358 -0.7108
18413TIP3   OH276653   6.354   2.839  15.209  0.0116 -0.5723 -0.0059
18413TIP3    H176654   6.387   2.752  15.187 -0.5556 -0.6492 -0.5719
18413TIP3    H276655   6.406   2.866  15.285  0.3869 -1.2815 -0.0059
18414TIP3   OH276656   3.209   0.375   2.283  0.5107  0.2664 -0.1143
18414TIP3    H176657   3.142   0.444   2.282  0.3623  0.1744 -2.6048
18414TIP3    H276658   3.161   0.294   2.273  0.7506 -0.2231  2.1108
18415TIP3   OH276659   3.055   1.501   4.796  0.2414  0.3041  0.2667
18415TIP3    H176660   3.074   1.517   4.704  0.0385 -0.9254 -0.0029
18415TIP3    H276661   3.117   1.433   4.822 -0.2002  0.1137  0.8463
18416TIP3   OH276662   6.730   1.708   3.804 -0.0813 -0.0993 -0.1240
18416TIP3    H176663   6.799   1.761   3.844  1.7652 -1.2132 -1.6426
18416TIP3    H276664   6.717   1.635   3.864 -0.6338  0.5813  0.6082
18417TIP3   OH276665   1.910   2.948  17.203 -0.8648 -0.5646 -0.1269
18417TIP3    H176666   1.899   2.901  17.286 -2.4099 -0.7115 -0.3931
18417TIP3    H276667   1.985   3.005  17.218 -0.8799 -0.8767  1.2494
18418TIP3   OH276668   1.861   4.367   3.915 -0.7713  0.4117 -0.0478
18418TIP3    H176669   1.844   4.278   3.946 -1.0292  1.1046  1.9447
18418TIP3    H276670   1.917   4.356   3.839 -2.0998 -1.5211 -0.8302
18419TIP3   OH276671   3.159   4.728  10.678 -0.4885  0.0707 -0.1158
18419TIP3    H176672   3.139   4.646  10.722  0.4487  0.9592  2.0631
18419TIP3    H276673   3.073   4.767  10.660 -0.8938 -0.0889  1.3922
18420TIP3   OH276674   4.015   5.050  16.918 -0.7037  0.3266 -0.4368
18420TIP3    H176675   4.098   5.003  16.919  0.4897  2.3155  0.9728
18420TIP3    H276676   3.961   5.003  16.982 -1.0536 -1.4603 -1.9366
18421TIP3   OH276677   4.849   0.676  16.758  0.0174  0.3502 -0.0838
18421TIP3    H176678   4.895   0.641  16.835  0.7962 -1.2332 -1.2135
18421TIP3    H276679   4.805   0.754  16.791  1.4581  0.5192  1.6587
18422TIP3   OH276680   0.661   3.705   5.023  0.5232  0.1221  0.7221
18422TIP3    H176681   0.580   3.707   5.074  1.1982 -0.9112  1.8860
18422TIP3    H276682   0.652   3.777   4.960 -2.0060 -0.9780 -0.2887
18423TIP3   OH276683   5.191   3.691  12.105  0.2615 -0.0472  0.4138
18423TIP3    H176684   5.221   3.781  12.097  3.1290 -1.1003 -3.3667
18423TIP3    H276685   5.147   3.672  12.022 -0.2053 -2.1732  1.0756
18424TIP3   OH276686   6.759   5.158   0.208  0.1637 -0.3171  0.4897
18424TIP3    H176687   6.678   5.109   0.192  0.3378 -0.4950  0.1368
18424TIP3    H276688   6.776   5.148   0.301 -0.9919  0.9008  0.8647
18425TIP3   OH276689   1.354   4.733  16.819  0.7265 -0.5760  0.1249
18425TIP3    H176690   1.319   4.646  16.799  0.9370 -0.5785 -0.2515
18425TIP3    H276691   1.446   4.716  16.843  0.5254 -0.5562  0.9530
18426TIP3   OH276692   6.208   0.867   0.287  0.0397  0.2842 -0.1328
18426TIP3    H176693   6.134   0.847   0.345  0.5890  0.4960  0.6634
18426TIP3    H276694   6.169   0.877   0.200 -0.5734 -2.0913 -0.2179
18427TIP3   OH276695   3.103   1.905  11.459  0.1697  0.1368 -0.0932
18427TIP3    H176696   3.128   1.970  11.393  2.1443 -2.1947 -1.8251
18427TIP3    H276697   3.169   1.915  11.527  0.6282 -0.2002 -0.4810
18428TIP3   OH276698   0.425   0.254  14.234  0.3122  0.2064  0.0705
18428TIP3    H176699   0.354   0.289  14.288  0.1260  0.8966 -0.6012
18428TIP3    H276700   0.384   0.185  14.182 -0.3798  1.8055 -1.6694
18429TIP3   OH276701   6.507   1.210  13.204 -0.5903  0.3096  0.3516
18429TIP3    H176702   6.573   1.146  13.230  0.3688  0.8233 -0.7395
18429TIP3    H276703   6.437   1.200  13.269  0.8064  0.1670  1.8948
18430TIP3   OH276704   4.049   3.808  15.281 -0.8923 -0.8699  0.1304
18430TIP3    H176705   4.014   3.842  15.363 -0.7329 -1.3234  0.3878
18430TIP3    H276706   4.012   3.720  15.273  0.0955 -1.3237  0.3612
18431TIP3   OH276707   6.371   3.595   4.943 -0.1789  0.1830 -0.6005
18431TIP3    H176708   6.284   3.557   4.954 -0.2028 -0.4520 -2.5327
18431TIP3    H276709   6.378   3.661   5.012 -1.6350 -0.7023  0.4438
18432TIP3   OH276710   1.496   4.952  12.685  0.6710 -0.0507 -0.3038
18432TIP3    H176711   1.560   4.966  12.615  1.3413  1.3779  0.5511
18432TIP3    H276712   1.530   5.001  12.759 -0.0319 -1.5019  1.0499
18433TIP3   OH276713   6.149   1.219  16.855 -0.0868  0.0088 -0.1119
18433TIP3    H176714   6.094   1.295  16.876 -0.3204  0.0622 -0.8936
18433TIP3    H276715   6.176   1.185  16.940 -0.2530  0.7707  0.2574
18434TIP3   OH276716   0.879   6.773  13.103 -0.4392 -0.4342  0.4626
18434TIP3    H176717   0.859   6.805  13.015  1.0111  1.1361  0.6460
18434TIP3    H276718   0.796   6.738  13.135 -0.8290 -1.7565 -1.7817
18435TIP3   OH276719   3.460   5.450   0.100 -0.2712 -0.2804  0.1665
18435TIP3    H176720   3.406   5.440   0.179 -2.0193  1.0889 -0.7831
18435TIP3    H276721   3.485   5.542   0.099  1.4812 -0.7202  0.1518
18436TIP3   OH276722   3.762   1.690  11.394 -0.3263  0.0073 -0.0330
18436TIP3    H176723   3.691   1.634  11.361 -0.1016 -0.6311  0.5462
18436TIP3    H276724   3.783   1.747  11.320 -0.3631 -0.8786 -0.7507
18437TIP3   OH276725   2.011   1.713  16.263  0.0008 -0.4475  0.1278
18437TIP3    H176726   2.104   1.725  16.281 -0.5472  0.2735  2.8612
18437TIP3    H276727   1.986   1.788  16.210  0.6400  0.2602  0.8138
18438TIP3   OH276728   2.071   5.744  12.196  0.0399 -0.1087 -0.2481
18438TIP3    H176729   2.105   5.765  12.283  1.3983 -2.5619 -0.0830
18438TIP3    H276730   2.134   5.781  12.135 -2.3584  4.1674 -0.4946
18439TIP3   OH276731   3.677   4.450   2.604  0.2747 -0.0706 -0.5440
18439TIP3    H176732   3.676   4.493   2.689  1.1736  1.3720 -1.2285
18439TIP3    H276733   3.586   4.422   2.590  0.0173  0.1368  0.6485
18440TIP3   OH276734   6.256   2.334  10.939 -0.4005 -0.3537  0.1931
18440TIP3    H176735   6.302   2.376  11.012 -0.8193  0.2291  0.1277
18440TIP3    H276736   6.319   2.272  10.904  1.6909  2.6595 -1.9851
18441TIP3   OH276737   4.348   1.136   1.003  0.1803  0.1510  0.0278
18441TIP3    H176738   4.360   1.164   1.094  1.7927  0.4786 -0.2639
18441TIP3    H276739   4.255   1.112   0.998  0.1434 -0.2619  1.8662
18442TIP3   OH276740   1.489   6.148   1.050 -0.3662  0.1435 -0.0226
18442TIP3    H176741   1.557   6.155   1.118  0.4879  1.9532 -0.9745
18442TIP3    H276742   1.443   6.232   1.055 -2.3266 -0.9076  0.3289
18443TIP3   OH276743   2.295   3.453  12.796  0.0261  0.1715  0.6140
18443TIP3    H176744   2.312   3.454  12.891  1.0845  1.3033  0.4379
18443TIP3    H276745   2.357   3.389  12.761 -1.3562 -1.3557  0.8101
18444TIP3   OH276746   0.641   1.448   0.631  0.5257 -0.2773  0.0351
18444TIP3    H176747   0.671   1.494   0.553 -0.0873 -0.3030 -0.2236
18444TIP3    H276748   0.674   1.359   0.620  0.5606 -0.2452 -0.1316
18445TIP3   OH276749   1.639   0.959  15.311  0.1354  0.0793  0.1146
18445TIP3    H176750   1.572   1.025  15.294 -1.9749 -1.8257  0.5784
18445TIP3    H276751   1.601   0.877  15.279  2.2732 -1.1015  0.3764
18446TIP3   OH276752   0.910   5.918   0.024 -0.0587 -0.0279 -0.1460
18446TIP3    H176753   0.869   6.002   0.043 -0.7873 -0.6444  1.0802
18446TIP3    H276754   0.837   5.858   0.008  0.4281 -0.6126 -0.2337
18447TIP3   OH276755   1.636   5.231  13.167 -0.4415  0.3585 -0.3019
18447TIP3    H176756   1.542   5.226  13.187 -0.6810 -0.0970 -1.4259
18447TIP3    H276757   1.655   5.324  13.165  0.2349  0.5409  4.4993
18448TIP3   OH276758   2.134   6.438   6.079 -0.1918  0.1371 -0.2107
18448TIP3    H176759   2.047   6.419   6.116  0.0125  1.4681  1.0395
18448TIP3    H276760   2.174   6.498   6.142  1.7920 -0.7060 -0.5941
18449TIP3   OH276761   1.339   5.062  13.019  0.0411 -0.1232 -0.6163
18449TIP3    H176762   1.329   4.972  13.049 -1.2101  0.1796 -0.0684
18449TIP3    H276763   1.332   5.115  13.098  2.0386  0.4100 -0.7599
18450TIP3   OH276764   5.891   2.089  12.637  0.0003  0.2197 -0.1929
18450TIP3    H176765   5.879   2.080  12.732  1.0854  2.1334  0.1857
18450TIP3    H276766   5.817   2.143  12.608 -1.7550 -2.3971 -0.9543
18451TIP3   OH276767   3.918   1.092  16.234 -0.1743 -0.3298 -0.0674
18451TIP3    H176768   3.917   1.072  16.327  1.4751 -0.7584 -0.0937
18451TIP3    H276769   4.000   1.052  16.202 -0.4538  0.2309 -1.5881
18452TIP3   OH276770   2.013   3.687   3.522 -0.1356 -0.4156 -0.0093
18452TIP3    H176771   1.972   3.648   3.445 -1.0136  0.6138 -0.0869
18452TIP3    H276772   2.095   3.724   3.490 -0.8351  0.6543 -0.6328
18453TIP3   OH276773   3.528   1.216   2.637 -0.2860 -0.5549  0.6229
18453TIP3    H176774   3.552   1.174   2.554  1.2677 -0.0560  0.7902
18453TIP3    H276775   3.567   1.160   2.704 -0.3390 -0.2088  0.9457
18454TIP3   OH276776   3.524   3.906  11.269 -0.0628  0.5521  0.1433
18454TIP3    H176777   3.467   3.879  11.341  0.8535 -1.0866  0.3138
18454TIP3    H276778   3.609   3.921  11.310  0.7347 -1.4003 -0.6789
18455TIP3   OH276779   2.042   2.490  12.381  0.1807  0.3838 -0.0223
18455TIP3    H176780   2.059   2.468  12.290  1.1048 -0.8355  0.4146
18455TIP3    H276781   2.102   2.563  12.400  0.7115 -0.0222 -0.1204
18456TIP3   OH276782   4.648   3.607   5.839  0.0752  0.0682  0.3055
18456TIP3    H176783   4.597   3.577   5.914 -2.3013  3.0680  0.0808
18456TIP3    H276784   4.617   3.554   5.766 -1.8002  0.8648  0.4627
18457TIP3   OH276785   4.856   5.755  10.762 -0.0642  0.2510  0.2645
18457TIP3    H176786   4.904   5.774  10.843  1.3851  0.4302 -0.5961
18457TIP3    H276787   4.915   5.697  10.713 -0.0037  1.7257 -1.5039
18458TIP3   OH276788   4.440   0.924  10.891 -0.1059  0.4574 -0.5016
18458TIP3    H176789   4.413   0.991  10.954  0.7158 -1.5737  2.2039
18458TIP3    H276790   4.529   0.950  10.865 -0.0838  0.8206 -0.0809
18459TIP3   OH276791   2.102   2.264   4.048  0.3157 -0.0514 -0.0426
18459TIP3    H176792   2.170   2.326   4.076 -0.6209  0.8148  0.3718
18459TIP3    H276793   2.149   2.199   3.995  2.0076 -1.2402  2.7418
18460TIP3   OH276794   5.949   0.389  17.104 -0.1557  0.2795 -0.6412
18460TIP3    H176795   5.950   0.433  17.019  1.5655  1.2295 -0.1814
18460TIP3    H276796   6.004   0.444  17.160 -0.4761 -0.8377  0.8362
18461TIP3   OH276797   4.626   4.105  13.286  0.3643 -0.4039  0.1636
18461TIP3    H176798   4.604   4.196  13.305 -2.0771 -1.1064  1.0733
18461TIP3    H276799   4.694   4.083  13.349  1.7771  1.0404 -0.7628
18462TIP3   OH276800   6.350   3.096   4.991 -0.3271 -0.2035  0.2385
18462TIP3    H176801   6.317   3.055   4.912  0.2381  0.8013 -0.5486
18462TIP3    H276802   6.298   3.176   5.000  0.9091  0.6898 -0.2474
18463TIP3   OH276803   2.553   6.508  11.987 -0.1986  0.4622  0.6026
18463TIP3    H176804   2.480   6.515  12.048 -1.1414 -2.4185 -0.0374
18463TIP3    H276805   2.528   6.436  11.928  2.1421  0.9231 -1.0871
18464TIP3   OH276806   6.562   5.003   1.664  0.2864  0.1405  0.5143
18464TIP3    H176807   6.649   5.031   1.693  1.1657 -1.3059 -0.5847
18464TIP3    H276808   6.505   5.019   1.739  1.5800  0.7260  1.4087
18465TIP3   OH276809   0.336   2.495   4.036 -0.3718 -0.1396 -0.8448
18465TIP3    H176810   0.327   2.424   4.099  0.6925  0.1542 -0.3377
18465TIP3    H276811   0.381   2.455   3.961 -2.4679 -0.7232 -1.8595
18466TIP3   OH276812   4.225   1.451   6.539 -0.4198 -0.0057  0.1370
18466TIP3    H176813   4.237   1.546   6.544 -0.0022 -0.0256 -0.3247
18466TIP3    H276814   4.155   1.439   6.475  1.0509 -0.0534 -1.5842
18467TIP3   OH276815   1.397   2.348  11.761  0.1134  0.2796  0.3247
18467TIP3    H176816   1.480   2.377  11.723 -1.8011  0.8368 -4.0715
18467TIP3    H276817   1.405   2.253  11.767  1.0505  0.3165 -0.0598
18468TIP3   OH276818   6.015   5.613   1.878  0.5626  0.2331  0.4474
18468TIP3    H176819   6.038   5.700   1.845  1.8900 -0.3228 -0.1625
18468TIP3    H276820   6.086   5.591   1.939 -0.5446  0.1848  1.7593
18469TIP3   OH276821   6.284   5.226  14.950 -0.1186  0.3885  0.3831
18469TIP3    H176822   6.327   5.273  15.021 -1.0326  0.3680  0.9579
18469TIP3    H276823   6.320   5.266  14.870  1.7086 -0.2851  0.8038
18470TIP3   OH276824   5.896   4.568   2.372  0.2153 -0.0803  0.1056
18470TIP3    H176825   5.988   4.591   2.359  0.1138 -0.5571 -1.8421
18470TIP3    H276826   5.897   4.479   2.405  0.4643 -0.5254 -1.0492
18471TIP3   OH276827   4.429   1.179  16.062 -0.5865  0.3215 -0.4834
18471TIP3    H176828   4.453   1.208  16.150  0.0922 -1.0044 -0.2191
18471TIP3    H276829   4.461   1.089  16.056 -0.4533  0.4462 -2.1511
18472TIP3   OH276830   6.036   6.310  16.588 -0.0904 -0.6567  0.2877
18472TIP3    H176831   6.118   6.277  16.551  0.4082  0.5916  0.2330
18472TIP3    H276832   6.017   6.250  16.660  2.7829  0.9686  2.6134
18473TIP3   OH276833   5.160   4.355   2.612 -0.2336  0.4117 -0.0063
18473TIP3    H176834   5.188   4.405   2.536  1.4194 -0.5006 -0.0451
18473TIP3    H276835   5.077   4.314   2.585  1.8695 -2.6014 -2.6646
18474TIP3   OH276836   5.155   4.310  12.816  0.0094 -0.3842 -0.3447
18474TIP3    H176837   5.217   4.254  12.863  1.8017  0.7721 -1.1960
18474TIP3    H276838   5.071   4.293  12.858  0.7932 -2.3726  0.5651
18475TIP3   OH276839   2.042   5.652   3.935 -0.5395  0.2175  0.0078
18475TIP3    H176840   2.071   5.656   3.844 -0.1204  2.5658  0.1860
18475TIP3    H276841   1.948   5.637   3.930 -0.1723 -2.3256 -0.6897
18476TIP3   OH276842   1.780   2.954   0.398  0.1786  0.0504 -0.4968
18476TIP3    H176843   1.843   2.883   0.395 -0.9306 -1.0250  0.4035
18476TIP3    H276844   1.819   3.018   0.457  1.2398  0.2661 -1.4030
18477TIP3   OH276845   1.137   1.698   1.506 -0.0921  0.1704 -0.0099
18477TIP3    H176846   1.108   1.749   1.431  0.5806 -0.1982 -0.5358
18477TIP3    H276847   1.165   1.764   1.571 -0.5429  0.4849 -0.1330
18478TIP3   OH276848   3.027   2.849   4.854  0.5872 -0.1994  0.7398
18478TIP3    H176849   2.948   2.872   4.902  0.1978 -1.4629  0.7411
18478TIP3    H276850   3.074   2.932   4.842 -0.5388  0.4969  1.0841
18479TIP3   OH276851   3.343   0.629   6.145 -0.7851  0.3731  0.1920
18479TIP3    H176852   3.268   0.575   6.172 -0.6512 -0.6074 -1.3040
18479TIP3    H276853   3.304   0.697   6.091 -0.5823 -0.2892 -0.8006
18480TIP3   OH276854   2.195   1.014   3.962  0.3831 -0.1968 -0.0711
18480TIP3    H176855   2.156   0.979   4.042  0.8533  1.5151  0.9537
18480TIP3    H276856   2.279   1.050   3.990  1.0933 -0.6229 -1.5796
18481TIP3   OH276857   6.631   6.169  12.401 -0.3419  0.5915 -0.1080
18481TIP3    H176858   6.660   6.185  12.311 -1.3782 -0.0859 -0.5819
18481TIP3    H276859   6.573   6.243  12.420 -0.2133  0.6740 -0.0339
18482TIP3   OH276860   2.273   4.043   5.189 -0.1426  0.3941 -0.7956
18482TIP3    H176861   2.294   4.064   5.098 -1.1341  0.7326 -0.9636
18482TIP3    H276862   2.224   4.118   5.220 -2.4331 -0.9466 -0.9250
18483TIP3   OH276863   1.204   3.757  13.064 -0.0426  0.5754 -0.7012
18483TIP3    H176864   1.207   3.728  12.973  1.2788  0.1888 -0.5456
18483TIP3    H276865   1.290   3.736  13.100 -0.4353  0.9972  0.5620
18484TIP3   OH276866   5.360   5.733   1.623 -0.0824  0.1232 -0.1500
18484TIP3    H176867   5.361   5.661   1.559  1.1934 -1.7415  1.8463
18484TIP3    H276868   5.335   5.692   1.705 -1.1569  2.3672  0.7230
18485TIP3   OH276869   3.951   0.523  12.220  0.0818  0.4080  0.2038
18485TIP3    H176870   3.937   0.434  12.189  1.6937  0.0610  0.3576
18485TIP3    H276871   3.865   0.564  12.216 -0.5035 -0.8449 -0.8290
18486TIP3   OH276872   1.768   1.663   4.158 -0.7569 -0.2767 -0.0402
18486TIP3    H176873   1.705   1.597   4.132  0.0897 -1.1434  0.0733
18486TIP3    H276874   1.829   1.669   4.085  0.2806 -1.0323  0.7403
18487TIP3   OH276875   2.386   2.500  15.087  0.5480 -0.0835 -0.5928
18487TIP3    H176876   2.379   2.499  14.991  0.4183 -0.2116 -0.5821
18487TIP3    H276877   2.438   2.578  15.106  0.3491  0.0921 -0.7547
18488TIP3   OH276878   6.757   5.583   1.123 -0.4289  0.3183 -0.0003
18488TIP3    H176879   6.844   5.544   1.121 -0.4178  0.3911 -1.2408
18488TIP3    H276880   6.705   5.520   1.174  0.9385  1.6560  3.3997
18489TIP3   OH276881   5.197   2.183   0.093 -0.3415  0.6350  0.0881
18489TIP3    H176882   5.201   2.232   0.175 -1.5195 -0.8068  1.0746
18489TIP3    H276883   5.287   2.156   0.077 -0.1727  0.4265  1.2722
18490TIP3   OH276884   2.512   6.130  11.152 -0.7435  0.1829  0.2527
18490TIP3    H176885   2.434   6.082  11.124 -0.0309  0.2339 -2.0459
18490TIP3    H276886   2.518   6.203  11.090  2.6491 -1.4207 -1.5598
18491TIP3   OH276887   6.708   4.539   5.569 -0.2809 -0.0688  0.4490
18491TIP3    H176888   6.689   4.593   5.492 -0.7160  2.2616  2.0877
18491TIP3    H276889   6.802   4.519   5.561 -0.1263  0.8642 -0.2726
18492TIP3   OH276890   1.596   2.669   0.316 -0.1370  0.5869  0.2094
18492TIP3    H176891   1.604   2.733   0.245 -0.9029  3.6696  2.6778
18492TIP3    H276892   1.522   2.700   0.368  1.7543 -0.0924  3.6227
18493TIP3   OH276893   4.319   0.535  16.304  0.4924 -0.4163  0.2936
18493TIP3    H176894   4.330   0.516  16.398  1.3362  0.3362  0.3737
18493TIP3    H276895   4.406   0.517  16.267  0.4503  0.2670 -0.1485
18494TIP3   OH276896   5.012   3.600   5.529  0.1764 -0.1848 -0.3026
18494TIP3    H176897   4.970   3.632   5.608  0.3299  0.1756 -0.3653
18494TIP3    H276898   4.940   3.580   5.469  0.0446 -0.8403  0.0708
18495TIP3   OH276899   3.479   3.616  14.159  0.1328  0.0752  0.1441
18495TIP3    H176900   3.395   3.629  14.204  0.1436  0.5350  0.0344
18495TIP3    H276901   3.460   3.635  14.067 -0.2193 -2.2199 -0.3073
18496TIP3   OH276902   5.261   4.446   3.761 -0.0587 -0.4018 -0.1780
18496TIP3    H176903   5.299   4.410   3.840  0.0448 -0.0615 -0.0725
18496TIP3    H276904   5.302   4.397   3.690 -0.2744 -0.8199 -0.0183
18497TIP3   OH276905   0.820   0.446  11.520 -0.5157  0.0587  0.3523
18497TIP3    H176906   0.914   0.436  11.531  0.0281  2.1110 -1.4772
18497TIP3    H276907   0.802   0.408  11.434 -1.2451  0.1315  0.4699
18498TIP3   OH276908   4.539   0.480   2.162 -0.6961  0.5469  0.1594
18498TIP3    H176909   4.496   0.467   2.077 -0.9509  0.6596  0.2712
18498TIP3    H276910   4.626   0.443   2.150 -1.1628 -0.6401  0.2449
18499TIP3   OH276911   4.475   0.764  16.571  0.2746 -0.1069  0.3111
18499TIP3    H176912   4.481   0.835  16.635 -0.0339 -0.7736  1.0829
18499TIP3    H276913   4.551   0.778  16.513  0.6404  0.4076  0.8989
18500TIP3   OH276914   6.390   1.482  14.147 -0.1516  0.1140 -0.0012
18500TIP3    H176915   6.355   1.507  14.062  0.1549  1.2339  0.1757
18500TIP3    H276916   6.414   1.566  14.188 -1.5010 -0.2786  1.7080
18501TIP3   OH276917   3.600   3.751  11.932 -0.1750 -0.1474  0.8514
18501TIP3    H176918   3.556   3.721  11.852 -1.2675  0.9738  1.0091
18501TIP3    H276919   3.688   3.775  11.902 -0.5162  0.1106  0.0171
18502TIP3   OH276920   1.445   3.777   5.415 -0.0457  0.0761  0.1826
18502TIP3    H176921   1.518   3.719   5.393  1.4665  1.4179  1.3620
18502TIP3    H276922   1.476   3.864   5.389 -0.5542  0.8879  2.1541
18503TIP3   OH276923   5.100   3.360   3.513 -0.4808 -0.1859  0.0523
18503TIP3    H176924   5.193   3.376   3.522 -0.6390 -0.3182  2.4776
18503TIP3    H276925   5.060   3.448   3.516 -0.4559 -0.1178 -1.1310
18504TIP3   OH276926   5.520   1.716   3.104 -0.1560  0.2703 -0.2730
18504TIP3    H176927   5.502   1.634   3.058  1.1120 -0.1133 -0.1192
18504TIP3    H276928   5.606   1.743   3.074 -1.4267  2.7674 -2.0099
18505TIP3   OH276929   0.795   6.759  16.284 -0.1942 -0.5188 -0.1542
18505TIP3    H176930   0.731   6.723  16.222  0.7248  0.3283 -1.6510
18505TIP3    H276931   0.766   6.849  16.298 -1.0666 -1.0359  1.6272
18506TIP3   OH276932   6.434   5.364  15.972 -0.0270  0.2384 -0.5366
18506TIP3    H176933   6.398   5.328  15.891  2.3412  1.6339 -2.3358
18506TIP3    H276934   6.384   5.445  15.986 -1.0096 -0.4235 -0.0711
18507TIP3   OH276935   2.100   4.639  15.882 -0.0457  0.3243 -0.0048
18507TIP3    H176936   2.080   4.654  15.789 -0.3934  1.7310  0.2761
18507TIP3    H276937   2.194   4.656  15.889  0.1979 -0.8038 -0.2710
18508TIP3   OH276938   3.450   5.064   2.321  0.0134 -0.5767  0.6866
18508TIP3    H176939   3.505   5.076   2.398 -1.3218  1.4536  1.4155
18508TIP3    H276940   3.455   5.148   2.275 -1.4438 -0.7694  0.1182
18509TIP3   OH276941   2.923   4.306   0.542 -0.8120  0.2020 -0.1221
18509TIP3    H176942   2.827   4.305   0.533 -0.9538 -0.4345  1.2410
18509TIP3    H276943   2.938   4.331   0.633  0.3137 -0.3495 -0.1401
18510TIP3   OH276944   1.502   5.877   3.549 -0.1646 -0.1852 -0.0910
18510TIP3    H176945   1.501   5.959   3.499 -1.8365 -0.4367 -0.5073
18510TIP3    H276946   1.467   5.811   3.489 -0.5032 -0.8536  0.8112
18511TIP3   OH276947   5.575   5.272   4.065  0.7902 -0.0656 -0.4254
18511TIP3    H176948   5.648   5.283   4.005  0.8923 -0.2871 -0.3437
18511TIP3    H276949   5.523   5.201   4.027  0.0939  0.7309 -0.9925
18512TIP3   OH276950   2.047   2.005   5.160 -0.6197 -0.0759 -0.2114
18512TIP3    H176951   1.960   2.007   5.121 -1.1071  1.6815  0.8202
18512TIP3    H276952   2.050   2.083   5.216  1.2641 -0.6225  0.5498
18513TIP3   OH276953   0.497   4.450  11.772  0.1587 -0.4032 -0.3854
18513TIP3    H176954   0.493   4.489  11.860  0.7005 -0.9838 -0.0957
18513TIP3    H276955   0.567   4.497  11.728 -1.2902  1.1629 -1.1709
18514TIP3   OH276956   1.740   4.934  13.882 -0.3296  0.2611  0.0451
18514TIP3    H176957   1.706   4.986  13.954 -0.3444 -0.1650  0.3522
18514TIP3    H276958   1.833   4.955  13.878 -0.4392  0.7078 -0.1768
18515TIP3   OH276959   3.734   1.559   0.138 -0.5576  0.6676 -0.5194
18515TIP3    H176960   3.658   1.616   0.146 -0.6530  0.6548 -1.2597
18515TIP3    H276961   3.764   1.571   0.048 -1.0268 -0.9957 -0.9370
18516TIP3   OH276962   0.219   5.695   3.169  0.8513 -0.9394  0.1833
18516TIP3    H176963   0.244   5.627   3.106 -2.1075 -1.0232 -1.0768
18516TIP3    H276964   0.221   5.776   3.118  2.1197 -0.3933  1.0618
18517TIP3   OH276965   4.022   0.751  13.405 -0.3770 -0.1097 -0.0096
18517TIP3    H176966   4.117   0.743  13.411 -0.3758 -0.3494 -0.3553
18517TIP3    H276967   4.008   0.832  13.355 -0.3831  1.4769  2.3611
18518TIP3   OH276968   2.080   1.878   0.146 -0.4813 -0.5273  0.4543
18518TIP3    H176969   2.129   1.801   0.173 -0.6257 -1.7306 -2.3483
18518TIP3    H276970   2.118   1.903   0.062 -0.7277  2.2555  1.0605
18519TIP3   OH276971   5.466   1.436  15.203 -0.0922  0.3565 -0.3519
18519TIP3    H176972   5.510   1.355  15.177  1.8304  0.9806  0.7125
18519TIP3    H276973   5.469   1.492  15.126  1.7163  0.6443 -0.1121
18520TIP3   OH276974   6.116   5.898   0.726 -0.7461  0.0086 -0.4507
18520TIP3    H176975   6.064   5.834   0.775 -1.3614  1.2232  0.5513
18520TIP3    H276976   6.167   5.942   0.794  1.5765 -1.0744 -1.3907
18521TIP3   OH276977   6.429   1.774   2.461 -0.2163  0.4256 -0.0370
18521TIP3    H176978   6.379   1.799   2.383  0.4676  0.8130 -0.3565
18521TIP3    H276979   6.412   1.844   2.524 -0.5683  0.2390  0.0803
18522TIP3   OH276980   5.428   2.069  13.286  0.1226 -0.0955 -0.2226
18522TIP3    H176981   5.373   2.101  13.357  0.7635  0.4881  0.0331
18522TIP3    H276982   5.504   2.029  13.330  0.4868  0.2015 -0.5692
18523TIP3   OH276983   1.513   5.076  14.383  0.0395  0.7416 -0.5994
18523TIP3    H176984   1.434   5.091  14.435 -0.3601 -0.6873 -0.7417
18523TIP3    H276985   1.485   5.089  14.293 -0.7883 -2.2723 -0.8881
18524TIP3   OH276986   2.113   2.301  16.787 -0.3787 -0.0196 -0.1732
18524TIP3    H176987   2.145   2.302  16.877 -1.1780  0.2127  0.1167
18524TIP3    H276988   2.058   2.223  16.783  1.4593 -1.3611 -1.1326
18525TIP3   OH276989   1.262   1.520  16.749  0.5898 -0.1513  0.5352
18525TIP3    H176990   1.297   1.548  16.664  0.1590 -0.5617  0.2159
18525TIP3    H276991   1.322   1.557  16.813  0.9515  0.1209  0.0474
18526TIP3   OH276992   4.540   3.906   0.653  0.0796  0.3009  0.0600
18526TIP3    H176993   4.620   3.874   0.610 -0.6963 -1.8257  0.0889
18526TIP3    H276994   4.569   3.933   0.740  0.5380 -2.2168  0.7622
18527TIP3   OH276995   1.391   1.562  12.238 -0.0009 -0.0812  0.3956
18527TIP3    H176996   1.478   1.585  12.206  0.3959  0.8528  2.0338
18527TIP3    H276997   1.331   1.598  12.172  0.8202 -0.9402 -0.8770
18528TIP3   OH276998   6.383   5.732   3.736  0.3647  0.0748  0.0426
18528TIP3    H176999   6.343   5.745   3.650 -2.3764 -0.0953  1.1869
18528TIP3    H277000   6.453   5.669   3.721 -0.7099 -0.7380 -1.8974
18529TIP3   OH277001   2.804   3.213  12.977 -0.6466  0.4152  0.3259
18529TIP3    H177002   2.806   3.276  12.905 -0.9485  1.2728  1.0538
18529TIP3    H277003   2.890   3.220  13.017 -1.0791  1.2651  1.1487
18530TIP3   OH277004   5.717   4.342   1.768  0.5896 -0.2443 -0.1367
18530TIP3    H177005   5.628   4.328   1.735 -0.0597  0.9507  0.9892
18530TIP3    H277006   5.774   4.301   1.703 -0.8301 -2.8459  0.1163
18531TIP3   OH277007   3.906   1.246  11.048  0.0285  0.1453  0.0735
18531TIP3    H177008   3.864   1.329  11.069  2.3716  1.2370  0.6731
18531TIP3    H277009   3.922   1.251  10.953  1.3062  0.9546  0.3183
18532TIP3   OH277010   1.076   1.504  15.617  0.0533  0.3113  0.0301
18532TIP3    H177011   0.993   1.478  15.578 -0.0544  0.5157  0.1236
18532TIP3    H277012   1.060   1.502  15.711 -0.6157  2.8064  0.0378
18533TIP3   OH277013   1.969   3.660   6.224 -0.1354 -0.1945 -0.2397
18533TIP3    H177014   1.892   3.683   6.277  0.0253 -0.2953  0.0408
18533TIP3    H277015   1.941   3.583   6.174 -0.1389 -0.3775  0.0421
18534TIP3   OH277016   3.353   1.803   4.828  0.7294  0.0037 -0.3605
18534TIP3    H177017   3.377   1.763   4.745  2.2897 -0.2898  0.1896
18534TIP3    H277018   3.305   1.735   4.875  0.4223 -0.0502 -0.7409
18535TIP3   OH277019   6.571   0.554  11.290  0.4712 -0.0714 -0.6288
18535TIP3    H177020   6.590   0.490  11.358  1.4796  0.1420 -0.6935
18535TIP3    H277021   6.548   0.501  11.213  2.3642 -0.4150 -1.0014
18536TIP3   OH277022   4.416   1.283  14.996 -0.0558  0.0181  0.1280
18536TIP3    H177023   4.436   1.191  14.978 -0.6466  0.1426 -1.2372
18536TIP3    H277024   4.327   1.295  14.966 -0.1715  0.9234  0.7868
18537TIP3   OH277025   0.441   6.536  14.728  0.2319  0.1028  0.0259
18537TIP3    H177026   0.366   6.488  14.763  0.8979 -0.1766  1.1163
18537TIP3    H277027   0.419   6.628  14.740 -1.7568  0.2804 -3.5013
18538TIP3   OH277028   6.056   6.104   3.298 -0.2459 -0.1377 -0.4477
18538TIP3    H177029   6.063   6.033   3.235  1.1430 -0.9895  0.6204
18538TIP3    H277030   6.108   6.175   3.260 -0.3718 -0.2239 -0.7872
18539TIP3   OH277031   4.429   0.760   0.532  0.1400  0.3519  0.2185
18539TIP3    H177032   4.406   0.837   0.583 -1.4337 -0.8991  1.4700
18539TIP3    H277033   4.384   0.772   0.448  2.2478  2.1133 -0.7880
18540TIP3   OH277034   1.464   3.636  15.913 -0.3409  0.1556  0.1603
18540TIP3    H177035   1.394   3.658  15.974  0.8704  2.9929  0.6755
18540TIP3    H277036   1.515   3.569  15.958 -2.0607 -1.1502  0.2359
18541TIP3   OH277037   6.286   3.643   2.947 -0.2646 -0.2245  0.2228
18541TIP3    H177038   6.191   3.630   2.950 -0.2988 -0.2018 -0.4875
18541TIP3    H277039   6.319   3.606   3.028 -1.0821  1.4296  1.3592
18542TIP3   OH277040   6.376   4.127  17.198 -0.0239 -0.1531 -0.0231
18542TIP3    H177041   6.471   4.125  17.210  0.0595 -1.6632 -0.6886
18542TIP3    H277042   6.346   4.046  17.239 -1.0433  0.3519  0.2507
18543TIP3   OH277043   1.460   6.556  15.986 -0.0956 -0.3059 -0.0584
18543TIP3    H177044   1.402   6.579  16.059  2.1007  1.6096  1.2374
18543TIP3    H277045   1.541   6.528  16.028  0.9734  0.0969 -1.7699
18544TIP3   OH277046   0.615   6.035  15.920 -0.2259 -0.0827  0.2081
18544TIP3    H177047   0.575   5.948  15.924 -3.4894  1.2604 -0.1787
18544TIP3    H277048   0.597   6.073  16.006  1.6049  0.1003  0.5440
18545TIP3   OH277049   5.682   2.447  11.378  0.5334  0.2876  0.2809
18545TIP3    H177050   5.746   2.385  11.343 -0.2071 -0.3616  0.0479
18545TIP3    H277051   5.672   2.512  11.309  0.7111  0.2108  0.1827
18546TIP3   OH277052   2.439   0.515  17.007 -0.6185  0.3712 -0.1438
18546TIP3    H177053   2.496   0.492  17.080 -0.3704  1.4439  0.0093
18546TIP3    H277054   2.492   0.496  16.929  0.0844  1.6216 -0.0023
18547TIP3   OH277055   0.993   6.677  15.570  0.0316 -0.2502 -0.0815
18547TIP3    H177056   1.066   6.615  15.575 -0.3002 -0.6635 -0.2024
18547TIP3    H277057   0.926   6.629  15.521 -0.4769 -0.0379  0.4011
18548TIP3   OH277058   3.733   4.007   5.314 -0.4133  0.1834 -0.9375
18548TIP3    H177059   3.706   4.091   5.352 -1.1759 -0.2686 -0.4498
18548TIP3    H277060   3.797   3.972   5.377 -1.3588 -0.3694 -0.2692
18549TIP3   OH277061   4.361   2.868  13.451 -0.2576 -0.0850  0.2579
18549TIP3    H177062   4.407   2.803  13.398  1.2500  2.6918 -2.1409
18549TIP3    H277063   4.275   2.830  13.466  0.0273 -2.0184 -2.3128
18550TIP3   OH277064   6.265   2.724  12.613 -0.3786  0.3878 -0.3612
18550TIP3    H177065   6.257   2.635  12.580 -2.7998  0.3386  0.1126
18550TIP3    H277066   6.253   2.779  12.535  0.3672  0.2994 -0.5403
18551TIP3   OH277067   3.249   5.891   5.542  0.0124  0.4597 -0.3814
18551TIP3    H177068   3.163   5.932   5.537 -0.7657 -1.2015 -1.5832
18551TIP3    H277069   3.309   5.956   5.506 -0.6674  1.7337  0.7026
18552TIP3   OH277070   3.769   4.099   0.601  0.3110 -0.3196  0.2041
18552TIP3    H177071   3.800   4.155   0.672 -1.7976  0.2751  0.7376
18552TIP3    H277072   3.684   4.137   0.576  0.4801 -1.1758 -1.8816
18553TIP3   OH277073   3.566   4.005  11.025 -0.5134  0.4287 -0.1806
18553TIP3    H177074   3.568   3.975  11.116 -0.0186  1.6405  0.2367
18553TIP3    H277075   3.622   3.943  10.978  1.4770  1.3073  0.8773
18554TIP3   OH277076   2.350   4.984  11.818  0.6822 -0.0633 -0.1373
18554TIP3    H177077   2.291   5.008  11.889  0.9398  0.3640 -0.0560
18554TIP3    H277078   2.294   4.945  11.751  0.7868 -3.2014  1.4530
18555TIP3   OH277079   6.617   4.599  10.973  0.2321 -0.4924  0.8769
18555TIP3    H177080   6.537   4.554  10.945 -0.2205 -0.3443  1.8989
18555TIP3    H277081   6.688   4.540  10.945 -0.0259  0.5190 -2.2664
18556TIP3   OH277082   6.374   2.680  15.649 -0.5432 -0.0888  0.1549
18556TIP3    H177083   6.348   2.614  15.584  1.0482  0.2504 -0.9008
18556TIP3    H277084   6.299   2.688  15.708 -0.9589 -2.4694  0.0207
18557TIP3   OH277085   0.804   0.802  14.479  0.1499  0.2119  0.0095
18557TIP3    H177086   0.809   0.849  14.562  2.5253 -0.0822  0.0952
18557TIP3    H277087   0.781   0.712  14.504 -0.7254  0.4791  0.1873
18558TIP3   OH277088   2.885   1.751  13.787  0.4410  0.1767 -0.4685
18558TIP3    H177089   2.958   1.690  13.793 -1.6010 -2.5928 -1.5878
18558TIP3    H277090   2.884   1.779  13.696 -0.5876 -0.8088 -0.7810
18559TIP3   OH277091   2.832   6.371  16.828 -0.0279  0.0321  0.0562
18559TIP3    H177092   2.748   6.348  16.868  0.1292 -2.2580 -0.8339
18559TIP3    H277093   2.892   6.301  16.854  1.1940  0.7385 -0.7108
18560TIP3   OH277094   1.536   4.668  13.088 -0.2928  0.3306  0.3489
18560TIP3    H177095   1.522   4.676  12.994  0.2710 -1.9055  0.0131
18560TIP3    H277096   1.503   4.750  13.124 -1.5559  0.7947 -1.6753
18561TIP3   OH277097   2.559   3.899  17.283 -0.2291  0.6289 -0.2616
18561TIP3    H177098   2.588   3.883  17.193  0.9437 -0.4798  0.2794
18561TIP3    H277099   2.639   3.920  17.330 -0.8995  1.6491  0.4523
18562TIP3   OH277100   4.194   0.850  11.913  0.0103  0.5600 -0.1856
18562TIP3    H177101   4.123   0.826  11.972  0.9572 -0.2706  0.6444
18562TIP3    H277102   4.193   0.782  11.846  0.2611  0.3329  0.0395
18563TIP3   OH277103   2.798   5.210   2.602  0.2211 -0.2577  0.5818
18563TIP3    H177104   2.713   5.252   2.614  0.6437  0.5492  0.8047
18563TIP3    H277105   2.778   5.123   2.567 -0.7318 -0.3555  1.3537
18564TIP3   OH277106   0.170   5.818   4.708 -0.5846  0.0083  0.3855
18564TIP3    H177107   0.190   5.733   4.746  0.4559 -0.4410 -1.0695
18564TIP3    H277108   0.228   5.879   4.755 -1.1956 -0.0955  1.2949
18565TIP3   OH277109   1.451   3.687  13.809 -0.1231  0.5079  0.6096
18565TIP3    H177110   1.499   3.709  13.729 -1.7296  1.8533 -0.0485
18565TIP3    H277111   1.390   3.759  13.821 -1.5070 -0.7828  1.7635
18566TIP3   OH277112   4.452   2.038   4.586 -1.0193 -0.2501  0.4076
18566TIP3    H177113   4.441   2.119   4.635 -2.9902  0.6418 -1.3763
18566TIP3    H277114   4.366   1.996   4.589 -1.2923 -0.0568 -2.3606
18567TIP3   OH277115   6.080   1.906  10.699  0.2069 -0.1982 -0.0628
18567TIP3    H177116   6.110   1.919  10.788 -1.3976 -1.3808  0.6964
18567TIP3    H277117   6.036   1.988  10.676  1.5497  0.5176 -0.2097
18568TIP3   OH277118   4.035   6.690  14.009 -0.8244 -0.4339 -0.1528
18568TIP3    H177119   4.031   6.632  14.085 -0.1479 -0.1938  0.0703
18568TIP3    H277120   3.956   6.744  14.016 -1.7922 -1.7392 -0.7041
18569TIP3   OH277121   5.643   4.708  14.756  0.1129  0.5028 -0.0508
18569TIP3    H177122   5.585   4.658  14.814 -0.2846 -0.3598 -1.1548
18569TIP3    H277123   5.584   4.755  14.697  0.4981 -0.5486 -1.3222
18570TIP3   OH277124   4.827   1.574   0.780  0.1374  0.3272 -0.3898
18570TIP3    H177125   4.914   1.534   0.785 -0.7979 -1.7958  0.0876
18570TIP3    H277126   4.779   1.536   0.854 -0.8133  2.5412  0.2065
18571TIP3   OH277127   3.243   0.294  13.034 -0.9915  0.2508  0.1016
18571TIP3    H177128   3.241   0.226  12.967 -0.8228 -0.4286  0.7716
18571TIP3    H277129   3.336   0.311  13.048 -1.0144  0.1076  0.4399
18572TIP3   OH277130   3.507   3.320  14.733  0.2133  0.1119  0.3588
18572TIP3    H177131   3.575   3.276  14.784  0.2913 -0.0777  0.0941
18572TIP3    H277132   3.470   3.384  14.794  1.8772  1.5321 -0.0272
18573TIP3   OH277133   3.224   6.363   3.639 -0.4069  0.2522 -0.5750
18573TIP3    H177134   3.295   6.347   3.701  0.2230  1.7613 -0.8700
18573TIP3    H277135   3.186   6.446   3.667 -1.0113  0.2637 -1.3968
18574TIP3   OH277136   4.885   1.773  16.764 -0.2583  1.2849 -0.3340
18574TIP3    H177137   4.819   1.728  16.710  1.0390  1.1316 -1.8696
18574TIP3    H277138   4.857   1.757  16.854 -1.4497 -0.1126 -0.9099
18575TIP3   OH277139   4.529   5.091  15.909  0.2265 -0.2236 -0.1423
18575TIP3    H177140   4.479   5.151  15.964  0.0772  1.4691 -1.9855
18575TIP3    H277141   4.587   5.045  15.969 -0.4962  0.9278  1.5016
18576TIP3   OH277142   6.534   3.419   2.411  0.2694 -0.6382 -0.1277
18576TIP3    H177143   6.551   3.330   2.441 -1.5606 -1.6866 -2.0062
18576TIP3    H277144   6.439   3.430   2.418  0.3751  0.9229 -0.6342
18577TIP3   OH277145   3.009   0.337  14.562  0.5751  0.0998 -0.4013
18577TIP3    H177146   3.037   0.311  14.474  0.5647  1.6008 -0.8786
18577TIP3    H277147   3.073   0.297  14.621  0.3190 -1.3011 -1.0375
18578TIP3   OH277148   2.454   6.030   2.870 -0.4060  0.0029  0.1549
18578TIP3    H177149   2.413   5.981   2.942 -0.3784 -0.6724 -0.2792
18578TIP3    H277150   2.526   5.974   2.841 -0.4659  0.2287 -0.4477
18579TIP3   OH277151   2.164   5.864  14.897 -0.4114 -0.0504  0.0381
18579TIP3    H177152   2.160   5.959  14.894  0.5893 -0.0076 -2.6300
18579TIP3    H277153   2.137   5.835  14.810  1.8065 -2.0375 -0.1264
18580TIP3   OH277154   3.376   3.785  16.363 -0.0639  0.2921 -0.2736
18580TIP3    H177155   3.457   3.738  16.342 -0.8972 -2.0301  1.3360
18580TIP3    H277156   3.403   3.850  16.428  0.5796 -0.2248 -0.0117
18581TIP3   OH277157   3.949   0.939   2.781 -0.6770 -0.1266 -0.0793
18581TIP3    H177158   3.969   0.962   2.691  0.3375 -1.9356 -0.3651
18581TIP3    H277159   3.879   0.874   2.775  0.8559 -1.9050  0.2275
18582TIP3   OH277160   3.771   0.723  15.431 -0.2508  0.0251 -0.8460
18582TIP3    H177161   3.738   0.788  15.493 -0.0376  0.4559 -1.1774
18582TIP3    H277162   3.857   0.699  15.464 -1.1454 -1.6499  0.4353
18583TIP3   OH277163   5.971   6.659   4.114  0.1496 -0.0386  0.1580
18583TIP3    H177164   5.937   6.570   4.126 -1.2860  0.3619 -0.7010
18583TIP3    H277165   5.944   6.683   4.025  0.6369  1.2185  0.3282
18584TIP3   OH277166   5.724   2.288  14.585 -0.0779 -0.2107  0.6581
18584TIP3    H177167   5.668   2.221  14.546  0.7218 -1.3121  1.3291
18584TIP3    H277168   5.753   2.341  14.511  0.4104 -1.4921 -0.1043
18585TIP3   OH277169   3.434   1.934   5.244  0.1031 -0.2524 -0.4315
18585TIP3    H177170   3.492   1.858   5.247 -2.1332 -2.0338  0.1467
18585TIP3    H277171   3.419   1.957   5.336  1.7490  1.7832 -0.5902
18586TIP3   OH277172   1.365   0.403  16.139  0.1792 -0.2892  0.5535
18586TIP3    H177173   1.281   0.446  16.154 -0.7251 -1.6809 -0.2915
18586TIP3    H277174   1.343   0.321  16.096  2.1469  0.7978 -2.9319
18587TIP3   OH277175   1.116   0.979   2.172  0.2289 -0.4915 -0.1977
18587TIP3    H177176   1.123   1.004   2.264 -0.0528  1.2398 -0.6071
18587TIP3    H277177   1.200   1.002   2.134  1.0444 -2.9447 -0.0432
18588TIP3   OH277178   3.754   6.374  12.868  0.1660 -0.1506 -0.0349
18588TIP3    H177179   3.683   6.399  12.927  0.0363 -0.2280 -0.1570
18588TIP3    H277180   3.719   6.301  12.818  0.3820 -0.2789  0.0006
18589TIP3   OH277181   6.032   4.154   4.940  0.0756 -0.3712 -0.0488
18589TIP3    H177182   6.116   4.182   4.904 -0.1223  0.1331 -0.1282
18589TIP3    H277183   5.972   4.155   4.866  0.5283 -3.2076 -0.5881
18590TIP3   OH277184   2.747   4.365   3.077  0.4277 -0.2563  0.0985
18590TIP3    H177185   2.813   4.297   3.069 -1.1051 -1.6581 -1.5827
18590TIP3    H277186   2.677   4.325   3.128  0.6110  1.0321  1.4307
18591TIP3   OH277187   6.000   0.647   5.081 -0.1805 -0.4051 -0.1659
18591TIP3    H177188   5.958   0.564   5.104 -0.8034  0.3639  1.6777
18591TIP3    H277189   5.930   0.698   5.040 -0.2594 -0.1917  0.2300
18592TIP3   OH277190   0.290   6.765  13.108  0.2149 -0.2125 -0.5043
18592TIP3    H177191   0.315   6.675  13.132  0.7632 -0.5454 -2.2186
18592TIP3    H277192   0.368   6.817  13.124  0.3781 -0.3204 -0.9374
18593TIP3   OH277193   1.834   4.940  14.635  0.2543 -0.4559 -0.4319
18593TIP3    H177194   1.903   4.949  14.569  0.0665  1.4262 -0.4018
18593TIP3    H277195   1.801   5.028  14.648 -1.8724 -1.2361 -0.0969
18594TIP3   OH277196   3.504   4.233  15.018 -0.1119  0.0043  0.1192
18594TIP3    H177197   3.545   4.222  15.104 -0.7240 -0.5470  0.3448
18594TIP3    H277198   3.412   4.212  15.032 -0.4353  0.9679 -0.4431
18595TIP3   OH277199   0.866   2.078   3.630  0.2220  0.0233  0.3527
18595TIP3    H177200   0.788   2.070   3.576 -0.5667 -0.3356  1.5145
18595TIP3    H277201   0.930   2.020   3.589 -0.5412 -0.6627  0.1111
18596TIP3   OH277202   6.237   3.556  12.603 -0.7431 -0.6157  0.4135
18596TIP3    H177203   6.255   3.507  12.683  0.0712 -0.5749  0.2594
18596TIP3    H277204   6.173   3.502  12.556  0.1574 -1.5566  0.2273
18597TIP3   OH277205   2.002   5.545   4.446  0.0751 -0.2594  0.1212
18597TIP3    H177206   2.060   5.517   4.376 -1.7889 -0.4221 -1.4429
18597TIP3    H277207   1.995   5.640   4.434 -1.1926 -0.4374 -0.7290
18598TIP3   OH277208   0.751   5.915   5.688  0.3433 -0.1831 -0.2053
18598TIP3    H177209   0.752   5.877   5.600  1.5626  0.0803 -0.3279
18598TIP3    H277210   0.730   5.842   5.746  0.1532 -0.4899 -0.6573
18599TIP3   OH277211   1.327   4.661  13.700 -0.3607  0.5560  0.3045
18599TIP3    H177212   1.316   4.600  13.627 -0.5834  0.6934  0.2219
18599TIP3    H277213   1.418   4.691  13.692 -0.7124  1.4390 -0.5996
18600TIP3   OH277214   3.529   2.211   0.487  0.1740 -0.2991  0.0701
18600TIP3    H177215   3.541   2.119   0.463  0.1832 -0.2214 -0.2234
18600TIP3    H277216   3.435   2.225   0.482 -0.0700 -0.8619  2.2051
18601TIP3   OH277217   1.296   2.932  11.868 -0.0454  0.1381 -0.3171
18601TIP3    H177218   1.370   2.874  11.849  0.6386  0.8402  0.1056
18601TIP3    H277219   1.313   2.963  11.957 -1.9212 -1.2469  0.5868
18602TIP3   OH277220   2.724   3.378  11.759 -0.3533  0.2194  0.3350
18602TIP3    H177221   2.647   3.434  11.752 -0.4246  0.2551  1.2433
18602TIP3    H277222   2.779   3.404  11.685 -0.8615  0.7404  0.1308
18603TIP3   OH277223   1.479   5.458  14.676  0.0629 -0.0122  0.2636
18603TIP3    H177224   1.492   5.538  14.727  0.8077 -0.6127  1.0555
18603TIP3    H277225   1.389   5.431  14.696 -0.2636  0.7255 -0.1708
18604TIP3   OH277226   2.518   1.891  13.086 -0.1054 -0.0419  0.2610
18604TIP3    H177227   2.480   1.858  13.167  0.4114  1.3182  1.0901
18604TIP3    H277228   2.445   1.892  13.024 -0.5009 -1.1096  0.6872
18605TIP3   OH277229   2.004   4.342  11.905  0.5961  0.0424 -0.0940
18605TIP3    H177230   1.982   4.285  11.831  0.8257  0.8683 -0.8252
18605TIP3    H277231   1.972   4.296  11.982 -1.4139  0.0342 -0.8710
18606TIP3   OH277232   6.522   3.681   1.575 -0.0788 -0.3476  0.6297
18606TIP3    H177233   6.614   3.707   1.581 -0.4762  0.8543  2.2083
18606TIP3    H277234   6.523   3.587   1.588  1.0572 -0.6606 -1.2255
18607TIP3   OH277235   4.208   5.108  15.146  0.1743  0.1725  0.5871
18607TIP3    H177236   4.116   5.105  15.119  0.4042 -2.2961 -0.2175
18607TIP3    H277237   4.235   5.198  15.130 -1.5747  0.4702 -1.1058
18608TIP3   OH277238   2.279   0.252   5.565 -0.3335 -0.4226  0.8663
18608TIP3    H177239   2.249   0.317   5.501  1.1153  1.5581  2.0825
18608TIP3    H277240   2.227   0.174   5.546 -0.3515  0.2404 -2.3288
18609TIP3   OH277241   3.260   5.635  14.321 -0.0214 -0.0999 -0.1355
18609TIP3    H177242   3.344   5.616  14.280 -0.1579 -0.3607 -0.2959
18609TIP3    H277243   3.196   5.593  14.264 -0.1879 -0.8741  0.6063
18610TIP3   OH277244   1.609   3.607  14.847 -0.3379  0.0603 -0.2850
18610TIP3    H177245   1.543   3.623  14.914  0.4743  1.4436  0.2222
18610TIP3    H277246   1.571   3.540  14.791 -1.3582 -0.5599  1.1057
18611TIP3   OH277247   1.292   5.542   5.574  0.4173  0.3033 -0.5048
18611TIP3    H177248   1.353   5.608   5.543  1.0844  0.8014  1.7427
18611TIP3    H277249   1.239   5.520   5.497  2.2744  1.1014 -2.0683
18612TIP3   OH277250   1.129   4.299   3.389  0.6513  0.2069  0.2109
18612TIP3    H177251   1.083   4.379   3.363 -0.0205 -0.6829 -1.4862
18612TIP3    H277252   1.221   4.316   3.368  0.6566  0.8495  0.7155
18613TIP3   OH277253   6.626   0.387  15.192  0.1758 -0.3030 -0.3636
18613TIP3    H177254   6.662   0.333  15.122  2.4896  0.6028  0.0485
18613TIP3    H277255   6.613   0.473  15.151 -0.7859 -0.4017 -0.2842
18614TIP3   OH277256   3.041   1.334  15.662 -0.6448  0.1946  0.1677
18614TIP3    H177257   2.981   1.267  15.693  0.4141 -0.7199  0.3243
18614TIP3    H277258   3.000   1.369  15.583 -0.7457 -1.3744 -0.5076
18615TIP3   OH277259   4.010   2.085  13.952 -0.0807 -0.0108  0.3220
18615TIP3    H177260   3.946   2.015  13.943 -0.1503  0.0497  0.3442
18615TIP3    H277261   3.974   2.141  14.021  0.8775 -0.9439  1.6239
18616TIP3   OH277262   3.135   5.614  14.567  0.2088 -0.1981  0.0860
18616TIP3    H177263   3.201   5.597  14.501  1.0832  1.1002  0.5814
18616TIP3    H277264   3.053   5.624  14.517  0.5101 -1.0523 -0.6011
18617TIP3   OH277265   6.549   5.402   5.857  0.0262  0.6199 -0.2016
18617TIP3    H177266   6.615   5.458   5.815  0.4345 -0.2413 -0.7450
18617TIP3    H277267   6.550   5.428   5.949  0.5880  1.1311 -0.3456
18618TIP3   OH277268   0.186   0.503  16.891  0.0963 -0.3696 -0.4422
18618TIP3    H177269   0.100   0.464  16.909  0.2392 -0.2606  0.5496
18618TIP3    H277270   0.169   0.597  16.887  0.3768 -0.1980  1.3185
18619TIP3   OH277271   6.612   5.842  15.260  0.0238 -0.4657 -0.3043
18619TIP3    H177272   6.616   5.773  15.194  1.3110 -1.5615  0.8774
18619TIP3    H277273   6.557   5.806  15.330  0.8725 -0.3914  0.4176
18620TIP3   OH277274   0.081   3.404   3.893  0.4345 -0.5532  0.2496
18620TIP3    H177275   0.084   3.344   3.967  1.7095 -2.6912 -1.4364
18620TIP3    H277276  -0.010   3.433   3.890 -0.0920 -1.9575  1.4526
18621TIP3   OH277277   4.767   1.131  16.168  0.2977 -0.4507  0.0929
18621TIP3    H177278   4.689   1.076  16.166 -1.3516  1.7254 -2.6064
18621TIP3    H277279   4.762   1.178  16.251 -0.3619 -1.5156  0.6706
18622TIP3   OH277280   2.542   3.383   4.180  0.1505 -0.4127  0.6156
18622TIP3    H177281   2.623   3.348   4.143  1.4778  0.7996  2.2025
18622TIP3    H277282   2.527   3.465   4.132  1.5816  0.8889  2.2439
18623TIP3   OH277283   1.200   5.626   5.090  0.1870 -0.2460  0.0999
18623TIP3    H177284   1.153   5.687   5.033  0.1522 -0.6032 -0.2573
18623TIP3    H277285   1.194   5.542   5.045  0.3451 -0.4882  0.5273
18624TIP3   OH277286   0.691   1.011  16.979 -0.4112  0.6898 -0.1513
18624TIP3    H177287   0.780   1.047  16.981 -0.4197  0.7284 -0.3934
18624TIP3    H277288   0.640   1.077  16.932 -0.1833 -0.1662 -1.6775
18625TIP3   OH277289   6.761   4.445   5.051  0.5373 -0.3582  0.0850
18625TIP3    H177290   6.844   4.416   5.089  0.5755  0.5215  0.7186
18625TIP3    H277291   6.783   4.471   4.962  0.6925 -1.2777 -0.1564
18626TIP3   OH277292   1.797   5.431  16.874  0.3881 -0.1065  0.3597
18626TIP3    H177293   1.849   5.485  16.933 -0.3467 -0.1030  1.0171
18626TIP3    H277294   1.803   5.475  16.789 -0.4402  1.2091  0.9437
18627TIP3   OH277295   4.045   2.555  16.656  0.0814  0.1634  0.2246
18627TIP3    H177296   4.088   2.508  16.584  0.6754  1.7631 -0.5168
18627TIP3    H277297   4.052   2.496  16.730  1.8340 -0.4636 -0.3728
18628TIP3   OH277298   5.182   0.589   4.725  0.1680 -0.2178 -0.1410
18628TIP3    H177299   5.162   0.547   4.641 -0.1967 -1.6858  0.6308
18628TIP3    H277300   5.149   0.527   4.790  1.4583  0.3499  1.0978
18629TIP3   OH277301   4.655   5.712  15.538 -0.0485  0.2676 -0.2106
18629TIP3    H177302   4.613   5.729  15.453 -0.3207  1.8822  0.2227
18629TIP3    H277303   4.593   5.744  15.602  0.5256 -0.1795  0.5817
18630TIP3   OH277304   5.404   3.209   0.495 -0.1049  0.2941  0.0701
18630TIP3    H177305   5.437   3.299   0.492  0.1780  0.1704 -0.7732
18630TIP3    H277306   5.354   3.199   0.414 -0.1376 -0.3088  0.1588
18631TIP3   OH277307   4.830   1.810  14.396  0.2247 -0.4426 -0.3410
18631TIP3    H177308   4.776   1.879  14.357  0.3173 -0.1723  0.0005
18631TIP3    H277309   4.779   1.730  14.384 -0.5143 -0.1104  0.4549
18632TIP3   OH277310   4.453   0.388   1.404 -0.6616  0.1164 -0.9092
18632TIP3    H177311   4.377   0.427   1.362 -1.1314  0.8640  0.5537
18632TIP3    H277312   4.446   0.295   1.386 -0.8523  0.3972 -2.4194
18633TIP3   OH277313   2.412   2.863   0.191 -0.4483 -0.1052  0.1665
18633TIP3    H177314   2.494   2.871   0.143  0.0086  0.2077  0.9790
18633TIP3    H277315   2.364   2.793   0.146  0.1123 -0.0490 -0.5235
18634TIP3   OH277316   0.001   6.428  13.722  0.3921  0.2965  0.5589
18634TIP3    H177317   0.055   6.403  13.647 -0.7010  1.7603 -0.8070
18634TIP3    H277318   0.024   6.520  13.737 -0.7123  0.5346  0.8333
18635TIP3   OH277319   4.346   5.847   4.263 -0.2063 -0.6881  0.1228
18635TIP3    H177320   4.380   5.778   4.321  1.0487  0.1210  0.3914
18635TIP3    H277321   4.253   5.852   4.284 -0.4046 -2.4972 -0.1174
18636TIP3   OH277322   0.084   5.319  14.278  0.1292  0.4311  0.0982
18636TIP3    H177323   0.148   5.389  14.293 -1.7186  2.4686 -0.8540
18636TIP3    H277324   0.002   5.354  14.313 -0.7900 -1.4811 -0.0055
18637TIP3   OH277325   5.966   2.753   1.798 -0.0042 -0.1709 -0.4697
18637TIP3    H177326   5.972   2.831   1.743 -1.2111 -0.4706 -1.0563
18637TIP3    H277327   5.884   2.764   1.847  0.2784 -0.6433  0.1226
18638TIP3   OH277328   2.040   5.856   1.834 -0.3426  0.1543  0.4155
18638TIP3    H177329   1.964   5.890   1.881 -0.9261 -0.4755 -0.0376
18638TIP3    H277330   2.004   5.823   1.751  0.5632  0.6603 -0.2027
18639TIP3   OH277331   0.725   4.857   2.321 -0.0587 -0.2319  0.0662
18639TIP3    H177332   0.644   4.806   2.323 -0.1618 -0.0496  0.9927
18639TIP3    H277333   0.794   4.794   2.341  0.0221 -0.3643 -0.6111
18640TIP3   OH277334   2.558   0.053  16.015 -0.1613 -0.1436  0.5338
18640TIP3    H177335   2.616   0.128  16.006 -0.3324 -0.1196 -0.5283
18640TIP3    H277336   2.486   0.084  16.069  0.1027  0.2561  0.6582
18641TIP3   OH277337   6.011   0.506  11.039  0.3196  0.9402 -0.4768
18641TIP3    H177338   5.966   0.578  10.995  0.3809  0.9691 -0.4921
18641TIP3    H277339   5.944   0.467  11.096  0.3159  1.0741 -0.3909
18642TIP3   OH277340   0.058   0.369   4.673  0.2418  0.2687 -0.3899
18642TIP3    H177341   0.045   0.330   4.760  0.3013  0.1348 -0.4411
18642TIP3    H277342   0.060   0.295   4.613 -2.0347  0.4642 -0.7872
18643TIP3   OH277343   3.286   4.372  14.082 -0.2279 -0.2622  0.3640
18643TIP3    H177344   3.268   4.353  13.990 -0.7977  0.2809  0.3526
18643TIP3    H277345   3.362   4.319  14.103 -0.7230 -1.1925 -0.1327
18644TIP3   OH277346   5.691   4.606   4.535  0.6388 -0.0461  0.3323
18644TIP3    H177347   5.648   4.691   4.521  1.1466  0.5360  2.0582
18644TIP3    H277348   5.759   4.602   4.468 -1.1734 -0.3818 -1.5880
18645TIP3   OH277349   5.215   2.681  16.611 -0.4850  0.2057  0.0725
18645TIP3    H177350   5.167   2.741  16.554  0.4226  1.5905  0.6806
18645TIP3    H277351   5.304   2.682  16.576 -0.2008  0.1142  0.7720
18646TIP3   OH277352   0.650   6.315  11.161  0.2539  0.4582  0.4441
18646TIP3    H177353   0.731   6.366  11.152 -1.0500  2.3952 -1.1847
18646TIP3    H277354   0.589   6.355  11.099 -1.3891 -2.1459  0.1949
18647TIP3   OH277355   4.133   2.215   1.603  0.4761  0.2817  0.2211
18647TIP3    H177356   4.059   2.154   1.594 -0.5655  1.4235  0.7981
18647TIP3    H277357   4.181   2.183   1.679 -0.4218  0.5279  0.9032
18648TIP3   OH277358   3.330   3.762  16.982  0.1894 -0.0331 -0.3905
18648TIP3    H177359   3.333   3.696  16.913  2.5120  0.5416 -0.9101
18648TIP3    H277360   3.236   3.782  16.991 -0.9103 -4.6602  1.1352
18649TIP3   OH277361   3.987   1.354  16.191 -0.6833 -0.7881 -0.4437
18649TIP3    H177362   3.921   1.422  16.205  1.3030  1.1681 -0.1302
18649TIP3    H277363   3.946   1.274  16.223 -2.1753  0.6923  1.5691
18650TIP3   OH277364   3.150   2.833  13.524 -0.1065 -0.8383 -0.9472
18650TIP3    H177365   3.078   2.877  13.479 -1.8393 -2.2219  0.3143
18650TIP3    H277366   3.219   2.899  13.531 -1.7749  0.9821 -1.0045
18651TIP3   OH277367   4.655   3.802  15.355 -0.1040 -0.2919 -0.2618
18651TIP3    H177368   4.561   3.791  15.359 -0.0184 -0.7818  0.6129
18651TIP3    H277369   4.668   3.878  15.298 -0.9456 -1.1703 -1.6993
18652TIP3   OH277370   0.385   2.956   3.410 -0.9132 -0.1758  0.0268
18652TIP3    H177371   0.397   3.047   3.437  0.6651 -0.6474  1.0147
18652TIP3    H277372   0.302   2.957   3.362 -2.3162  1.2819  2.3104
18653TIP3   OH277373   4.868   5.909  14.524  0.1004 -0.3899 -0.4851
18653TIP3    H177374   4.933   5.895  14.455 -1.3957 -2.4263 -1.6137
18653TIP3    H277375   4.785   5.881  14.484 -1.2693  0.8736  1.3089
18654TIP3   OH277376   5.972   6.141   5.574 -0.1685 -0.3345  0.0017
18654TIP3    H177377   5.969   6.087   5.494  2.0630 -0.3519 -0.1407
18654TIP3    H277378   6.005   6.081   5.641 -0.6639  0.0675  0.6092
18655TIP3   OH277379   0.090   4.902  13.078  0.0703  0.0042 -0.2667
18655TIP3    H177380   0.066   4.984  13.037 -0.7654  1.0812  2.2056
18655TIP3    H277381   0.171   4.921  13.126  0.9815 -1.1818 -1.2630
18656TIP3   OH277382   3.933   0.016   0.873  0.0688 -0.1029  0.0419
18656TIP3    H177383   3.949   0.050   0.785  1.2327 -0.8319 -0.0473
18656TIP3    H277384   3.923  -0.078   0.861 -3.1416  0.1050  0.2870
18657TIP3   OH277385   1.507   5.303   3.386  0.0709  0.1919 -0.1341
18657TIP3    H177386   1.549   5.294   3.472  1.6592  1.4580 -0.7155
18657TIP3    H277387   1.579   5.294   3.324 -0.8031  0.8443 -1.2707
18658TIP3   OH277388   5.952   5.342  10.992  0.0038  0.4754  0.2905
18658TIP3    H177389   5.955   5.422  11.043  0.5650  1.5207 -1.2854
18658TIP3    H277390   6.043   5.314  10.987 -0.0093  0.5300 -0.3288
18659TIP3   OH277391   5.468   0.133  13.603 -0.3220  0.4470  0.0611
18659TIP3    H177392   5.491   0.187  13.528 -0.9264 -0.3144 -0.6968
18659TIP3    H277393   5.551   0.112  13.644  0.0479  0.5755 -0.6040
18660TIP3   OH277394   0.746   1.160   6.080  0.2743 -0.2661  0.1373
18660TIP3    H177395   0.812   1.104   6.122  1.4395  0.8517 -0.1660
18660TIP3    H277396   0.713   1.215   6.152  0.3382 -0.1972  0.1141
18661TIP3   OH277397   2.359   3.098   0.276  0.4479  0.3701 -0.0937
18661TIP3    H177398   2.271   3.134   0.275  0.0889 -0.3507  1.7176
18661TIP3    H277399   2.347   3.003   0.274  1.1388  0.2497  0.8983
18662TIP3   OH277400   0.672   4.192   2.246 -0.3568 -0.9079  0.8236
18662TIP3    H177401   0.589   4.207   2.291 -0.3118  0.1470  0.5877
18662TIP3    H277402   0.646   4.164   2.158 -0.6234  2.8305 -0.4759
18663TIP3   OH277403   4.610   2.547  12.103 -0.0804  0.0379  0.5472
18663TIP3    H177404   4.592   2.487  12.030 -1.7662  1.4375 -0.2464
18663TIP3    H277405   4.524   2.574  12.134  0.4992 -1.4250  3.9350
18664TIP3   OH277406   0.599   1.370  12.420  0.7062 -0.2359 -0.2490
18664TIP3    H177407   0.607   1.396  12.328 -0.7229  0.1883 -0.2907
18664TIP3    H277408   0.618   1.450  12.469 -0.6356  0.1319 -0.2753
18665TIP3   OH277409   3.124   2.426   3.644  0.0020 -0.1453  0.5695
18665TIP3    H177410   3.150   2.503   3.693  1.5321  0.0122 -0.4312
18665TIP3    H277411   3.198   2.366   3.651 -0.8577 -1.2422  0.7086
18666TIP3   OH277412   3.415   2.803   0.686 -0.1655 -0.6404  0.4299
18666TIP3    H177413   3.491   2.784   0.631 -0.6149 -0.0558 -0.4224
18666TIP3    H277414   3.387   2.718   0.718  0.4553 -0.9308  0.2225
18667TIP3   OH277415   2.808   5.962  15.966 -0.8559 -0.3256 -0.4984
18667TIP3    H177416   2.897   5.984  15.939 -1.1196  1.5770  0.0794
18667TIP3    H277417   2.806   5.866  15.963  1.6533 -0.5149  0.8306
18668TIP3   OH277418   4.468   0.137  16.089  0.0114 -0.0717 -0.1693
18668TIP3    H177419   4.485   0.050  16.126 -0.9276  0.0435  0.5726
18668TIP3    H277420   4.459   0.121  15.995  1.1024 -0.5743 -0.2029
18669TIP3   OH277421   0.860   5.572  12.805 -0.2190 -0.7262  0.1256
18669TIP3    H177422   0.952   5.600  12.801 -0.1336 -0.9512  0.4980
18669TIP3    H277423   0.847   5.524  12.723 -0.3376  0.3045 -0.4685
18670TIP3   OH277424   2.432   1.968   3.100  0.1452  0.2746 -0.6133
18670TIP3    H177425   2.440   1.974   3.004 -1.8407  0.2840 -0.8236
18670TIP3    H277426   2.355   2.020   3.120 -0.5976 -1.2893  0.7750
18671TIP3   OH277427   0.732   6.156  16.233  0.6583 -0.1615 -0.4636
18671TIP3    H177428   0.776   6.078  16.197  0.7259 -0.9533  1.2544
18671TIP3    H277429   0.759   6.158  16.325  0.9217  2.1085 -0.5474
18672TIP3   OH277430   3.216   6.233  11.862  0.4558 -0.4384  0.5626
18672TIP3    H177431   3.140   6.286  11.886 -0.0447 -0.4100 -0.9969
18672TIP3    H277432   3.239   6.262  11.774  0.5307 -2.3829 -0.1109
18673TIP3   OH277433   2.262   2.318   4.455  0.2627  0.0125 -0.0296
18673TIP3    H177434   2.298   2.236   4.489  2.4389  1.7077  2.1276
18673TIP3    H277435   2.197   2.344   4.520  0.0764  0.3450 -0.3450
18674TIP3   OH277436   5.215   3.357   6.295  0.2065 -0.0838 -0.0086
18674TIP3    H177437   5.236   3.296   6.366 -0.8050  0.1697  0.5221
18674TIP3    H277438   5.293   3.412   6.287  0.6791 -0.6892  0.2857
18675TIP3   OH277439   0.555   6.148   2.806 -0.0303 -0.4506  0.0356
18675TIP3    H177440   0.620   6.179   2.743 -1.0473 -1.5101 -1.6122
18675TIP3    H277441   0.607   6.117   2.880  1.2130  0.8315 -0.2594
18676TIP3   OH277442   1.037   0.619  13.949  0.1103  0.1508  0.1557
18676TIP3    H177443   0.946   0.589  13.942 -0.3916  1.3322  1.1626
18676TIP3    H277444   1.030   0.715  13.946  1.3121  0.2495  0.3938
18677TIP3   OH277445   1.241   6.743  11.943  0.2559 -0.0134  0.0962
18677TIP3    H177446   1.332   6.718  11.924  1.5620  3.8756  0.2261
18677TIP3    H277447   1.211   6.785  11.862 -1.0093 -0.1961  0.4562
18678TIP3   OH277448   6.547   1.773   5.205  0.3045 -0.0073  0.0177
18678TIP3    H177449   6.531   1.679   5.193  1.7394 -0.1315 -1.1280
18678TIP3    H277450   6.565   1.782   5.299 -2.1336 -0.4680  0.6094
18679TIP3   OH277451   5.109   6.634   5.969  0.1562 -0.0061 -0.4585
18679TIP3    H177452   5.125   6.726   5.988 -0.0720  0.5778 -2.7393
18679TIP3    H277453   5.109   6.591   6.054 -2.0962  2.4665  0.9597
18680TIP3   OH277454   2.911   6.677  14.539 -0.5496 -0.2065 -0.3309
18680TIP3    H177455   2.861   6.736  14.481  0.6588  0.4492 -0.7453
18680TIP3    H277456   2.856   6.668  14.617 -0.9607  1.1448 -0.4351
18681TIP3   OH277457   4.743   3.801  17.169  0.4402  0.3303  0.2034
18681TIP3    H177458   4.665   3.756  17.139 -0.1489  1.7851 -0.5589
18681TIP3    H277459   4.816   3.753  17.129 -0.1535  0.0237 -0.5173
18682TIP3   OH277460   2.633   0.216   1.391 -0.7258  0.0914  0.2945
18682TIP3    H177461   2.706   0.188   1.447  0.1318  1.5266 -0.0638
18682TIP3    H277462   2.661   0.192   1.302 -1.2654 -0.5089  0.2821
18683TIP3   OH277463   1.109   1.756  13.077 -0.4710 -0.2665 -0.7632
18683TIP3    H177464   1.187   1.798  13.113 -0.3813 -0.8421 -0.2765
18683TIP3    H277465   1.043   1.826  13.074 -0.2037  0.0054 -0.3518
18684TIP3   OH277466   3.891   2.802  11.880  0.1157  0.2353 -0.2359
18684TIP3    H177467   3.845   2.880  11.849 -1.6523 -0.3953  0.6802
18684TIP3    H277468   3.950   2.778  11.808  0.3686  2.1382 -0.7056
18685TIP3   OH277469   5.538   4.701  16.169 -0.3686 -0.2565  0.6703
18685TIP3    H177470   5.462   4.691  16.226 -1.3518  2.9269  0.1334
18685TIP3    H277471   5.500   4.718  16.082  0.8530  2.0167  0.5022
18686TIP3   OH277472   6.093   5.374  12.876 -0.2802  0.5421  0.0254
18686TIP3    H177473   6.176   5.329  12.858 -1.1251 -0.6078 -1.2534
18686TIP3    H277474   6.107   5.463  12.845  1.1441  0.9876  1.7841
18687TIP3   OH277475   6.250   4.064   3.222 -0.2088  0.2936 -0.0898
18687TIP3    H177476   6.180   4.058   3.157 -0.7662  0.7566  0.4568
18687TIP3    H277477   6.244   4.153   3.256 -0.6917 -0.2876  1.4349
18688TIP3   OH277478   0.066   2.532  11.824  0.2265 -0.2332  0.2787
18688TIP3    H177479   0.012   2.608  11.803 -2.1033 -1.9183 -0.2778
18688TIP3    H277480   0.064   2.480  11.744  2.0351 -0.7747  0.5466
18689TIP3   OH277481   5.142   4.859  12.898 -0.2712 -0.2283 -0.0858
18689TIP3    H177482   5.229   4.833  12.867  0.2611 -0.3603  1.4365
18689TIP3    H277483   5.148   4.953  12.909 -0.5999 -0.1207 -0.7499
18690TIP3   OH277484   0.711   0.397  16.023 -0.1335 -1.2100  0.6461
18690TIP3    H177485   0.669   0.369  15.941  1.4004  1.2582 -1.1318
18690TIP3    H277486   0.804   0.378  16.010  0.4400  1.1191  0.8340
18691TIP3   OH277487   3.044   2.513  16.353  0.0334  0.7547  0.0167
18691TIP3    H177488   2.964   2.535  16.304  0.8838 -2.7578 -3.4849
18691TIP3    H277489   3.016   2.443  16.412  0.2973  0.0060 -0.7167
18692TIP3   OH277490   5.844   2.818  16.311  0.2596  0.0558 -0.3179
18692TIP3    H177491   5.872   2.834  16.401  0.5563  0.7770 -0.5303
18692TIP3    H277492   5.846   2.904  16.269  0.4265 -0.3133 -1.0964
18693TIP3   OH277493   1.434   4.803   2.672 -0.3985  0.2514 -0.2056
18693TIP3    H177494   1.407   4.720   2.710 -2.0660  1.4085  1.3104
18693TIP3    H277495   1.380   4.812   2.593 -1.0290  0.3969  0.2387
18694TIP3   OH277496   1.680   3.092   3.433  0.0544  0.4602  0.3265
18694TIP3    H177497   1.720   3.059   3.514 -2.4533 -1.5407  0.8707
18694TIP3    H277498   1.710   3.032   3.365 -1.2498 -0.5568  0.6004
18695TIP3   OH277499   3.376   2.849   5.673  0.6206 -0.1337 -0.2201
18695TIP3    H177500   3.322   2.830   5.750 -0.6879 -0.4165 -1.1932
18695TIP3    H277501   3.338   2.928   5.635  1.1886 -0.0630 -0.6642
18696TIP3   OH277502   1.612   0.140   1.826  0.1678  0.0157  0.0297
18696TIP3    H177503   1.685   0.078   1.836  0.0015 -0.6980 -2.3661
18696TIP3    H277504   1.650   0.213   1.776 -0.5794 -0.0625 -0.6768
18697TIP3   OH277505   5.142   3.289  14.726  0.1710  0.0750 -0.5339
18697TIP3    H177506   5.063   3.242  14.752 -0.2720  0.4946 -1.0973
18697TIP3    H277507   5.186   3.232  14.663 -0.0088  0.1266 -0.7025
18698TIP3   OH277508   4.302   3.589   3.579  0.4343 -0.0850 -0.1407
18698TIP3    H177509   4.322   3.539   3.499 -1.1145 -1.5793  0.3218
18698TIP3    H277510   4.254   3.665   3.548  1.1033  0.1024 -0.7376
18699TIP3   OH277511   3.361   5.727   4.596 -0.4205  0.0474  0.5557
18699TIP3    H177512   3.311   5.705   4.675 -0.0090  1.3073  1.2059
18699TIP3    H277513   3.390   5.817   4.611  0.3475  0.0313 -0.6934
18700TIP3   OH277514   3.432   1.594  11.394  0.3063  0.3650 -0.3696
18700TIP3    H177515   3.355   1.624  11.346  0.6582 -0.0816 -1.2324
18700TIP3    H277516   3.469   1.524  11.340 -0.2191 -1.3453  1.3476
18701TIP3   OH277517   3.449   5.394   2.666  0.5002  0.1066 -0.4319
18701TIP3    H177518   3.412   5.426   2.749 -1.2805 -0.0056 -1.1466
18701TIP3    H277519   3.543   5.389   2.683  0.0580 -1.4178  2.0958
18702TIP3   OH277520   4.172   4.798  15.060  0.0182  0.5722 -0.1375
18702TIP3    H177521   4.188   4.892  15.075 -0.3913  0.6762 -0.3380
18702TIP3    H277522   4.249   4.769  15.011 -0.0405  0.9001 -0.4340
18703TIP3   OH277523   3.178   5.950  16.751 -0.0722 -0.0247  0.2883
18703TIP3    H177524   3.150   5.905  16.830  2.9657 -0.8898  1.0130
18703TIP3    H277525   3.257   5.998  16.777  1.6789 -1.1985 -2.3665
18704TIP3   OH277526   5.370   5.387  15.188  0.0120  0.3287  0.0043
18704TIP3    H177527   5.316   5.463  15.210  1.2422  0.5213  2.7456
18704TIP3    H277528   5.361   5.329  15.264 -0.8321 -2.3038 -1.9641
18705TIP3   OH277529   3.582   0.243   4.484  0.3509 -0.2438  0.0020
18705TIP3    H177530   3.659   0.296   4.464  0.6792 -0.8122 -0.2509
18705TIP3    H277531   3.559   0.201   4.402  1.8552 -2.7873  0.7743
18706TIP3   OH277532   1.078   0.733  14.404  0.3003 -0.1388  0.6477
18706TIP3    H177533   0.986   0.761  14.408  0.2236 -0.2161 -0.3140
18706TIP3    H277534   1.124   0.807  14.366  0.3219 -0.7508 -0.5871
18707TIP3   OH277535   4.822   5.498  16.973  1.0995  0.3701  0.3776
18707TIP3    H177536   4.898   5.547  17.005  0.4826  0.2024  2.2427
18707TIP3    H277537   4.747   5.555  16.992  0.6273 -0.0702 -0.1249
18708TIP3   OH277538   4.644   4.119  17.082  0.8799  0.0139  0.0642
18708TIP3    H177539   4.725   4.078  17.051  0.2663 -2.0613  1.0801
18708TIP3    H277540   4.634   4.088  17.172 -0.9818  0.3496 -0.0013
18709TIP3   OH277541   4.938   6.650  14.583  0.3341 -0.6403  0.6923
18709TIP3    H177542   4.949   6.556  14.601 -2.0824 -0.9754  0.7903
18709TIP3    H277543   4.885   6.682  14.657  0.0317  0.5201 -0.0020
18710TIP3   OH277544   0.853   5.931   0.630  0.1989 -0.5611 -0.2942
18710TIP3    H177545   0.769   5.886   0.626 -0.6015  0.7429  0.6904
18710TIP3    H277546   0.891   5.919   0.543 -2.5485  1.5931 -1.9757
18711TIP3   OH277547   4.013   1.741  13.024  0.1961  0.4408 -0.0602
18711TIP3    H177548   4.076   1.785  13.080  0.8210 -0.8928  0.3273
18711TIP3    H277549   4.019   1.648  13.050 -0.9380  0.0976 -0.9558
18712TIP3   OH277550   2.083   3.917   5.772 -0.1379 -0.4446 -0.3431
18712TIP3    H177551   2.178   3.921   5.762 -0.1424 -0.4399 -0.3834
18712TIP3    H277552   2.069   3.859   5.847 -0.0185  1.6652  1.4024
18713TIP3   OH277553   4.540   3.075  16.277 -0.2839  0.2730 -0.0515
18713TIP3    H177554   4.530   3.168  16.297 -0.0057  0.1221  0.8683
18713TIP3    H277555   4.504   3.065  16.189  0.9973  1.4953 -0.7550
18714TIP3   OH277556   6.258   5.434   5.832 -0.1728  0.1703  0.0157
18714TIP3    H177557   6.260   5.444   5.927 -2.2189 -0.9906  0.2306
18714TIP3    H277558   6.178   5.479   5.805 -0.4630 -0.8989 -0.9639
18715TIP3   OH277559   5.620   0.895   2.836 -0.4452  0.1782 -0.6139
18715TIP3    H177560   5.668   0.891   2.753 -0.2721  0.5535 -0.5349
18715TIP3    H277561   5.654   0.821   2.887 -1.8988 -1.2239 -1.5789
18716TIP3   OH277562   5.845   4.567  11.094 -0.5494  0.1073  0.0311
18716TIP3    H177563   5.842   4.479  11.056  0.6268 -0.2420  0.7087
18716TIP3    H277564   5.777   4.615  11.047 -0.1449 -0.7124 -1.4661
18717TIP3   OH277565   5.427   0.087  11.596  0.7636 -0.0529 -0.3051
18717TIP3    H177566   5.419   0.020  11.527  1.0871 -0.3687 -0.0370
18717TIP3    H277567   5.431   0.037  11.677 -0.5933  0.3492  0.0403
18718TIP3   OH277568   5.737   6.363  14.652 -0.3466  0.4620  0.7250
18718TIP3    H177569   5.791   6.442  14.650  1.9342 -0.9886  1.5401
18718TIP3    H277570   5.747   6.325  14.565  2.7099 -1.4398  1.7459
18719TIP3   OH277571   6.261   5.769   4.778 -0.3293 -0.0486 -0.4021
18719TIP3    H177572   6.327   5.735   4.838 -0.8564  1.0419  0.8360
18719TIP3    H277573   6.216   5.691   4.745  0.5846 -0.7134 -0.1142
18720TIP3   OH277574   2.855   3.043   5.366 -0.4072  0.7126 -0.0243
18720TIP3    H177575   2.817   3.062   5.452 -0.3121  1.4599 -0.1376
18720TIP3    H277576   2.933   2.990   5.385 -0.1102  1.2851  0.3938
18721TIP3   OH277577   2.761   6.076  16.219 -0.3409 -0.4087 -0.4112
18721TIP3    H177578   2.777   6.041  16.131  1.3854 -0.7308 -0.0079
18721TIP3    H277579   2.734   6.167  16.204 -0.2700 -0.5250 -1.2869
18722TIP3   OH277580   6.728   4.723  16.825  0.5766 -0.1095  0.4353
18722TIP3    H177581   6.635   4.738  16.810  0.6245 -0.4356 -0.2361
18722TIP3    H277582   6.768   4.810  16.816  0.2535  0.1647  1.4993
18723TIP3   OH277583   3.951   0.384  11.698 -0.1609 -0.6793  0.1803
18723TIP3    H177584   3.869   0.335  11.695 -0.7782  0.3815 -1.0607
18723TIP3    H277585   3.939   0.447  11.769 -0.9986  0.4019 -0.8804
18724TIP3   OH277586   2.350   5.412   3.467  0.1897 -0.2708 -0.1536
18724TIP3    H177587   2.426   5.466   3.450  0.2491 -0.1705  0.3942
18724TIP3    H277588   2.348   5.403   3.563 -1.1766  0.7405 -0.0615
18725TIP3   OH277589   6.340   3.878   1.389  0.7232 -0.0803  0.3619
18725TIP3    H177590   6.304   3.952   1.439  1.0646  1.7284 -1.8899
18725TIP3    H277591   6.420   3.854   1.435  1.5608  2.1839  0.2124
18726TIP3   OH277592   4.012   1.071   3.006  0.0992 -0.1053  0.1692
18726TIP3    H177593   4.027   1.019   3.085 -1.1733 -0.1940  0.3878
18726TIP3    H277594   3.994   1.007   2.937 -0.8266  0.0020  0.2930
18727TIP3   OH277595   3.416   4.066   5.914 -0.2321  0.0699 -0.1612
18727TIP3    H177596   3.479   4.100   5.850  1.2075  0.5867  1.4284
18727TIP3    H277597   3.441   4.109   5.996  0.5360 -3.3948  1.6010
18728TIP3   OH277598   2.151   0.051  11.131 -0.4078  0.0241  0.6501
18728TIP3    H177599   2.195  -0.014  11.187  0.9621  1.3789  1.2240
18728TIP3    H277600   2.216   0.121  11.121 -1.3394  0.6848 -1.0840
18729TIP3   OH277601   1.293   0.930   5.752  0.4035  0.3692 -0.1103
18729TIP3    H177602   1.201   0.918   5.778  0.8278  1.2307  1.9880
18729TIP3    H277603   1.329   0.842   5.750  0.7043  0.1621  4.0779
18730TIP3   OH277604   3.603   2.666   3.860  0.2757  0.3702  0.1683
18730TIP3    H177605   3.592   2.574   3.881 -1.9161  0.3701 -0.7505
18730TIP3    H277606   3.520   2.707   3.886  0.9525  1.9606 -0.0545
18731TIP3   OH277607   3.640   3.179   2.470  0.5780 -0.6211  0.0201
18731TIP3    H177608   3.557   3.199   2.512  0.5057  0.1902 -0.4921
18731TIP3    H277609   3.703   3.239   2.510  0.9701 -1.3803  0.5629
18732TIP3   OH277610   6.593   4.797  15.662  0.5188  0.3526  0.0627
18732TIP3    H177611   6.630   4.790  15.574 -1.2835 -1.3614 -0.6437
18732TIP3    H277612   6.668   4.784  15.721  1.7697  1.6502 -1.1699
18733TIP3   OH277613   0.104   6.190   1.073 -0.4437 -0.0342 -0.0709
18733TIP3    H177614   0.157   6.219   1.147 -1.0242 -0.4340  0.5079
18733TIP3    H277615   0.016   6.179   1.109 -1.2665  1.9469 -1.3044
18734TIP3   OH277616   3.612   5.062   0.150 -0.8256 -0.4556 -0.5511
18734TIP3    H177617   3.643   5.036   0.237 -0.4570  1.1096 -0.1772
18734TIP3    H277618   3.516   5.060   0.157 -0.8344  1.1251  0.4251
18735TIP3   OH277619   2.246   4.351   4.760 -0.2762  0.6093  0.2555
18735TIP3    H177620   2.333   4.337   4.798 -1.0470  0.4683  2.0592
18735TIP3    H277621   2.243   4.291   4.685  0.4231 -0.9570  1.4266
18736TIP3   OH277622   3.064   1.381   1.765  0.0315  0.6163 -0.3027
18736TIP3    H177623   3.085   1.310   1.706  0.2937  0.3971  0.0504
18736TIP3    H277624   3.034   1.452   1.708 -0.7984  0.0265 -0.6197
18737TIP3   OH277625   5.056   1.444   0.005  0.3970 -0.3422 -0.1406
18737TIP3    H177626   5.097   1.369   0.048  0.0309 -1.2454 -1.2868
18737TIP3    H277627   5.099   1.449  -0.080 -0.1125  0.2853 -0.3690
18738TIP3   OH277628   2.993   1.061  15.246 -0.1930  0.0262 -0.6061
18738TIP3    H177629   3.052   1.134  15.226  0.7808 -0.6099 -0.0867
18738TIP3    H277630   2.994   1.008  15.166  1.8832 -1.2817  0.2379
18739TIP3   OH277631   6.586   0.887  14.382  0.0331  0.2074  0.3037
18739TIP3    H177632   6.679   0.885  14.401 -0.3888 -0.7701  2.6216
18739TIP3    H277633   6.571   0.810  14.327  0.4215 -0.2964  0.8978
18740TIP3   OH277634   1.476   6.289   4.624 -0.0415 -0.2785  0.0353
18740TIP3    H177635   1.505   6.288   4.533 -1.2137  1.4166 -0.3971
18740TIP3    H277636   1.422   6.210   4.633 -1.0819  0.2556 -1.1798
18741TIP3   OH277637   1.733   5.999  14.065 -0.1053  0.1040  0.6223
18741TIP3    H177638   1.672   6.062  14.027 -0.1222  0.3495  1.0395
18741TIP3    H277639   1.711   5.916  14.025  1.0096  0.6358 -1.2197
18742TIP3   OH277640   0.625   1.621  15.406 -0.0961 -0.0885 -0.6758
18742TIP3    H177641   0.630   1.574  15.322 -0.2137  1.1747 -1.4221
18742TIP3    H277642   0.602   1.711  15.381 -0.7272  0.1761  0.7634
18743TIP3   OH277643   4.415   2.318  15.867  0.1098  0.1721 -0.1987
18743TIP3    H177644   4.504   2.353  15.867 -0.1650  0.9002  0.4523
18743TIP3    H277645   4.360   2.393  15.848 -0.4386 -0.0644  0.4348
18744TIP3   OH277646   3.455   0.500  16.593  0.0241 -0.3605  0.4650
18744TIP3    H177647   3.359   0.503  16.594  0.0358  1.3652  1.1361
18744TIP3    H277648   3.479   0.486  16.685  0.3958  0.6427  0.5382
18745TIP3   OH277649   4.416   6.779   0.513  0.4340 -0.6608 -0.0028
18745TIP3    H177650   4.342   6.749   0.565  0.2102  1.7322  1.2101
18745TIP3    H277651   4.487   6.719   0.535 -0.4017 -1.3294  0.9580
18746TIP3   OH277652   2.605   0.629  12.647  0.1217  0.1134 -0.1756
18746TIP3    H177653   2.607   0.690  12.721 -1.0800  0.6863 -0.5963
18746TIP3    H277654   2.610   0.542  12.688  2.3441  0.4376  0.4060
18747TIP3   OH277655   6.725   3.247  13.099  0.3177 -0.1364 -0.5571
18747TIP3    H177656   6.650   3.274  13.048 -0.9486 -2.0824  0.1505
18747TIP3    H277657   6.693   3.174  13.153  2.7020 -1.0850 -0.2621
18748TIP3   OH277658   2.447   3.173   2.190 -0.0927 -0.5031 -0.4131
18748TIP3    H177659   2.503   3.213   2.256  0.2618 -0.3969 -0.7756
18748TIP3    H277660   2.365   3.224   2.195 -1.1915 -2.2862  1.9213
18749TIP3   OH277661   2.787   1.940   0.697  0.8854  0.2367 -0.1670
18749TIP3    H177662   2.738   2.008   0.650 -1.5302 -0.0535  1.6914
18749TIP3    H277663   2.841   1.898   0.630  0.0985  1.9385 -1.9724
18750TIP3   OH277664   1.443   4.551  15.228  0.4257 -0.2269 -0.4570
18750TIP3    H177665   1.406   4.462  15.231 -0.4611  0.0986 -1.3968
18750TIP3    H277666   1.536   4.538  15.245  0.1241 -1.2090  0.6289
18751TIP3   OH277667   6.474   4.427   4.112  0.1901  0.1294  0.6015
18751TIP3    H177668   6.457   4.427   4.206 -0.0310  0.6396  0.5635
18751TIP3    H277669   6.547   4.487   4.101 -1.0742  1.6620  0.2316
18752TIP3   OH277670   4.235   6.308  16.800  0.3376 -0.0669 -0.9454
18752TIP3    H177671   4.234   6.237  16.864 -0.0882  1.2749  0.5916
18752TIP3    H277672   4.324   6.342  16.802 -0.1898  1.3742  0.6114
18753TIP3   OH277673   1.707   5.109  14.957  0.5983  0.5482 -0.3350
18753TIP3    H177674   1.796   5.124  14.925  0.4368  0.6689 -0.7367
18753TIP3    H277675   1.660   5.190  14.936  0.1261  0.0987 -1.0642
18754TIP3   OH277676   4.407   3.560  13.619 -0.4079 -0.1008 -0.3494
18754TIP3    H177677   4.427   3.615  13.695  1.8280  0.3290 -1.1645
18754TIP3    H277678   4.337   3.605  13.574 -0.9231  0.2825  0.7975
18755TIP3   OH277679   2.223   5.335   2.382  0.0470 -0.3864  0.1893
18755TIP3    H177680   2.152   5.398   2.369 -0.1285 -0.6867 -0.3492
18755TIP3    H277681   2.290   5.361   2.318 -0.4726 -1.3765 -0.7904
18756TIP3   OH277682   3.144   0.723   4.361 -0.2137  0.4608 -0.2111
18756TIP3    H177683   3.180   0.730   4.449  0.0079 -0.5688 -0.2117
18756TIP3    H277684   3.219   0.739   4.303  0.2919 -1.5761 -0.2114
18757TIP3   OH277685   6.173   1.314   3.630  0.4148 -0.3860 -0.2778
18757TIP3    H177686   6.154   1.242   3.690  0.7550  0.2982  0.6644
18757TIP3    H277687   6.087   1.340   3.596  0.2553 -0.9927 -0.3614
18758TIP3   OH277688   4.338   4.635  12.584 -0.4351 -0.3034 -0.5444
18758TIP3    H177689   4.400   4.677  12.644  0.3925 -1.1530 -0.7858
18758TIP3    H277690   4.384   4.632  12.500  0.0917 -2.8032 -0.2587
18759TIP3   OH277691   2.505   6.312  11.780  0.0405 -0.5116 -0.1870
18759TIP3    H177692   2.414   6.299  11.805  0.0381 -0.6846 -0.2868
18759TIP3    H277693   2.547   6.227  11.792  0.3907 -0.2230  0.6965
18760TIP3   OH277694   6.401   6.666  15.698 -0.4209  0.1836 -0.6584
18760TIP3    H177695   6.484   6.621  15.681 -1.0815 -0.9353 -0.9930
18760TIP3    H277696   6.427   6.755  15.723  0.8385  0.1675 -1.7999
18761TIP3   OH277697   6.687   2.667  14.608 -0.1628 -0.1971  0.4261
18761TIP3    H177698   6.736   2.600  14.654 -1.5769 -0.8438  1.0634
18761TIP3    H277699   6.752   2.732  14.583  1.3141 -1.9374 -0.5013
18762TIP3   OH277700   4.143   4.672  15.518 -0.3577  0.4530 -0.4645
18762TIP3    H177701   4.178   4.638  15.436  3.0881 -0.2463  1.0987
18762TIP3    H277702   4.095   4.598  15.556  0.6800 -0.2722 -0.5046
18763TIP3   OH277703   0.348   6.499  13.152  0.0260 -0.0880 -0.0909
18763TIP3    H177704   0.318   6.411  13.173  0.4026 -0.5618 -1.4927
18763TIP3    H277705   0.425   6.487  13.098 -0.3649  1.0861 -0.9570
18764TIP3   OH277706   0.914   0.758  15.987  0.3312  0.5440  0.1949
18764TIP3    H177707   0.917   0.729  16.078  1.0834  1.5070  0.4962
18764TIP3    H277708   1.003   0.787  15.968  0.1889  0.3292 -0.8645
18765TIP3   OH277709   1.881   6.519  11.249 -0.4179 -0.3894 -0.4226
18765TIP3    H177710   1.976   6.511  11.263 -0.4827 -1.5053 -0.5214
18765TIP3    H277711   1.871   6.602  11.202  0.4652 -0.0494 -0.0387
18766TIP3   OH277712   6.461   1.409  12.134 -0.0205 -0.1585  0.5116
18766TIP3    H177713   6.367   1.413  12.148  0.0051 -0.5834  0.8186
18766TIP3    H277714   6.499   1.450  12.212  0.0126  1.8886 -0.5158
18767TIP3   OH277715   2.364   2.684  16.696 -0.1534 -0.4945 -0.4981
18767TIP3    H177716   2.385   2.717  16.609 -0.1448  0.9647  0.0409
18767TIP3    H277717   2.414   2.740  16.756  0.3960 -1.9079  0.4338
18768TIP3   OH277718   2.275   0.306  16.458  0.1248  0.0368 -0.0274
18768TIP3    H177719   2.303   0.271  16.373 -1.0991 -0.0458 -0.4178
18768TIP3    H277720   2.328   0.384  16.470  0.3527  0.0213 -0.8463
18769TIP3   OH277721   1.074   0.281  13.003 -0.3860 -0.1771 -0.4614
18769TIP3    H177722   0.982   0.293  12.979 -1.3301 -1.0351  2.3196
18769TIP3    H277723   1.122   0.308  12.926 -2.9524  0.7061 -1.8908
18770TIP3   OH277724   6.507   2.049   1.210 -0.0726 -0.0356 -0.0409
18770TIP3    H177725   6.551   2.081   1.289  3.2029 -0.8536 -1.3652
18770TIP3    H277726   6.453   1.976   1.241 -1.2038  1.4854  1.8021
18771TIP3   OH277727   2.042   0.813  16.481  0.1914 -0.9258 -0.3327
18771TIP3    H177728   2.003   0.833  16.395 -1.3385 -0.7566  0.3694
18771TIP3    H277729   1.971   0.828  16.543  1.7908  0.7899  1.1801
18772TIP3   OH277730   4.698   1.809   0.260  0.5474  0.0012  0.1727
18772TIP3    H177731   4.693   1.722   0.219 -0.8825 -0.2047  0.7042
18772TIP3    H277732   4.751   1.794   0.339 -0.5484 -0.6582  0.8180
18773TIP3   OH277733   1.760   4.802  15.779 -0.0840 -0.5025 -0.7358
18773TIP3    H177734   1.839   4.774  15.734 -0.0732 -0.4028 -0.7788
18773TIP3    H277735   1.767   4.763  15.866 -0.5291 -1.4217 -1.1031
18774TIP3   OH277736   4.276   5.566  11.922  0.0885 -0.4793  0.3161
18774TIP3    H177737   4.289   5.582  12.015 -0.4121 -3.4967  1.0003
18774TIP3    H277738   4.358   5.525  11.893 -0.5223 -1.5061 -0.0226
18775TIP3   OH277739   0.364   0.333  16.207  0.0446 -0.4508 -0.5712
18775TIP3    H177740   0.367   0.322  16.112  1.4402  0.5204 -0.6628
18775TIP3    H277741   0.314   0.257  16.238  0.2110 -1.1855 -2.0132
18776TIP3   OH277742   4.527   3.842  12.506  0.1474 -0.2953  0.1105
18776TIP3    H177743   4.492   3.761  12.544 -0.5257  0.7783  1.8940
18776TIP3    H277744   4.454   3.878  12.456 -0.1434  0.1139  0.8221
18777TIP3   OH277745   4.476   6.432   3.643 -0.1327  0.7561  0.0106
18777TIP3    H177746   4.515   6.518   3.659 -0.6256  1.0813 -0.4754
18777TIP3    H277747   4.547   6.380   3.605  0.4537  0.6191  1.2677
18778TIP3   OH277748   5.669   6.003  11.975 -0.1522 -0.3848 -0.4765
18778TIP3    H177749   5.638   6.037  11.891 -1.7712 -0.7292 -0.0379
18778TIP3    H277750   5.620   5.922  11.989 -1.1224  0.4720  1.5239
18779TIP3   OH277751   5.719   2.363   4.466  0.2506 -0.0442 -0.3577
18779TIP3    H177752   5.639   2.376   4.516  1.6492  0.5901  1.8671
18779TIP3    H277753   5.736   2.269   4.473  0.5711  0.0724  0.6578
18780TIP3   OH277754   1.565   4.456   2.693 -0.2602  0.4046 -0.0369
18780TIP3    H177755   1.496   4.397   2.722 -0.6190  0.3621 -0.9267
18780TIP3    H277756   1.590   4.506   2.771  0.9019 -1.7295  1.0505
18781TIP3   OH277757   0.305   0.258  16.814  0.1171 -0.0854 -0.6516
18781TIP3    H177758   0.261   0.341  16.828 -0.2833 -0.3130 -0.5556
18781TIP3    H277759   0.278   0.230  16.727 -0.6671 -0.6701 -0.2312
18782TIP3   OH277760   1.518   1.041  13.651  0.1041  0.4072  0.3189
18782TIP3    H177761   1.433   1.085  13.646  1.0574  2.2234 -2.2929
18782TIP3    H277762   1.497   0.950  13.674 -2.5596  0.7620 -0.3789
18783TIP3   OH277763   3.398   2.433  11.905  0.0295  0.1903 -0.1541
18783TIP3    H177764   3.400   2.529  11.902 -1.9692  0.2675  0.0903
18783TIP3    H277765   3.321   2.408  11.854 -1.5405 -1.0916  2.6072
18784TIP3   OH277766   0.404   4.566  15.482 -0.0878 -0.2649  0.3742
18784TIP3    H177767   0.440   4.534  15.399  0.3668  2.2202 -0.4608
18784TIP3    H277768   0.337   4.630  15.456  0.0861  0.5903  1.9277
18785TIP3   OH277769   0.795   0.140   3.570 -0.1994  0.0369 -0.2648
18785TIP3    H177770   0.797   0.182   3.656 -1.8365  1.6348 -0.9277
18785TIP3    H277771   0.886   0.120   3.551  0.1622 -0.7624  1.9993
18786TIP3   OH277772   4.250   3.609  13.373  0.3797  0.0382  0.2006
18786TIP3    H177773   4.162   3.634  13.343  0.8395 -1.7913 -3.1832
18786TIP3    H277774   4.253   3.514  13.362  2.2600 -0.1489  1.8887
18787TIP3   OH277775   5.894   4.353   1.149 -0.2563 -0.1093 -0.0764
18787TIP3    H177776   5.840   4.360   1.228 -0.1061  0.5046 -0.0247
18787TIP3    H277777   5.927   4.263   1.150 -0.2988 -0.1196  0.5299
18788TIP3   OH277778   4.994   0.499   1.215 -0.3079  0.2947  0.0723
18788TIP3    H177779   5.057   0.437   1.180 -1.5061 -1.2802  0.6228
18788TIP3    H277780   5.038   0.538   1.291  0.1290 -0.5247  0.2492
18789TIP3   OH277781   0.942   0.249  13.838  0.2238 -0.1112  0.2107
18789TIP3    H177782   0.870   0.216  13.893  0.3390  0.0295  0.4452
18789TIP3    H277783   0.932   0.344  13.841 -1.9284 -0.0922 -2.8430
18790TIP3   OH277784   2.422   3.173  16.907 -0.3690  0.0303  0.4777
18790TIP3    H177785   2.467   3.198  16.987 -1.1217  1.0605  0.5965
18790TIP3    H277786   2.457   3.231  16.840 -0.2546 -0.3558  0.1936
18791TIP3   OH277787   5.759   5.441   5.310 -0.3162  0.0106  0.2849
18791TIP3    H177788   5.694   5.421   5.242 -1.4998  3.5974  0.1441
18791TIP3    H277789   5.757   5.365   5.368 -2.2661 -1.4039 -1.4599
18792TIP3   OH277790   0.122   1.773  16.066 -0.4548  0.8740  0.2975
18792TIP3    H177791   0.206   1.787  16.111  1.0095 -2.6497 -0.9856
18792TIP3    H277792   0.084   1.697  16.110  0.0046 -1.3399 -2.8058
18793TIP3   OH277793   0.227   0.293   2.252 -0.3717 -0.5034  0.1219
18793TIP3    H177794   0.208   0.278   2.160 -1.4667  0.7506  0.1116
18793TIP3    H277795   0.297   0.357   2.253  0.2749 -1.2015  0.1711
18794TIP3   OH277796   3.124   0.450  11.666  0.4689  0.2422  0.0439
18794TIP3    H177797   3.199   0.507  11.652  1.1717 -0.2312  1.6309
18794TIP3    H277798   3.123   0.433  11.760 -1.1675 -0.4030 -0.0413
18795TIP3   OH277799   1.450   5.515   6.395 -0.7887 -0.3882  0.2014
18795TIP3    H177800   1.429   5.600   6.435  1.9070  0.2240  0.5016
18795TIP3    H277801   1.504   5.471   6.461  0.0927 -1.1895 -1.0265
18796TIP3   OH277802   0.469   4.893   1.965 -0.2480 -0.1409  0.1275
18796TIP3    H177803   0.488   4.892   1.872 -0.8724 -2.3030 -0.0266
18796TIP3    H277804   0.545   4.936   2.005  0.5970 -0.2981 -1.2610
18797TIP3   OH277805   3.377   0.572   6.498 -0.1014 -0.1498 -0.2191
18797TIP3    H177806   3.343   0.636   6.561  0.6353 -1.3109  1.4370
18797TIP3    H277807   3.300   0.540   6.452 -1.0139 -1.0093  1.7960
18798TIP3   OH277808   6.102   5.394  15.582  0.4329 -0.1014 -0.8324
18798TIP3    H177809   6.066   5.428  15.664 -0.3774 -0.8905 -0.8430
18798TIP3    H277810   6.025   5.384  15.525  0.6618 -1.6926 -0.9094
18799TIP3   OH277811   6.516   4.880   2.219 -0.1134 -0.5501  0.2222
18799TIP3    H177812   6.584   4.848   2.278 -0.8647  1.3866  2.3058
18799TIP3    H277813   6.442   4.820   2.233 -0.0215 -0.5567  0.6878
18800TIP3   OH277814   1.779   4.847   3.855 -0.3814  0.0849 -0.1997
18800TIP3    H177815   1.810   4.811   3.938  0.0814  0.9354  0.0045
18800TIP3    H277816   1.740   4.931   3.878  2.2388  1.6615 -1.1491
18801TIP3   OH277817   0.696   2.696   4.017 -0.2216 -0.3637  0.2840
18801TIP3    H177818   0.757   2.759   4.054 -1.2370  1.1362 -0.4884
18801TIP3    H277819   0.615   2.709   4.066 -0.4741 -0.9782  0.0332
18802TIP3   OH277820   4.646   3.503  15.516  0.9505 -0.1813  0.1645
18802TIP3    H177821   4.650   3.599  15.522  1.7850 -0.2893  2.1968
18802TIP3    H277822   4.553   3.483  15.523  0.8052  0.4616  0.1754
18803TIP3   OH277823   0.676   0.227   4.741 -0.3933 -0.0421  0.7939
18803TIP3    H177824   0.673   0.189   4.829  0.7118 -0.5102  0.6502
18803TIP3    H277825   0.744   0.176   4.695 -1.0014  0.1448 -0.3510
18804TIP3   OH277826   0.192   2.339   5.221  0.3985 -0.5998 -0.1328
18804TIP3    H177827   0.230   2.388   5.294  0.6135  2.4738 -2.1188
18804TIP3    H277828   0.101   2.371   5.215  0.4691 -0.5466 -1.3225
18805TIP3   OH277829   3.206   1.238   3.214 -0.4176 -0.0169  0.1416
18805TIP3    H177830   3.119   1.253   3.251 -0.3129  1.4067 -0.1023
18805TIP3    H277831   3.229   1.322   3.174  0.7938 -0.5740 -0.3818
18806TIP3   OH277832   4.127   6.302   4.171  0.0269 -1.2460  0.2635
18806TIP3    H177833   4.142   6.310   4.265  1.9905  0.5353 -0.1166
18806TIP3    H277834   4.184   6.229   4.144 -1.8384 -2.9198  0.6432
18807TIP3   OH277835   5.609   6.542   4.974  0.3097 -0.4150  0.2830
18807TIP3    H177836   5.620   6.562   5.067  0.7615 -1.1222  0.3877
18807TIP3    H277837   5.553   6.465   4.972 -2.2344  1.2972 -0.1554
18808TIP3   OH277838   3.782   0.704  13.529  0.0251  0.4623  0.5971
18808TIP3    H177839   3.795   0.739  13.617  1.3168 -0.7584  0.9332
18808TIP3    H277840   3.867   0.716  13.486 -1.2650  3.4283 -1.4502
18809TIP3   OH277841   0.321   3.955   2.722  0.0609  0.7287  0.4384
18809TIP3    H177842   0.412   3.931   2.739  0.3079  2.6873  2.2375
18809TIP3    H277843   0.293   4.002   2.800 -2.5124  0.2483 -0.0949
18810TIP3   OH277844   2.440   5.796   3.984 -0.4609  0.4450 -0.1278
18810TIP3    H177845   2.355   5.833   4.009  0.0413  1.8358 -0.3948
18810TIP3    H277846   2.487   5.868   3.942  1.5521  0.2617  1.6096
18811TIP3   OH277847   1.861   4.841   4.473 -0.1273  0.3714 -0.2086
18811TIP3    H177848   1.835   4.924   4.512 -1.5928 -0.5445  0.8905
18811TIP3    H277849   1.938   4.862   4.421 -0.6578  2.4675 -0.2449
18812TIP3   OH277850   1.509   5.534   3.627 -0.2372  0.2132 -0.4827
18812TIP3    H177851   1.478   5.555   3.539  0.1210  0.1032 -0.6393
18812TIP3    H277852   1.600   5.507   3.614  0.4554  2.0933  0.1440
18813TIP3   OH277853   1.505   3.933   2.009  0.1743 -0.4935  0.2064
18813TIP3    H177854   1.586   3.903   1.968  0.9081  0.0665  1.2195
18813TIP3    H277855   1.495   3.875   2.085  0.6056  0.5883  1.1104
18814TIP3   OH277856   4.226   4.480  12.775  0.3230  0.3875  0.1352
18814TIP3    H177857   4.254   4.532  12.699  0.9439 -0.0198  0.0755
18814TIP3    H277858   4.154   4.427  12.742  2.2606 -1.7395 -0.9530
18815TIP3   OH277859   3.934   2.968  16.061  0.0679 -0.1804  0.1832
18815TIP3    H177860   3.928   3.030  15.988  0.5851 -1.0441 -0.6106
18815TIP3    H277861   3.844   2.936  16.072 -0.0310  0.0274 -0.0085
18816TIP3   OH277862   1.171   2.861   5.101  0.0979  0.0959  0.3321
18816TIP3    H177863   1.234   2.890   5.168 -0.3958 -0.9292  1.2668
18816TIP3    H277864   1.177   2.766   5.101 -1.1608 -0.0001  0.1510
18817TIP3   OH277865   5.704   1.263   3.197 -0.5453 -0.2639  0.2775
18817TIP3    H177866   5.639   1.193   3.200 -1.3405  0.4757  0.9415
18817TIP3    H277867   5.731   1.275   3.288 -0.3212  0.2038  0.1553
18818TIP3   OH277868   2.213   3.604   4.777 -0.2902  0.0544 -0.0310
18818TIP3    H177869   2.278   3.568   4.717 -0.1736  1.5261 -0.8370
18818TIP3    H277870   2.138   3.624   4.720 -2.0280 -2.7296  1.0361
18819TIP3   OH277871   3.294   1.768   2.910  0.0246  0.1820  0.5515
18819TIP3    H177872   3.355   1.699   2.884  0.9812  1.2526 -0.1323
18819TIP3    H277873   3.348   1.846   2.919 -0.9979  0.7912  1.5890
18820TIP3   OH277874   5.706   2.946   0.092  0.0360 -0.6637 -0.1786
18820TIP3    H177875   5.778   3.000   0.059 -0.4528 -0.4553 -0.9592
18820TIP3    H277876   5.676   2.897   0.015 -0.1982 -1.2732  0.2937
18821TIP3   OH277877   0.246   4.755  15.334 -0.3965  0.4209  0.3260
18821TIP3    H177878   0.152   4.753  15.318 -0.6432  1.2927  1.5538
18821TIP3    H277879   0.275   4.837  15.293 -0.2968  0.4956  0.5438
18822TIP3   OH277880   3.348   3.022   4.535 -0.0796  0.2009 -0.2587
18822TIP3    H177881   3.266   3.033   4.487 -0.7317  0.3952  0.8745
18822TIP3    H277882   3.371   2.930   4.522 -0.2143  0.2569 -0.9677
18823TIP3   OH277883   3.091   4.942   0.473  0.0061  0.0004 -0.5607
18823TIP3    H177884   3.008   4.978   0.504  0.2313  0.7502 -0.8005
18823TIP3    H277885   3.093   4.853   0.508  0.2509  0.7965  1.6117
18824TIP3   OH277886   1.724   4.148  13.492 -0.1080 -0.7750 -0.5215
18824TIP3    H177887   1.789   4.217  13.503  0.3545 -1.3396  0.3864
18824TIP3    H277888   1.641   4.194  13.481  0.3031 -0.0691 -0.7401
18825TIP3   OH277889   4.720   4.445   2.230  0.5289 -0.0388  0.0827
18825TIP3    H177890   4.692   4.478   2.316  0.7261  2.0501 -0.5884
18825TIP3    H277891   4.641   4.451   2.175  0.4396 -1.2295  0.0624
18826TIP3   OH277892   1.630   0.393   1.626 -0.0496 -0.0449 -0.3592
18826TIP3    H177893   1.662   0.426   1.710  1.2172 -0.9144 -0.4755
18826TIP3    H277894   1.597   0.471   1.580 -1.2560  0.3650  1.1261
18827TIP3   OH277895   1.422   5.113   1.077 -0.6155  0.9747 -0.6214
18827TIP3    H177896   1.336   5.092   1.040 -0.9507 -1.7451  1.3277
18827TIP3    H277897   1.485   5.077   1.014 -1.1515 -2.5011  0.5714
18828TIP3   OH277898   4.273   3.932  11.987  0.2185 -0.5145 -0.0717
18828TIP3    H177899   4.286   3.879  11.908  2.1742 -2.3597  1.3483
18828TIP3    H277900   4.310   4.018  11.965 -0.1203 -0.6999 -1.4396
18829TIP3   OH277901   2.968   5.199   4.232 -0.1674 -0.5617  0.0997
18829TIP3    H177902   2.958   5.287   4.269  0.6909 -0.1686 -0.5754
18829TIP3    H277903   3.047   5.165   4.274  0.5914 -0.2613 -1.0433
18830TIP3   OH277904   6.491   0.292   6.116  0.5443 -0.3887 -0.1234
18830TIP3    H177905   6.541   0.334   6.046  0.4584 -1.0179 -0.5750
18830TIP3    H277906   6.429   0.236   6.070  0.8625 -1.2452  0.4573
18831TIP3   OH277907   1.055   6.577  17.099  0.0661  0.1782 -0.4118
18831TIP3    H177908   1.109   6.643  17.056  0.1463  1.1659  1.1248
18831TIP3    H277909   0.986   6.626  17.143 -3.9834 -1.1648 -4.5608
18832TIP3   OH277910   5.979   2.799   2.607 -0.3751 -0.3240  0.3853
18832TIP3    H177911   5.939   2.713   2.591 -0.1408 -0.1575 -1.1826
18832TIP3    H277912   6.043   2.810   2.536 -1.2622  1.6740 -0.1708
18833TIP3   OH277913   2.448   4.547   0.542  0.3073 -0.3400  0.5024
18833TIP3    H177914   2.508   4.594   0.600  1.7320 -0.0776 -1.1278
18833TIP3    H277915   2.487   4.461   0.531  1.1421  0.2495 -1.5928
18834TIP3   OH277916   4.901   0.598  17.020  0.1977  0.1162 -0.5603
18834TIP3    H177917   4.992   0.621  17.036  0.5693 -1.6124 -0.0185
18834TIP3    H277918   4.890   0.512  17.059 -0.9348 -0.9426 -2.9650
18835TIP3   OH277919   0.102   0.285  10.488 -0.0688 -0.6832  0.3017
18835TIP3    H177920   0.008   0.276  10.469 -0.2129 -1.0717  1.1860
18835TIP3    H277921   0.114   0.245  10.573  0.9559 -0.8413  0.0973
18836TIP3   OH277922   5.807   1.423   0.044  0.1996 -0.2172  0.7052
18836TIP3    H177923   5.777   1.335   0.066 -2.1511 -0.1054 -1.6831
18836TIP3    H277924   5.894   1.410   0.007 -0.8760 -1.8452 -1.4431
18837TIP3   OH277925   5.148   2.176  16.277 -0.0572 -0.1449  0.1610
18837TIP3    H177926   5.157   2.092  16.323 -2.6940 -0.4325  0.3455
18837TIP3    H277927   5.069   2.164  16.224  0.5594  1.6284 -1.2318
18838TIP3   OH277928   3.834   5.457   0.176  0.0599  0.4746  0.1950
18838TIP3    H177929   3.916   5.498   0.148  0.5161 -1.4578 -1.5325
18838TIP3    H277930   3.766   5.516   0.142  0.7063  0.5324 -1.0660
18839TIP3   OH277931   5.498   4.726   4.714  0.1814 -0.1028  0.0758
18839TIP3    H177932   5.505   4.807   4.764  1.0611 -0.0161 -0.1743
18839TIP3    H277933   5.512   4.657   4.779  2.1356  0.0298 -0.1514
18840TIP3   OH277934   0.224   0.859  11.327 -0.2186 -0.3041  0.0162
18840TIP3    H177935   0.187   0.908  11.401  0.4946  0.5728 -0.1997
18840TIP3    H277936   0.319   0.865  11.339 -0.0000  1.5625 -2.0187
18841TIP3   OH277937   2.536   0.708  14.561 -0.2463 -0.0684  0.1487
18841TIP3    H177938   2.481   0.785  14.550  0.2100  0.2517  0.0631
18841TIP3    H277939   2.481   0.634  14.534 -1.1520  0.0674  1.4971
18842TIP3   OH277940   4.361   2.545   5.547 -0.1383  0.4108  0.1353
18842TIP3    H177941   4.408   2.627   5.532 -2.3934  1.4996 -1.6540
18842TIP3    H277942   4.272   2.572   5.570 -1.2404 -1.4855 -1.5792
18843TIP3   OH277943   6.098   1.768  16.051 -0.7367 -0.2310  0.0027
18843TIP3    H177944   6.102   1.851  16.099  0.7447  0.6705 -1.5925
18843TIP3    H277945   6.061   1.791  15.966 -1.2601 -1.4130 -0.1078
18844TIP3   OH277946   4.430   3.433   5.997  0.5775 -0.7929  0.0370
18844TIP3    H177947   4.406   3.494   6.067  0.6003 -1.7284  0.8883
18844TIP3    H277948   4.483   3.366   6.041 -0.7357 -2.2850 -0.5386
18845TIP3   OH277949   6.419   2.994  15.908 -0.2031 -0.0800 -0.0828
18845TIP3    H177950   6.347   3.008  15.970 -0.0836  0.0303  0.0322
18845TIP3    H277951   6.462   3.079  15.903  1.2631 -0.6769  1.5174
18846TIP3   OH277952   5.091   6.118  10.944  0.1568 -0.0746 -0.2188
18846TIP3    H177953   5.096   6.196  10.889  0.2466  0.4170  0.4652
18846TIP3    H277954   5.000   6.114  10.971 -0.2293 -1.1649 -1.5802
18847TIP3   OH277955   6.559   1.391  16.816  0.6316 -0.1730  0.3863
18847TIP3    H177956   6.492   1.459  16.807  0.8581  0.3524  2.2890
18847TIP3    H277957   6.611   1.418  16.892  1.8697 -1.5312  0.0667
18848TIP3   OH277958   0.875   0.398   3.702  0.4411 -0.0373 -0.3951
18848TIP3    H177959   0.851   0.408   3.794  0.7603 -0.9991 -0.1939
18848TIP3    H277960   0.971   0.396   3.702  0.5237  1.7885 -0.9723
18849TIP3   OH277961   2.573   4.431  15.989 -0.1652 -0.5068 -0.4293
18849TIP3    H177962   2.516   4.422  15.912  0.2693  0.2291 -0.8453
18849TIP3    H277963   2.660   4.443  15.953 -0.3012  2.8469  0.0388
18850TIP3   OH277964   6.272   6.287   3.262 -0.0265  1.5583  0.3308
18850TIP3    H177965   6.271   6.343   3.185  0.8357 -1.0314 -1.7449
18850TIP3    H277966   6.363   6.260   3.271 -0.4750  0.0703  0.8436
18851TIP3   OH277967   3.949   3.622  13.051 -0.3774  0.0597  0.1512
18851TIP3    H177968   3.863   3.612  13.012 -0.8335  1.2536  0.7887
18851TIP3    H277969   3.933   3.626  13.145  0.6494 -2.2637  0.4873
18852TIP3   OH277970   1.763   4.300  11.350 -0.3809 -0.1796 -0.0987
18852TIP3    H177971   1.774   4.378  11.404 -1.0344  0.1688 -0.4444
18852TIP3    H277972   1.755   4.335  11.261  0.7349 -0.7455 -0.4342
18853TIP3   OH277973   0.153   5.306  15.541 -0.1632 -0.3852  0.2840
18853TIP3    H177974   0.182   5.270  15.625 -0.8332 -0.0500  0.6646
18853TIP3    H277975   0.097   5.381  15.565 -0.0793 -0.0791 -0.4653
18854TIP3   OH277976   1.665   0.733   6.132 -0.3977  0.0422  0.0523
18854TIP3    H177977   1.620   0.814   6.106  0.8892  1.1336  1.0494
18854TIP3    H277978   1.598   0.665   6.126 -1.7589  1.3357  0.0250
18855TIP3   OH277979   0.497   2.266   2.237  0.4297  0.1575 -0.0416
18855TIP3    H177980   0.425   2.244   2.297 -1.0678  0.3995 -1.6691
18855TIP3    H277981   0.461   2.251   2.150  2.3764  0.3217 -0.9286
18856TIP3   OH277982   6.391   4.011   5.512  0.1872 -0.2019  0.0288
18856TIP3    H177983   6.464   4.031   5.454  0.5010 -0.1688  0.4345
18856TIP3    H277984   6.313   4.034   5.460  0.4262 -0.9804 -0.6934
18857TIP3   OH277985   6.162   1.793  11.250  0.1358 -0.1426 -0.2053
18857TIP3    H177986   6.086   1.786  11.307  1.5468  0.4409  1.8774
18857TIP3    H277987   6.232   1.826  11.307  1.4136  1.4432 -2.5080
18858TIP3   OH277988   2.896   5.697   3.086 -0.1359  0.1292 -0.5292
18858TIP3    H177989   2.897   5.614   3.036 -1.1969  0.2493 -0.7827
18858TIP3    H277990   2.965   5.687   3.151  0.2413 -0.6655 -1.0360
18859TIP3   OH277991   1.454   3.006  12.652 -0.7740  0.0815  0.3609
18859TIP3    H177992   1.517   3.009  12.725  0.3280  0.2180 -0.5737
18859TIP3    H277993   1.497   2.952  12.586 -2.0412 -0.5834  0.0436
18860TIP3   OH277994   2.609   2.654  16.966  0.2259 -0.0165  0.2969
18860TIP3    H177995   2.687   2.707  16.948  0.2264  0.0377  0.4523
18860TIP3    H277996   2.541   2.718  16.985  0.5706 -0.0736  1.8998
18861TIP3   OH277997   5.315   5.731   2.464  1.3587 -0.7060  0.1122
18861TIP3    H177998   5.267   5.694   2.390  2.6208 -1.1204 -0.5232
18861TIP3    H277999   5.404   5.699   2.453  2.1042  1.1163  0.5298
18862TIP3   OH278000   0.994   1.198  13.613  0.3992  0.0382  0.5408
18862TIP3    H178001   1.055   1.268  13.591  0.6868 -0.2746  0.3273
18862TIP3    H278002   0.910   1.226  13.576  0.8144 -0.3528 -0.7156
18863TIP3   OH278003   6.248   4.349   4.548  0.1361  0.1785  0.4129
18863TIP3    H178004   6.182   4.416   4.533  1.7691  1.5828 -0.9038
18863TIP3    H278005   6.219   4.275   4.494 -0.5891  0.6071  0.2019
18864TIP3   OH278006   5.057   5.984   1.459  0.0962 -0.6019  0.2712
18864TIP3    H178007   5.128   5.928   1.426 -0.5229 -0.4715 -1.3979
18864TIP3    H278008   5.041   6.047   1.388 -0.8317  0.1790  1.1377
18865TIP3   OH278009   3.728   4.791   1.689  0.1838 -0.1976 -0.2289
18865TIP3    H178010   3.708   4.775   1.597 -2.4792 -0.8289  0.3759
18865TIP3    H278011   3.761   4.880   1.692  0.4945 -0.2372 -1.8076
18866TIP3   OH278012   2.722   6.453   4.225 -0.3257  0.2584 -0.3736
18866TIP3    H178013   2.807   6.411   4.238  0.9072  1.6166 -3.1154
18866TIP3    H278014   2.738   6.546   4.245 -1.3538  0.4237 -0.2655
18867TIP3   OH278015   1.027   3.451  13.052  0.6581 -0.1133 -0.0356
18867TIP3    H178016   1.057   3.495  12.973 -0.5713 -1.9041 -1.5786
18867TIP3    H278017   1.052   3.510  13.123  3.8730  0.5050 -1.5114
18868TIP3   OH278018   4.990   5.117  15.078 -0.5820  0.2814  0.1769
18868TIP3    H178019   5.039   5.142  14.999 -0.3950 -0.1910  0.1378
18868TIP3    H278020   5.054   5.123  15.149 -0.4254 -0.4824  0.1024
18869TIP3   OH278021   1.986   6.683  12.040 -0.1409 -0.1655  0.2508
18869TIP3    H178022   1.939   6.696  11.957 -1.9075 -0.1067  1.2017
18869TIP3    H278023   2.057   6.746  12.037 -0.0798 -0.2526 -1.2728
18870TIP3   OH278024   3.149   6.714   2.878 -0.4507 -0.2385  0.0111
18870TIP3    H178025   3.224   6.704   2.937 -1.1721 -0.7756  0.8924
18870TIP3    H278026   3.095   6.782   2.919 -0.9864 -0.6518  0.0111
18871TIP3   OH278027   1.878   2.551  14.240 -0.0065 -0.3899  0.0091
18871TIP3    H178028   1.910   2.549  14.149  1.4724  1.2375  0.4329
18871TIP3    H278029   1.905   2.466  14.276 -1.2711 -1.3759 -1.2391
18872TIP3   OH278030   1.601   2.916  15.558  0.5260 -0.4823  0.2009
18872TIP3    H178031   1.545   2.896  15.483  0.3127  1.6898 -0.2878
18872TIP3    H278032   1.682   2.868  15.542 -0.2240 -1.5687 -0.4246
18873TIP3   OH278033   0.905   1.902   6.614  0.2738  0.2552 -0.2800
18873TIP3    H178034   0.929   1.815   6.644  0.9561  0.8255  0.9215
18873TIP3    H278035   0.818   1.918   6.652  0.0945  0.0467 -0.6054
18874TIP3   OH278036   2.507   3.976  14.945  0.1296  0.0087 -0.2810
18874TIP3    H178037   2.459   3.964  15.027 -0.3535 -1.0930 -0.7091
18874TIP3    H278038   2.494   3.894  14.897  0.5930  0.5490 -1.3677
18875TIP3   OH278039   5.044   6.711  13.126 -0.0226 -0.3044  0.3409
18875TIP3    H178040   5.114   6.677  13.069 -1.0401 -1.9193 -0.0212
18875TIP3    H278041   4.964   6.700  13.075 -0.9322 -1.5214  1.9324
18876TIP3   OH278042   4.882   1.335  16.637  0.0150 -0.0995  0.7254
18876TIP3    H178043   4.869   1.243  16.658 -0.3664 -0.1295  0.3825
18876TIP3    H278044   4.914   1.374  16.718 -1.4460 -0.2077  1.3931
18877TIP3   OH278045   3.609   6.498  13.261 -0.0926 -0.1258  0.1030
18877TIP3    H178046   3.622   6.592  13.244 -0.9985 -0.1221 -0.6212
18877TIP3    H278047   3.696   6.459  13.248 -0.3133  0.1550 -2.7938
18878TIP3   OH278048   5.429   4.654   0.619  0.1145  0.0421  0.0596
18878TIP3    H178049   5.444   4.690   0.531 -0.1995  0.0273 -0.0012
18878TIP3    H278050   5.507   4.678   0.668  0.1717  0.2924 -0.1491
18879TIP3   OH278051   1.212   2.534   6.478 -0.0869 -0.5441  0.2215
18879TIP3    H178052   1.163   2.598   6.529  0.4817  0.0784 -0.0004
18879TIP3    H278053   1.151   2.506   6.409 -0.8810 -1.4440  1.2538
18880TIP3   OH278054   6.148   5.324   5.139 -0.0933 -0.1740 -0.2986
18880TIP3    H178055   6.105   5.265   5.077 -0.4769  1.1366 -1.3329
18880TIP3    H278056   6.227   5.353   5.093 -0.8110  1.4680 -0.5615
18881TIP3   OH278057   6.019   5.225   4.383  0.0767 -1.0575 -0.3084
18881TIP3    H178058   5.939   5.214   4.332 -1.2286 -1.1649  1.6733
18881TIP3    H278059   6.062   5.139   4.378 -0.7198 -1.4772 -0.1089
18882TIP3   OH278060   6.528   1.835  12.311 -0.0240  0.0614  0.3951
18882TIP3    H178061   6.436   1.812  12.320  0.2819 -1.2307  0.3168
18882TIP3    H278062   6.527   1.930  12.300 -1.3935 -0.0028 -0.2713
18883TIP3   OH278063   2.847   0.676   5.655 -0.4489  0.1210  0.1264
18883TIP3    H178064   2.858   0.691   5.561  0.3825  1.2620  0.3745
18883TIP3    H278065   2.798   0.752   5.686 -0.9725 -0.3890  0.5803
18884TIP3   OH278066   3.135   1.318   2.023  0.3108  0.0448 -0.3158
18884TIP3    H178067   3.133   1.354   1.934 -0.2807 -0.1250 -0.3773
18884TIP3    H278068   3.217   1.350   2.060  0.3622  0.4658 -0.7798
18885TIP3   OH278069   4.322   0.809  14.759  0.3197  0.4246 -0.3152
18885TIP3    H178070   4.246   0.866  14.747 -0.8909 -0.7961  1.1410
18885TIP3    H278071   4.322   0.787  14.853  1.4947 -0.9198 -0.5830
18886TIP3   OH278072   2.146   1.692   2.969  1.2022  0.0311  0.7329
18886TIP3    H178073   2.088   1.750   3.019 -0.3521 -1.4004  0.6832
18886TIP3    H278074   2.171   1.744   2.892  0.2155  0.7997  0.9052
18887TIP3   OH278075   2.653   1.674  14.422 -0.9097  0.2277  0.1598
18887TIP3    H178076   2.699   1.594  14.397 -2.1774  0.1532 -2.1957
18887TIP3    H278077   2.722   1.738  14.435  0.0825 -0.9984  1.2483
18888TIP3   OH278078   2.678   0.408  12.813  0.3539 -0.4271  0.0305
18888TIP3    H178079   2.649   0.407  12.905  0.9720  3.0999  0.4175
18888TIP3    H278080   2.739   0.334  12.807  2.3248  0.6541  3.3065
18889TIP3   OH278081   6.499   0.429  13.222 -0.1304 -0.1878  0.1177
18889TIP3    H178082   6.433   0.439  13.154 -0.4736  0.8237  0.5683
18889TIP3    H278083   6.457   0.464  13.301  0.8350  0.2162  0.4721
18890TIP3   OH278084   0.981   4.365  16.252 -0.6388  0.0805  0.1409
18890TIP3    H178085   1.004   4.284  16.206 -0.7773  0.6759 -1.0234
18890TIP3    H278086   0.889   4.380  16.230 -0.7321  0.3495  0.6857
18891TIP3   OH278087   1.604   3.285  12.957  0.1552  0.3983  0.2389
18891TIP3    H178088   1.655   3.354  12.998 -0.2740  0.5619  0.5099
18891TIP3    H278089   1.519   3.325  12.939  0.2081  0.2148 -0.4617
18892TIP3   OH278090   0.405   1.533   1.647  0.4423 -0.2671  0.1073
18892TIP3    H178091   0.473   1.534   1.580  0.4308 -2.5965 -0.0376
18892TIP3    H278092   0.450   1.506   1.727  0.1589  0.8826  0.6721
18893TIP3   OH278093   1.354   0.032   2.546  0.0098  0.1952 -0.7158
18893TIP3    H178094   1.266   0.068   2.562 -0.3729 -0.1703 -1.8998
18893TIP3    H278095   1.395   0.095   2.487  0.4390  0.2067 -0.4071
18894TIP3   OH278096   6.616   5.493  12.402 -0.3598  0.3198  0.6826
18894TIP3    H178097   6.687   5.429  12.409  2.0481  2.5454 -1.4574
18894TIP3    H278098   6.569   5.469  12.322  0.5868  1.2038 -0.1586
18895TIP3   OH278099   6.334   1.988   6.145  0.1401  0.2131 -0.0845
18895TIP3    H178100   6.279   1.959   6.218 -1.4372  2.0619 -0.4221
18895TIP3    H278101   6.297   2.073   6.121  1.1549  0.0498 -2.4817
18896TIP3   OH278102   3.933   6.332  11.951 -0.4915  0.2345 -0.5834
18896TIP3    H178103   3.933   6.419  11.910 -0.8121 -0.7805 -2.8597
18896TIP3    H278104   3.884   6.277  11.890 -0.2433 -1.5794  0.7875
18897TIP3   OH278105   5.970   6.615   3.630 -0.5917 -0.5752 -0.0172
18897TIP3    H178106   5.966   6.656   3.716  0.0534  0.2772 -0.3770
18897TIP3    H278107   5.898   6.551   3.630 -1.1457  0.0301  0.8280
18898TIP3   OH278108   3.097   6.008   4.622 -0.5552 -0.0565 -0.1307
18898TIP3    H178109   3.091   5.975   4.711  0.6652  0.3319  0.1222
18898TIP3    H278110   3.092   5.931   4.566 -0.0997 -0.4278  0.3366
18899TIP3   OH278111   1.488   0.486  14.934  0.8693 -0.3828  0.1405
18899TIP3    H178112   1.559   0.540  14.969 -0.2180  1.0238  0.2941
18899TIP3    H278113   1.503   0.484  14.839  1.0456  0.0160  0.1606
18900TIP3   OH278114   5.965   1.534   5.599  0.1278 -0.6331  0.0437
18900TIP3    H178115   6.044   1.564   5.644 -0.7157  2.0363 -0.0552
18900TIP3    H278116   5.974   1.568   5.510 -2.4545  2.7122  0.8488
18901TIP3   OH278117   5.135   1.717  16.661 -0.1717 -0.1713 -0.2646
18901TIP3    H178118   5.045   1.738  16.685 -0.6217 -1.1336 -1.0612
18901TIP3    H278119   5.137   1.724  16.566  0.2658 -1.3376 -0.3578
18902TIP3   OH278120   2.931   0.396   3.724  0.1563  0.5645  0.0249
18902TIP3    H178121   3.001   0.365   3.666 -0.4003  2.8762 -2.0306
18902TIP3    H278122   2.969   0.390   3.812  1.9919 -0.6364 -0.7773
18903TIP3   OH278123   3.857   6.446   2.213 -0.2990 -0.4876  0.2856
18903TIP3    H178124   3.931   6.484   2.167  0.0809 -1.7905 -0.2070
18903TIP3    H278125   3.896   6.390   2.280 -0.8471  0.6551  1.6254
18904TIP3   OH278126   1.728   6.010  16.741 -0.2513  0.7564 -0.5019
18904TIP3    H178127   1.641   6.049  16.748  1.0111  3.9244 -0.6519
18904TIP3    H278128   1.770   6.059  16.670  2.2600  0.6147  0.7846
18905TIP3   OH278129   4.954   1.218   1.361 -0.0910  0.1970 -0.2998
18905TIP3    H178130   4.861   1.238   1.364 -0.4547 -1.4123  0.5459
18905TIP3    H278131   4.961   1.129   1.396  2.0895  1.4216  3.0072
18906TIP3   OH278132   5.107   3.523  13.089 -0.2563 -0.5300 -0.1718
18906TIP3    H178133   5.072   3.564  13.168 -1.3988 -1.9949  0.1203
18906TIP3    H278134   5.147   3.442  13.119  0.5731 -0.4184 -0.9305
18907TIP3   OH278135   0.195   1.478   3.840  0.3385 -0.1561 -0.0745
18907TIP3    H178136   0.233   1.495   3.927 -0.0352  1.9816 -0.2731
18907TIP3    H278137   0.210   1.385   3.825  1.9707 -0.2034  1.5362
18908TIP3   OH278138   1.663   1.199  12.090  0.5920  0.1917  0.3426
18908TIP3    H178139   1.630   1.148  12.164  0.0270 -0.3537 -0.2694
18908TIP3    H278140   1.752   1.224  12.116  0.4490 -0.0977  1.1488
18909TIP3   OH278141   2.728   1.785   5.564  0.6030 -0.1666 -0.1252
18909TIP3    H178142   2.762   1.697   5.545 -0.3688 -0.4371 -0.6820
18909TIP3    H278143   2.669   1.773   5.638  0.4645  0.0090 -0.2049
18910TIP3   OH278144   1.841   0.534   5.928  1.3440 -0.2262  1.2043
18910TIP3    H178145   1.882   0.606   5.977  1.8292  1.8556 -1.9788
18910TIP3    H278146   1.912   0.473   5.910  1.9096  0.6510  0.3616
18911TIP3   OH278147   2.903   5.407   4.395 -0.4143 -0.2314 -0.4003
18911TIP3    H178148   2.953   5.356   4.458 -1.0122  0.8694  1.0243
18911TIP3    H278149   2.969   5.459   4.349  0.0169 -0.9611 -0.6266
18912TIP3   OH278150   4.419   1.950   2.221  0.1670 -0.2734 -0.2977
18912TIP3    H178151   4.350   2.015   2.226  0.8040  0.8629 -3.7454
18912TIP3    H278152   4.500   2.001   2.221  0.8107 -1.2567 -0.3963
18913TIP3   OH278153   3.978   5.290   4.621 -0.3206  0.5668 -0.9152
18913TIP3    H178154   3.944   5.378   4.605  0.1830  0.4512 -2.8366
18913TIP3    H278155   3.901   5.238   4.641 -0.5903  1.4910  0.5649
18914TIP3   OH278156   3.638   5.060   0.581  0.6202 -0.0735  0.5226
18914TIP3    H178157   3.630   4.983   0.637 -0.4447  0.5601  1.2961
18914TIP3    H278158   3.551   5.069   0.540  0.8070  0.5679  0.2562
18915TIP3   OH278159   3.945   5.550  14.771 -0.2981 -0.5721 -0.4951
18915TIP3    H178160   3.981   5.513  14.691  0.3988 -1.0739  0.0355
18915TIP3    H278161   4.022   5.585  14.817 -0.7191 -0.0971 -0.1443
18916TIP3   OH278162   3.421   3.231   4.818  0.0268  0.1295  0.0532
18916TIP3    H178163   3.471   3.288   4.760  2.1843 -0.5090  1.1820
18916TIP3    H278164   3.480   3.214   4.891 -1.8288 -0.7932  1.4110
18917TIP3   OH278165   4.396   2.973  11.983 -0.2435 -0.1862 -0.2471
18917TIP3    H178166   4.346   2.893  11.967 -0.1231 -0.9830  2.6833
18917TIP3    H278167   4.334   3.030  12.029  0.7355 -0.1165  1.0254
18918TIP3   OH278168   2.313   0.866   1.922 -0.1711  0.1356 -0.1604
18918TIP3    H178169   2.282   0.887   1.834  0.0705 -1.8988 -0.7791
18918TIP3    H278170   2.405   0.892   1.923  0.1407 -0.8949 -0.9194
18919TIP3   OH278171   5.145   2.818  14.631 -0.4065  0.3755 -0.9230
18919TIP3    H178172   5.202   2.805  14.707  0.2728  1.1886 -1.2833
18919TIP3    H278173   5.138   2.731  14.591  1.1320  0.3772 -1.2514
18920TIP3   OH278174   2.853   4.995  16.962 -0.5787 -0.3444 -0.0527
18920TIP3    H178175   2.788   4.931  16.990 -0.4596 -0.0739  0.9054
18920TIP3    H278176   2.867   5.050  17.040  1.6816 -1.1363  0.1897
18921TIP3   OH278177   0.043   6.325  12.713  0.5762 -0.5342 -0.3212
18921TIP3    H178178   0.004   6.244  12.747  0.0947  0.4861  1.6550
18921TIP3    H278179  -0.027   6.390  12.720  1.5408  0.4984 -0.0874
18922TIP3   OH278180   1.436   3.684   0.975  0.4452  0.2263 -0.3449
18922TIP3    H178181   1.368   3.618   0.962  0.1771  0.0796  1.5195
18922TIP3    H278182   1.445   3.726   0.890  0.6777 -2.2436 -1.6351
18923TIP3   OH278183   1.088   3.270   5.442 -0.0283 -0.5353 -0.0976
18923TIP3    H178184   1.116   3.180   5.455  1.7617 -0.0418 -0.2924
18923TIP3    H278185   1.127   3.318   5.515 -1.3150  0.0391  0.2517
18924TIP3   OH278186   6.428   2.140   0.964 -0.2908  0.1171  0.4891
18924TIP3    H178187   6.470   2.109   1.044 -1.8686 -1.1039  0.8840
18924TIP3    H278188   6.353   2.191   0.994 -1.3657 -1.0209 -0.1876
18925TIP3   OH278189   5.850   6.352   2.258  0.4226  0.1082  0.3227
18925TIP3    H178190   5.783   6.295   2.297  1.5692 -0.6906  1.1873
18925TIP3    H278191   5.818   6.369   2.170 -0.4829 -0.9949  0.4055
18926TIP3   OH278192   6.361   5.284   3.659  0.1197 -0.0880  0.1164
18926TIP3    H178193   6.284   5.292   3.603  0.9348  1.4709 -0.8676
18926TIP3    H278194   6.331   5.312   3.745 -0.3508  0.8254 -0.3294
18927TIP3   OH278195   2.081   0.638   2.296  0.1385 -0.1850 -0.3654
18927TIP3    H178196   2.037   0.621   2.379 -1.1760  0.7228 -0.8457
18927TIP3    H278197   2.049   0.569   2.237  0.3188 -0.2471 -0.3927
18928TIP3   OH278198   3.693   3.382   2.698 -0.2883 -0.1612  0.0041
18928TIP3    H178199   3.625   3.442   2.728  0.7861  0.0800  2.1107
18928TIP3    H278200   3.746   3.433   2.636 -0.0541  0.7223  0.9232
18929TIP3   OH278201   1.976   2.733  15.109  0.5843 -0.3753 -0.1524
18929TIP3    H178202   2.052   2.788  15.130  1.0441 -0.5005 -1.4282
18929TIP3    H278203   1.913   2.792  15.069 -0.2194 -0.1747  1.3345
18930TIP3   OH278204   4.870   6.038  12.925 -0.0245 -0.5967  0.0452
18930TIP3    H178205   4.932   6.040  12.998  1.5107  0.6736 -1.2116
18930TIP3    H278206   4.798   6.095  12.952 -0.1181 -1.1939  1.0780
18931TIP3   OH278207   0.665   5.137  11.179 -0.7919  0.2985 -0.2452
18931TIP3    H178208   0.652   5.050  11.217  2.2173 -0.4282 -0.6228
18931TIP3    H278209   0.631   5.129  11.089 -1.4291 -0.1513  0.0257
18932TIP3   OH278210   2.141   2.514  15.366 -0.2423 -0.8078  0.0797
18932TIP3    H178211   2.046   2.519  15.368 -0.2886 -1.3953 -0.2758
18932TIP3    H278212   2.160   2.435  15.314  0.4402  0.3442 -1.5306
18933TIP3   OH278213   0.640   3.922   4.820  0.0719  0.8826 -0.0881
18933TIP3    H178214   0.685   4.006   4.826 -0.2032  1.0677 -0.6193
18933TIP3    H278215   0.603   3.920   4.732  2.4295 -0.9906 -1.1605
18934TIP3   OH278216   1.280   3.685   2.735  0.0914  0.0606  0.0165
18934TIP3    H178217   1.232   3.757   2.776  1.4660  0.7880  0.3995
18934TIP3    H278218   1.361   3.678   2.786  0.5725 -0.8930 -0.8403
18935TIP3   OH278219   2.627   4.689  14.610  0.2018 -0.1828  0.3239
18935TIP3    H178220   2.660   4.747  14.541  0.1415 -0.8569 -0.2833
18935TIP3    H278221   2.699   4.627  14.625 -0.3678 -0.9915 -0.2361
18936TIP3   OH278222   2.711   4.258   4.617 -0.0250  0.1297 -0.6275
18936TIP3    H178223   2.686   4.342   4.655  1.4026  0.1084  0.4291
18936TIP3    H278224   2.724   4.201   4.692  1.2666 -0.3786 -1.2049
18937TIP3   OH278225   4.522   5.187  10.767 -0.0241 -0.3186 -0.1448
18937TIP3    H178226   4.546   5.274  10.798 -0.4488 -0.4405  0.5510
18937TIP3    H278227   4.427   5.182  10.779 -0.3188 -0.1226 -2.1338
18938TIP3   OH278228   6.028   3.492  16.526 -0.1965 -0.3495 -0.0097
18938TIP3    H178229   5.949   3.531  16.564 -1.1628 -1.3322 -0.9479
18938TIP3    H278230   6.027   3.402  16.557  1.4236 -0.0028  1.2298
18939TIP3   OH278231   2.761   4.673  13.761  0.1428  0.2490  0.0924
18939TIP3    H178232   2.787   4.621  13.685 -0.4925 -2.6096  1.6854
18939TIP3    H278233   2.771   4.614  13.835  0.7686  2.9268  2.2976
18940TIP3   OH278234   5.432   0.775  15.125  0.0288 -0.3059 -0.5457
18940TIP3    H178235   5.509   0.788  15.069 -0.6887 -0.6346 -1.6536
18940TIP3    H278236   5.409   0.683  15.113 -0.3225 -0.2970  0.0488
18941TIP3   OH278237   5.214   3.161  17.090 -0.3105 -0.7296 -0.0881
18941TIP3    H178238   5.223   3.192  17.180 -0.2720 -0.6931 -0.1050
18941TIP3    H278239   5.121   3.143  17.080 -0.3217 -0.6901 -0.0550
18942TIP3   OH278240   0.229   0.706  15.444  0.1266 -0.2105  0.2051
18942TIP3    H178241   0.242   0.759  15.365 -2.0788  3.4858  2.0128
18942TIP3    H278242   0.143   0.666  15.431  0.1151 -0.2509  0.4168
18943TIP3   OH278243   0.288   5.033   2.480  0.0549  0.2331  0.0509
18943TIP3    H178244   0.285   5.021   2.575 -0.3469 -5.1876 -0.3371
18943TIP3    H278245   0.196   5.034   2.452  0.1790  1.1712 -0.3720
18944TIP3   OH278246   6.734   5.983  15.041  0.1277  0.1308  0.3239
18944TIP3    H178247   6.697   5.952  14.958  1.1490  2.9434 -1.3133
18944TIP3    H278248   6.658   5.990  15.099 -1.2829  1.5310 -1.5476
18945TIP3   OH278249   2.112   6.272   2.179 -0.1160 -0.6895 -0.0591
18945TIP3    H178250   2.188   6.325   2.203 -1.4072  0.0411  2.9778
18945TIP3    H278251   2.092   6.296   2.089  2.4997 -0.0403 -0.5452
18946TIP3   OH278252   4.304   3.188  12.542  0.2734  0.9535 -0.0842
18946TIP3    H178253   4.327   3.266  12.490  1.5411  0.8508  0.2956
18946TIP3    H278254   4.220   3.211  12.582  0.2049  1.7852 -0.6574
18947TIP3   OH278255   6.269   6.013  12.972  0.1076  0.2737  0.1766
18947TIP3    H178256   6.182   6.054  12.980 -0.3487 -0.7713  0.7068
18947TIP3    H278257   6.330   6.087  12.972 -0.8093  1.0607 -0.7902
18948TIP3   OH278258   4.488   1.065   5.088 -0.4981 -0.0984  0.0486
18948TIP3    H178259   4.563   1.016   5.122 -1.1335 -1.7250 -0.7868
18948TIP3    H278260   4.432   1.079   5.164  0.2310  0.3760  0.5151
18949TIP3   OH278261   4.062   6.401  16.634 -0.1562 -0.8092  0.0017
18949TIP3    H178262   4.092   6.405  16.543  1.7369 -2.2538  0.5027
18949TIP3    H278263   4.128   6.347  16.679 -0.7397  0.3057  2.3561
18950TIP3   OH278264   1.088   2.025   4.506  0.5855 -0.0686  0.0730
18950TIP3    H178265   1.141   1.953   4.471 -0.7925 -0.8917 -0.4437
18950TIP3    H278266   1.004   2.015   4.461  0.1006  1.3776  0.6213
18951TIP3   OH278267   1.779   5.376   2.205 -0.1737 -1.4015 -0.3905
18951TIP3    H178268   1.754   5.284   2.196 -0.0480 -1.3954 -0.8224
18951TIP3    H278269   1.814   5.400   2.119  1.0017 -1.3114  0.0936
18952TIP3   OH278270   5.782   5.814  14.895 -0.3151  0.5617  0.1548
18952TIP3    H178271   5.841   5.774  14.958 -2.0466 -1.5044  0.5879
18952TIP3    H278272   5.835   5.882  14.852  2.2674 -0.9868  0.6574
18953TIP3   OH278273   6.611   3.837  11.488  0.7819 -0.7673  0.0115
18953TIP3    H178274   6.566   3.901  11.542 -0.7995 -1.3798 -0.5165
18953TIP3    H278275   6.668   3.889  11.431 -0.3287  0.1731 -0.2831
18954TIP3   OH278276   4.994   5.074  11.419  0.0620  0.2333 -0.5755
18954TIP3    H178277   4.924   5.124  11.377 -0.2977 -1.0856 -1.6158
18954TIP3    H278278   4.950   5.009  11.472  0.4960 -0.2461 -0.7917
18955TIP3   OH278279   6.334   3.762  13.162 -0.7184  0.4755  0.5374
18955TIP3    H178280   6.382   3.691  13.204  0.7574  0.4958 -1.0091
18955TIP3    H278281   6.254   3.771  13.213  0.3457 -0.4138  2.4533
18956TIP3   OH278282   4.117   6.312   3.293  0.0192 -0.0799 -0.2750
18956TIP3    H178283   4.104   6.271   3.208 -0.1057 -0.3883 -0.1095
18956TIP3    H278284   4.157   6.243   3.346  0.0962  0.1115 -0.0843
18957TIP3   OH278285   1.475   4.077  13.745  0.0130 -0.1127 -0.0343
18957TIP3    H178286   1.558   4.123  13.760  0.0114  0.2152 -0.9693
18957TIP3    H278287   1.497   4.006  13.685 -0.0706 -1.1019  1.0640
18958TIP3   OH278288   1.706   0.067   0.262 -0.8814  0.1450  0.8343
18958TIP3    H178289   1.684   0.010   0.335 -2.1591 -0.9459 -0.3493
18958TIP3    H278290   1.624   0.112   0.241 -0.2553  1.3030  0.7793
18959TIP3   OH278291   2.554   0.543   4.775  0.0948  0.0312  0.0562
18959TIP3    H178292   2.612   0.610   4.811 -1.3374  0.4981  1.6257
18959TIP3    H278293   2.514   0.584   4.699  0.7050  0.2204 -0.1713
18960TIP3   OH278294   5.924   4.935   4.177 -0.2410 -0.3015 -0.7584
18960TIP3    H178295   5.883   5.021   4.176  0.5606  0.1959  1.8787
18960TIP3    H278296   5.963   4.926   4.090 -1.5363  1.3518 -1.5795
18961TIP3   OH278297   1.526   3.596  11.559  0.5016  0.6656  0.0800
18961TIP3    H178298   1.464   3.537  11.518 -1.5436  3.1640 -0.7255
18961TIP3    H278299   1.516   3.679  11.512  1.2726  2.4234  2.7225
18962TIP3   OH278300   2.349   3.368  16.274 -0.3472  0.3192  0.0427
18962TIP3    H178301   2.379   3.292  16.225 -0.0611 -0.7249  1.7530
18962TIP3    H278302   2.408   3.373  16.349 -1.3305  1.2770  0.7863
18963TIP3   OH278303   3.746   4.026   0.330  0.1629  0.3438  0.0648
18963TIP3    H178304   3.655   4.007   0.354  0.0541  1.0978  0.2762
18963TIP3    H278305   3.794   4.024   0.413  0.3788 -0.2416 -0.0701
18964TIP3   OH278306   4.769   0.075   5.353  0.2962 -0.2699  0.0700
18964TIP3    H178307   4.721   0.073   5.270 -1.5407 -0.3597  1.0924
18964TIP3    H278308   4.721   0.138   5.407  0.9607 -0.8249  1.3456
18965TIP3   OH278309   6.699   3.742  16.926 -0.6170 -0.0828 -0.7312
18965TIP3    H178310   6.614   3.736  16.884 -0.4361  2.3198 -1.6157
18965TIP3    H278311   6.743   3.660  16.902 -1.7790 -0.2915 -2.3661
18966TIP3   OH278312   5.701   3.637   6.031  0.0794  0.5328  0.5328
18966TIP3    H178313   5.751   3.626   6.112 -1.3101  2.0021  1.6738
18966TIP3    H278314   5.712   3.730   6.009  0.4613  0.1473 -1.0128
18967TIP3   OH278315   5.722   4.936   4.735 -0.2773 -0.3433  0.1249
18967TIP3    H178316   5.813   4.909   4.718 -0.0373  0.5699 -0.1309
18967TIP3    H278317   5.705   4.907   4.825 -0.0920 -1.4268 -0.1716
18968TIP3   OH278318   4.042   2.191   3.935 -0.3954 -0.4254  0.2301
18968TIP3    H178319   4.011   2.178   4.024 -2.8201  0.5901 -0.3966
18968TIP3    H278320   4.025   2.108   3.891 -1.5208 -0.1353  0.1004
18969TIP3   OH278321   5.529   3.231  14.640 -0.3868  0.2399  0.5640
18969TIP3    H178322   5.479   3.167  14.690 -0.0515 -0.7332 -0.3228
18969TIP3    H278323   5.592   3.267  14.703 -0.4003 -0.4948  0.9980
18970TIP3   OH278324   0.835   0.323   0.700  0.1978  0.5505 -0.1833
18970TIP3    H178325   0.925   0.301   0.678 -0.6104 -1.8811 -1.3037
18970TIP3    H278326   0.797   0.355   0.618 -0.1159  1.1550  0.1844
18971TIP3   OH278327   4.174   3.856   3.755 -0.3331 -0.0072  0.0199
18971TIP3    H178328   4.156   3.771   3.795 -2.4801  0.9302  1.2146
18971TIP3    H278329   4.102   3.871   3.694  0.5807  0.5235 -0.9799
18972TIP3   OH278330   0.379   2.009  11.308 -0.6616  0.0985  0.4628
18972TIP3    H178331   0.457   2.055  11.337  0.0977 -0.9941  0.2142
18972TIP3    H278332   0.344   2.062  11.237 -0.3435  0.7704  0.8007
18973TIP3   OH278333   0.898   4.997  17.145  0.3527 -0.3573  0.2012
18973TIP3    H178334   0.882   4.965  17.056 -2.5941  1.8159 -0.2090
18973TIP3    H278335   0.950   5.077  17.133  1.7128 -1.1373  0.6583
18974TIP3   OH278336   5.588   0.844  16.784 -0.4032  0.2783 -0.2019
18974TIP3    H178337   5.516   0.783  16.797 -0.7057  0.4637 -0.9687
18974TIP3    H278338   5.638   0.840  16.866  1.2444 -3.1014 -1.1854
18975TIP3   OH278339   0.302   6.142  17.271  0.5939  0.6099 -0.1254
18975TIP3    H178340   0.220   6.183  17.300  1.1629  0.0576  2.4934
18975TIP3    H278341   0.298   6.053  17.305  1.3702 -0.1239 -1.8357
18976TIP3   OH278342   5.736   4.399  12.049  0.2489 -0.3952 -0.1306
18976TIP3    H178343   5.823   4.416  12.085  0.1123  0.3327 -0.1250
18976TIP3    H278344   5.744   4.315  12.003  1.2431  0.2030 -1.0908
18977TIP3   OH278345   0.929   0.585   6.621 -0.8464 -0.7601  0.0561
18977TIP3    H178346   0.956   0.499   6.589  1.6455  0.4168 -1.3117
18977TIP3    H278347   0.906   0.634   6.542 -0.5532  0.3438  0.6312
18978TIP3   OH278348   2.552   2.147  16.803 -0.3085  0.4199 -0.1740
18978TIP3    H178349   2.521   2.228  16.763  0.1105 -0.5432 -2.5936
18978TIP3    H278350   2.642   2.167  16.830 -0.1875  0.7391 -0.7989
18979TIP3   OH278351   2.147   5.764  16.172  0.2548 -0.1873  0.1217
18979TIP3    H178352   2.158   5.752  16.266 -1.4140 -3.4101  0.0423
18979TIP3    H278353   2.237   5.764  16.137  0.8813 -2.9117  1.4257
18980TIP3   OH278354   4.428   2.061  13.193  0.6155 -0.3701 -0.0795
18980TIP3    H178355   4.492   2.131  13.182 -0.1645  0.3601 -0.0827
18980TIP3    H278356   4.478   1.980  13.181  1.2605  0.2120 -1.4150
18981TIP3   OH278357   3.315   1.260   0.418  0.8867 -0.2727 -0.2930
18981TIP3    H178358   3.386   1.219   0.466 -0.7630 -2.6040  0.3327
18981TIP3    H278359   3.274   1.189   0.369 -0.5430  1.1345 -1.2786
18982TIP3   OH278360   3.366   3.582  13.177 -0.2249  0.1035 -0.1588
18982TIP3    H178361   3.437   3.540  13.129  1.1581  1.0402  0.9900
18982TIP3    H278362   3.334   3.651  13.118  0.1021 -0.0496 -0.5148
18983TIP3   OH278363   0.733   1.407  14.937 -0.2328  0.7750  0.3361
18983TIP3    H178364   0.738   1.396  15.032  0.9927  1.6540  0.4008
18983TIP3    H278365   0.823   1.396  14.908 -0.3869  1.7922 -0.5690
18984TIP3   OH278366   6.558   5.513   2.170 -0.0531  0.1184  0.0596
18984TIP3    H178367   6.556   5.564   2.251  1.5350 -0.7884  0.7153
18984TIP3    H278368   6.640   5.463   2.175 -0.2318 -0.4444 -1.8137
18985TIP3   OH278369   4.343   2.130   0.463 -0.2550 -0.0141 -0.3445
18985TIP3    H178370   4.249   2.116   0.452  0.0972 -1.7271 -1.5589
18985TIP3    H278371   4.384   2.069   0.401  1.6838 -0.2567  1.0963
18986TIP3   OH278372   3.731   4.045  13.925 -0.0853 -0.2334 -0.4497
18986TIP3    H178373   3.772   3.959  13.917  0.0326 -0.2774  0.4911
18986TIP3    H278374   3.657   4.030  13.984  0.3974  0.4658  0.3397
18987TIP3   OH278375   4.736   6.037  15.961 -0.0513  0.1373  0.2695
18987TIP3    H178376   4.644   6.061  15.970 -0.3109 -1.1005  1.0932
18987TIP3    H278377   4.782   6.121  15.956 -1.3959  0.8494 -2.5611
18988TIP3   OH278378   3.726   3.045   1.447 -0.0143 -0.2243  0.5621
18988TIP3    H178379   3.736   3.100   1.369  0.9772 -1.6413 -0.3725
18988TIP3    H278380   3.638   3.008   1.439  0.4754 -1.2282 -0.5228
18989TIP3   OH278381   5.036   0.603  16.394  0.0217  0.2754  0.0523
18989TIP3    H178382   5.009   0.682  16.347 -0.3977 -1.0406 -2.0500
18989TIP3    H278383   4.955   0.560  16.418  0.1981 -0.8758 -1.2999
18990TIP3   OH278384   4.020   5.306  16.832  0.5829  0.3053  0.5538
18990TIP3    H178385   4.012   5.216  16.863 -0.4434 -0.1517 -0.8841
18990TIP3    H278386   3.937   5.347  16.855  0.2329  0.2625 -0.5642
18991TIP3   OH278387   3.599   5.043  11.574 -0.4648  0.1828  0.1313
18991TIP3    H178388   3.604   5.064  11.668 -0.2737  0.2157  0.1127
18991TIP3    H278389   3.690   5.034  11.546 -0.5313 -0.1939  0.0291
18992TIP3   OH278390   0.196   4.215   2.075  0.3708  0.0936 -0.5114
18992TIP3    H178391   0.219   4.306   2.095  0.2286  0.0797 -0.2804
18992TIP3    H278392   0.280   4.170   2.067  0.4637  0.4373 -1.5469
18993TIP3   OH278393   1.721   3.345   0.921  0.1044  1.0107 -0.5881
18993TIP3    H178394   1.627   3.334   0.937  0.3278  0.7345  0.5755
18993TIP3    H278395   1.728   3.345   0.825 -1.0102  0.4272 -0.6933
18994TIP3   OH278396   0.229   2.468   4.466 -0.5458 -0.3502 -0.0232
18994TIP3    H178397   0.236   2.413   4.544  1.6424  0.0136  0.0796
18994TIP3    H278398   0.306   2.524   4.469 -2.4988  2.5462 -0.3254
18995TIP3   OH278399   0.745   4.022  13.862  0.1489  0.3400 -1.0077
18995TIP3    H178400   0.805   4.058  13.928 -1.1270 -0.4656  0.6781
18995TIP3    H278401   0.667   3.997  13.912 -0.5681 -1.0529 -2.7106
18996TIP3   OH278402   1.933   4.611  16.836  0.8326 -0.2480 -0.2715
18996TIP3    H178403   1.898   4.656  16.759  0.0557 -0.8277 -0.2651
18996TIP3    H278404   1.955   4.523  16.804  0.7389 -0.4087  0.1088
18997TIP3   OH278405   6.367   6.297   6.845 -0.3842  0.1232  0.3811
18997TIP3    H178406   6.300   6.317   6.911 -1.3494  0.3632 -0.6446
18997TIP3    H278407   6.387   6.204   6.858 -0.3691  0.2259  1.1647
18998TIP3   OH278408   0.169   1.543   2.617 -0.6936 -0.9254  0.4964
18998TIP3    H178409   0.095   1.503   2.663  0.1092 -2.5857  0.4150
18998TIP3    H278410   0.186   1.485   2.543  0.4990 -0.4220  0.3470
18999TIP3   OH278411   3.373   4.311   5.296  0.0050  1.0467 -0.4299
18999TIP3    H178412   3.427   4.238   5.326 -1.2649  1.4820  3.4964
18999TIP3    H278413   3.283   4.279   5.301 -0.4678  2.2777 -0.5048
19000TIP3   OH278414   3.806   0.092  15.301  0.1059  0.3474 -0.1238
19000TIP3    H178415   3.850   0.054  15.378 -2.2907 -1.4414  0.4876
19000TIP3    H278416   3.728   0.133  15.337 -2.3025 -2.5005 -1.6476
19001TIP3   OH278417   5.263   1.586   3.870 -0.4469  0.0580 -0.4252
19001TIP3    H178418   5.275   1.491   3.867  1.3033  0.1503  1.3018
19001TIP3    H278419   5.200   1.599   3.941 -0.4213  0.1943 -0.4281
19002TIP3   OH278420   4.345   6.010   1.757  0.7359 -0.0687  0.3349
19002TIP3    H178421   4.299   6.013   1.673  0.4799  0.0997  0.4791
19002TIP3    H278422   4.437   6.002   1.734  0.8118  1.4974  0.0045
19003TIP3   OH278423   1.036   5.598   2.457 -0.4367  0.2269 -0.1104
19003TIP3    H178424   1.117   5.552   2.433 -1.2002 -2.0501  1.3552
19003TIP3    H278425   0.978   5.585   2.382  0.2565  1.2202 -0.8498
19004TIP3   OH278426   3.255   2.157   5.509  0.4935  0.1405 -0.4049
19004TIP3    H178427   3.342   2.117   5.508  0.8162  0.8249 -0.9428
19004TIP3    H278428   3.267   2.240   5.463 -0.0337  1.1223  1.1468
19005TIP3   OH278429   2.605   2.217   1.919 -0.4220 -0.2860 -0.0558
19005TIP3    H178430   2.532   2.199   1.859 -0.4502 -0.8117  0.1358
19005TIP3    H278431   2.603   2.312   1.931 -0.9461 -0.2741 -0.2224
19006TIP3   OH278432   2.380   3.882   4.884  0.1183 -0.2477 -0.3866
19006TIP3    H178433   2.340   3.798   4.908  0.7901  0.0150  1.9478
19006TIP3    H278434   2.306   3.940   4.870 -0.4493 -0.1850  2.2719
19007TIP3   OH278435   5.589   2.445   0.735  0.1845  0.1545  0.7737
19007TIP3    H178436   5.568   2.536   0.752 -1.4220  0.1016 -0.6263
19007TIP3    H278437   5.615   2.442   0.642 -0.6854 -0.9218  0.5373
19008TIP3   OH278438   0.619   2.516  16.224  0.2897  0.0320 -0.2411
19008TIP3    H178439   0.536   2.471  16.208 -1.0573  2.2694 -0.0634
19008TIP3    H278440   0.611   2.598  16.175  1.5043  1.2213  1.4411
19009TIP3   OH278441   2.093   0.563  11.083  0.2498  0.5019 -0.1817
19009TIP3    H178442   2.165   0.503  11.064 -0.0511 -0.1833  0.7449
19009TIP3    H278443   2.115   0.599  11.169 -1.9061 -1.9685  1.5531
19010TIP3   OH278444   0.031   2.719   3.332  0.2619  0.1635  0.0890
19010TIP3    H178445   0.057   2.652   3.268  0.6992  1.3524 -1.0234
19010TIP3    H278446   0.071   2.691   3.414  2.9024  0.5430 -0.9856
19011TIP3   OH278447   6.031   1.329   0.980 -0.3701  0.2216  0.1146
19011TIP3    H178448   5.999   1.292   1.063  0.3540 -0.2868  0.1715
19011TIP3    H278449   6.121   1.297   0.972 -0.4663  0.1723 -0.9253
19012TIP3   OH278450   1.455   2.821  16.696 -0.1002 -0.4896 -0.0123
19012TIP3    H178451   1.493   2.841  16.781 -1.3174  0.9852  0.2449
19012TIP3    H278452   1.459   2.904  16.648  2.7587 -1.8268 -2.3738
19013TIP3   OH278453   5.307   6.603  14.424 -0.3245  0.1251  0.5057
19013TIP3    H178454   5.274   6.687  14.457  0.5660  0.2830  1.0284
19013TIP3    H278455   5.398   6.601  14.452 -0.5951 -1.4578  1.3393
19014TIP3   OH278456   5.453   4.535  14.891  0.4958  0.3262 -0.0354
19014TIP3    H178457   5.419   4.463  14.838  0.1560 -1.4327  2.3960
19014TIP3    H278458   5.382   4.598  14.894  0.5223  0.4861 -1.5793
19015TIP3   OH278459   0.560   0.438   0.496 -0.2157 -0.0761 -0.0096
19015TIP3    H178460   0.538   0.530   0.509  1.9568  0.2353  2.2105
19015TIP3    H278461   0.502   0.390   0.556  1.4579  0.3067  2.0482
19016TIP3   OH278462   3.288   6.568   2.043 -0.0834 -0.2820 -0.7917
19016TIP3    H178463   3.302   6.598   2.133  0.8884  1.0194 -1.3362
19016TIP3    H278464   3.248   6.482   2.052  1.0603 -0.6950  0.9053
19017TIP3   OH278465   3.958   6.089   1.230  0.4607 -0.0868  0.0964
19017TIP3    H178466   3.906   6.119   1.304  0.3937  0.3696 -0.1356
19017TIP3    H278467   3.914   6.010   1.200  0.0363  0.1711  0.0429
19018TIP3   OH278468   4.031   0.382  15.289 -0.6096  0.6160 -0.0672
19018TIP3    H178469   4.033   0.322  15.363  0.3870  1.2188  0.4130
19018TIP3    H278470   3.953   0.436  15.305 -1.8558 -0.8610 -0.8044
19019TIP3   OH278471   1.080   2.310   0.146  0.1284  0.1482 -0.1238
19019TIP3    H178472   1.149   2.339   0.205  1.1552 -0.2720 -1.0763
19019TIP3    H278473   1.020   2.384   0.139  0.7014  0.6646  0.3933
19020TIP3   OH278474   6.256   1.485  11.450 -0.7991  0.5492  0.3389
19020TIP3    H178475   6.180   1.484  11.392  1.0625 -1.0518 -2.2700
19020TIP3    H278476   6.277   1.393  11.464  0.7696  0.9519  0.8643
19021TIP3   OH278477   4.969   4.072   4.793 -0.1153 -0.0611 -0.3633
19021TIP3    H178478   4.900   4.114   4.742  0.6640  1.7789  0.0445
19021TIP3    H278479   4.947   4.091   4.884  0.6685  0.1028 -0.2070
19022TIP3   OH278480   1.913   0.654   0.585 -0.5169  0.1780 -0.0017
19022TIP3    H178481   1.846   0.713   0.621 -1.0777 -0.9616  0.9033
19022TIP3    H278482   1.913   0.580   0.645  1.0854 -0.1643 -0.3952
19023TIP3   OH278483   3.696   2.373  15.809  0.5083  0.8018 -0.2249
19023TIP3    H178484   3.776   2.340  15.768  0.8239  1.7171 -0.3779
19023TIP3    H278485   3.641   2.296  15.822  0.8253  0.3637 -1.4241
19024TIP3   OH278486   2.405   1.211   4.150 -0.9227  0.1756 -0.1899
19024TIP3    H178487   2.488   1.227   4.194 -0.1133 -0.6001 -1.3999
19024TIP3    H278488   2.355   1.157   4.212 -0.6190  0.7852  0.6115
19025TIP3   OH278489   4.486   4.471   1.388 -0.1487  0.1633  0.3875
19025TIP3    H178490   4.479   4.409   1.316 -1.0516  1.7576 -0.9457
19025TIP3    H278491   4.471   4.418   1.467  0.8307 -1.6038 -0.5546
19026TIP3   OH278492   2.279   0.491   1.726 -0.3495  0.0611 -0.6825
19026TIP3    H178493   2.331   0.525   1.654  0.6788 -0.4837 -0.2200
19026TIP3    H278494   2.207   0.554   1.736  0.2076  0.8215 -1.3471
19027TIP3   OH278495   2.017   5.425  11.282 -0.2215  0.0452 -0.0442
19027TIP3    H178496   1.952   5.495  11.283  0.8549  1.0553  0.7668
19027TIP3    H278497   2.042   5.417  11.190  0.6078  1.6486  0.0178
19028TIP3   OH278498   4.766   3.762  15.598 -0.4928  0.2810  0.1525
19028TIP3    H178499   4.754   3.770  15.503  0.2529 -0.0850  0.0209
19028TIP3    H278500   4.857   3.786  15.613 -0.8469  1.1998  0.8927
19029TIP3   OH278501   1.218   6.399   4.481 -0.7853  0.0602 -0.2906
19029TIP3    H178502   1.134   6.442   4.500 -0.3638  0.4558  0.7509
19029TIP3    H278503   1.283   6.456   4.521  0.0925  0.2937 -1.9399
19030TIP3   OH278504   0.657   5.940   2.402 -0.1868  0.1395 -0.3309
19030TIP3    H178505   0.680   5.964   2.312 -0.1244  0.9437 -0.1075
19030TIP3    H278506   0.733   5.893   2.434  0.3699  1.0692 -0.2494
19031TIP3   OH278507   5.061   6.283  17.062  0.1267 -0.2616 -0.4728
19031TIP3    H178508   4.993   6.237  17.111 -1.8487  2.0107 -0.8422
19031TIP3    H278509   5.120   6.318  17.129 -0.4968 -0.1988  0.0498
19032TIP3   OH278510   2.446   2.819  14.174 -0.0225 -0.1943  0.1565
19032TIP3    H178511   2.494   2.846  14.096  0.2292  0.6797  0.5962
19032TIP3    H278512   2.371   2.770  14.140 -0.0442  0.3696 -0.6460
19033TIP3   OH278513   2.799   6.006   0.465 -0.7852  0.8132 -0.3158
19033TIP3    H178514   2.703   6.011   0.456 -0.7574  2.5595  0.0362
19033TIP3    H278515   2.827   5.963   0.385 -1.8021  1.3409 -0.9948
19034TIP3   OH278516   2.071   1.278  10.888  0.4973 -0.0698  0.5030
19034TIP3    H178517   2.136   1.343  10.914  2.9583 -1.6392 -1.2558
19034TIP3    H278518   2.101   1.197  10.930 -0.4928 -0.7926 -0.1348
19035TIP3   OH278519   0.981   0.861   3.796  0.3564  0.3030  0.3215
19035TIP3    H178520   1.004   0.925   3.729  0.4723 -0.7407 -0.6805
19035TIP3    H278521   1.027   0.781   3.769 -0.9935 -0.6273  0.6505
19036TIP3   OH278522   4.490   1.180   2.878  0.1365 -0.2521 -0.0305
19036TIP3    H178523   4.432   1.114   2.916  1.0284 -1.1628 -0.2144
19036TIP3    H278524   4.482   1.168   2.783  1.2535 -0.9795 -0.0552
19037TIP3   OH278525   3.965   2.892   5.716  0.6146 -0.0960 -0.1168
19037TIP3    H178526   3.871   2.876   5.712  0.5771  0.0659  0.1273
19037TIP3    H278527   3.994   2.888   5.624 -0.0401  2.4035 -0.4911
19038TIP3   OH278528   1.862   2.403  13.572  0.3230 -0.3008 -0.7746
19038TIP3    H178529   1.909   2.320  13.568 -2.1423 -1.7636 -0.9080
19038TIP3    H278530   1.891   2.450  13.493  1.3744 -1.2188 -0.9679
19039TIP3   OH278531   3.994   2.148   4.709 -0.0524  0.0320  0.0572
19039TIP3    H178532   4.080   2.106   4.715 -0.0330  0.2455  2.1325
19039TIP3    H278533   3.931   2.075   4.719 -0.1384 -0.0864 -1.1773
19040TIP3   OH278534   4.171   4.897  17.225  1.1068  0.3725  0.1549
19040TIP3    H178535   4.203   4.868  17.139  1.0569 -1.7191  0.7965
19040TIP3    H278536   4.081   4.926  17.209  1.0200 -0.2212 -0.4595
19041TIP3   OH278537   3.588   3.017  11.369  0.1576  0.2528 -0.1119
19041TIP3    H178538   3.622   2.973  11.292  3.2224  1.8972  0.1465
19041TIP3    H278539   3.536   3.089  11.335 -0.2759 -0.2618 -0.5689
19042TIP3   OH278540   1.020   1.872  12.629  0.3355 -0.0033 -0.4410
19042TIP3    H178541   1.094   1.882  12.690  0.7995  0.7564 -1.1020
19042TIP3    H278542   1.029   1.783  12.595 -1.8590 -1.7784  3.0088
19043TIP3   OH278543   6.481   2.122  12.248  1.0347  0.4146  0.5314
19043TIP3    H178544   6.418   2.156  12.185  1.6186 -1.0007 -0.8923
19043TIP3    H278545   6.504   2.197  12.302 -0.2453  1.4446 -0.2998
19044TIP3   OH278546   0.833   4.155   0.536  0.7407 -0.0968 -0.1368
19044TIP3    H178547   0.800   4.229   0.485 -0.3153  0.3274  1.0943
19044TIP3    H278548   0.911   4.125   0.489 -1.1530 -0.9053 -3.0376
19045TIP3   OH278549   5.415   3.113   4.531  0.4895 -0.2643  0.0518
19045TIP3    H178550   5.419   3.111   4.435  2.2453  2.1145 -0.0288
19045TIP3    H278551   5.333   3.159   4.550 -0.3797 -1.6466 -0.2389
19046TIP3   OH278552   5.734   5.753  13.653 -0.4813  0.6253  0.2069
19046TIP3    H178553   5.805   5.797  13.606 -0.1961 -0.5273 -0.4603
19046TIP3    H278554   5.714   5.676  13.600 -0.2418 -0.6476  1.9039
19047TIP3   OH278555   2.633   3.574  14.946 -0.0568 -0.5309  0.1449
19047TIP3    H178556   2.573   3.500  14.933 -0.6499 -0.4989  2.3512
19047TIP3    H278557   2.594   3.645  14.895 -1.4627 -0.7535  0.8581
19048TIP3   OH278558   6.233   6.134  12.235  0.0897 -0.1403 -0.0705
19048TIP3    H178559   6.190   6.209  12.276 -1.3643 -0.7054 -0.4987
19048TIP3    H278560   6.254   6.076  12.309  3.1938  1.5267  0.5489
19049TIP3   OH278561   0.797   1.268   0.999 -0.3423 -0.1292 -0.0653
19049TIP3    H178562   0.871   1.266   0.939 -0.0422  0.4029  0.2800
19049TIP3    H278563   0.752   1.350   0.978 -0.6767 -0.3186 -0.0886
19050TIP3   OH278564   4.947   0.596   2.773 -0.0262  0.5375  0.0572
19050TIP3    H178565   4.958   0.688   2.749  0.1391 -0.0014 -2.1535
19050TIP3    H278566   5.036   0.562   2.780 -0.0689  0.1092 -1.1600
19051TIP3   OH278567   4.454   1.927   4.332 -0.0909 -0.5008  0.4995
19051TIP3    H178568   4.455   1.959   4.422 -0.4174 -0.6964  0.5771
19051TIP3    H278569   4.520   1.858   4.330  0.9630  0.4916  0.2058
19052TIP3   OH278570   1.856   4.323   0.855  0.7939 -0.6366  0.3043
19052TIP3    H178571   1.951   4.323   0.849  0.8079  0.0149  0.4861
19052TIP3    H278572   1.827   4.272   0.779  1.3419 -2.4462  1.2658
19053TIP3   OH278573   2.477   6.330  14.111  0.3450 -0.1003  0.6753
19053TIP3    H178574   2.419   6.371  14.048  3.4299 -0.7664 -3.0109
19053TIP3    H278575   2.468   6.236  14.095  2.6108 -0.2179 -0.3844
19054TIP3   OH278576   1.585   5.955  13.494  0.0608 -0.4428 -0.3140
19054TIP3    H178577   1.590   5.998  13.408 -1.0324 -2.9588 -1.7526
19054TIP3    H278578   1.577   5.862  13.474 -1.8727 -1.0150  2.4825
19055TIP3   OH278579   3.313   2.499   4.445  0.0203  0.4568 -0.3502
19055TIP3    H178580   3.406   2.519   4.435  0.0796 -0.1766 -1.1631
19055TIP3    H278581   3.302   2.479   4.537  1.3723 -2.7634 -0.7541
19056TIP3   OH278582   1.936   0.606  12.648  0.0086 -0.1437 -0.3992
19056TIP3    H178583   1.977   0.599  12.734 -0.4169 -0.8113 -0.2441
19056TIP3    H278584   2.010   0.613  12.587  0.2964  1.3340  0.0806
19057TIP3   OH278585   0.885   6.051   3.395  0.0173 -0.2999  0.1859
19057TIP3    H178586   0.829   6.068   3.319 -1.8854 -3.2307  0.7853
19057TIP3    H278587   0.824   6.028   3.465  1.8966 -1.3842  1.5361
19058TIP3   OH278588   5.818   2.742   6.377 -0.0403  0.1061  0.2207
19058TIP3    H178589   5.901   2.790   6.381 -0.2627  0.6999 -1.6161
19058TIP3    H278590   5.787   2.754   6.288 -1.5098 -1.1486  0.5180
19059TIP3   OH278591   0.948   4.838   2.667 -0.9596  0.1490  0.4901
19059TIP3    H178592   0.948   4.859   2.574 -2.1140  1.9030  0.8233
19059TIP3    H278593   0.887   4.901   2.705 -0.2419 -0.2979  2.4932
19060TIP3   OH278594   3.175   4.945  16.444 -0.2940  0.2260  0.0760
19060TIP3    H178595   3.128   4.963  16.363  0.6156 -0.5135 -0.6393
19060TIP3    H278596   3.107   4.926  16.508 -0.9884 -0.3526 -0.8164
19061TIP3   OH278597   4.077   5.162  13.001  0.1664 -0.1967  0.1555
19061TIP3    H178598   4.169   5.186  12.990 -0.0986  0.9943  0.4143
19061TIP3    H278599   4.029   5.244  12.985 -0.8077 -0.6679  0.5960
19062TIP3   OH278600   2.701   4.476  11.510 -0.3886 -0.0953  0.0238
19062TIP3    H178601   2.735   4.518  11.431 -1.2897 -2.1027 -1.5304
19062TIP3    H278602   2.652   4.545  11.555 -0.2572  0.9724 -1.4023
19063TIP3   OH278603   5.902   2.101  10.698  0.0713  0.1692  0.0233
19063TIP3    H178604   5.881   2.055  10.617  1.3131  0.7783 -0.6585
19063TIP3    H278605   5.830   2.163  10.710  0.2207  0.5544 -0.9865
19064TIP3   OH278606   3.648   3.847  17.254 -0.2020  0.0132  0.6146
19064TIP3    H178607   3.676   3.893  17.175 -1.6827 -0.1237 -0.0336
19064TIP3    H278608   3.595   3.911  17.302 -1.3783 -0.6314  0.2406
19065TIP3   OH278609   2.151   5.872  17.262 -1.0500  0.4505 -0.4928
19065TIP3    H178610   2.164   5.963  17.288  1.0678  0.2138 -0.4847
19065TIP3    H278611   2.083   5.876  17.195 -0.2660  2.2172 -1.2746
19066TIP3   OH278612   3.017   3.715   4.441 -0.3238  0.0234  0.6546
19066TIP3    H178613   2.970   3.718   4.358  0.5643 -1.8470  0.0062
19066TIP3    H278614   3.086   3.780   4.433 -1.3224  1.1106  0.6697
19067TIP3   OH278615   0.062   3.938   4.084 -0.4598  0.4487 -0.1057
19067TIP3    H178616   0.068   4.010   4.020  0.1406 -0.3222 -0.9345
19067TIP3    H278617   0.107   3.865   4.042 -1.5022 -0.5789  0.5048
19068TIP3   OH278618   4.146   4.744   0.435 -0.2209  0.6355 -0.2254
19068TIP3    H178619   4.120   4.828   0.472 -0.0402  0.0035  1.4351
19068TIP3    H278620   4.154   4.686   0.511 -2.3150 -1.4434 -1.4855
19069TIP3   OH278621   1.123   5.159  11.304 -0.1036  0.5016 -0.0099
19069TIP3    H178622   1.178   5.132  11.231 -0.4866  2.3151 -1.0443
19069TIP3    H278623   1.154   5.247  11.327 -0.6757  0.3870  1.3187
19070TIP3   OH278624   2.365   0.278   1.383 -0.3495  0.4370 -0.4339
19070TIP3    H178625   2.457   0.279   1.359  0.5182  1.7020  2.5343
19070TIP3    H278626   2.359   0.217   1.456 -2.2191 -0.8197 -1.5359
19071TIP3   OH278627   0.138   5.992  15.611 -0.3780 -0.4648 -0.1565
19071TIP3    H178628   0.069   6.055  15.633  1.4558  2.3466 -1.8547
19071TIP3    H278629   0.110   5.955  15.527  0.3613  1.1051 -1.1366
19072TIP3   OH278630   2.521   4.357  11.976  0.6675  0.3144 -0.2872
19072TIP3    H178631   2.437   4.390  12.007  0.7472  0.3268 -0.0794
19072TIP3    H278632   2.558   4.429  11.925  1.0540  0.7285  0.5621
19073TIP3   OH278633   4.608   4.353  16.356 -0.7765  0.3011  0.3836
19073TIP3    H178634   4.617   4.336  16.450  1.6075  0.0879  0.1851
19073TIP3    H278635   4.630   4.446  16.347  0.1960  0.0418 -0.0652
19074TIP3   OH278636   5.331   0.754   4.068  0.1945  0.0987 -0.6247
19074TIP3    H178637   5.249   0.802   4.066 -0.6346 -1.2842 -0.8647
19074TIP3    H278638   5.361   0.759   4.159  0.7615  2.0616 -0.8787
19075TIP3   OH278639   1.314   5.578  17.249 -0.7756  0.3616 -0.5003
19075TIP3    H178640   1.391   5.585  17.305 -0.8951 -0.4806 -0.2204
19075TIP3    H278641   1.242   5.608  17.304 -0.9977 -1.1261  0.0474
19076TIP3   OH278642   5.168   0.996  11.243 -0.3560  0.3703 -0.0132
19076TIP3    H178643   5.208   0.974  11.327 -1.1505 -1.3462 -0.0545
19076TIP3    H278644   5.241   1.030  11.190  0.2791  0.8288  1.1238
19077TIP3   OH278645   1.311   6.478  11.368 -0.1679 -0.0427  0.2795
19077TIP3    H178646   1.393   6.511  11.333  1.0100 -0.5621  2.3347
19077TIP3    H278647   1.289   6.404  11.312  0.7946  0.0869 -0.2955
19078TIP3   OH278648   1.838   5.296   4.347  0.1869  1.0836 -0.2004
19078TIP3    H178649   1.896   5.245   4.291 -1.0881 -0.3868 -0.2703
19078TIP3    H278650   1.838   5.384   4.310  1.0408  0.6712 -1.1975
19079TIP3   OH278651   0.643   5.093  11.791 -0.1613 -0.5035  0.4234
19079TIP3    H178652   0.590   5.153  11.738  0.3624 -0.1241  0.3178
19079TIP3    H278653   0.602   5.094  11.878 -0.5406 -0.4990  0.2453
19080TIP3   OH278654   5.811   4.291  12.426  0.2711 -0.5178  0.5684
19080TIP3    H178655   5.831   4.370  12.477  0.4033 -0.4924  0.4789
19080TIP3    H278656   5.738   4.250  12.472  1.5291 -1.4529  1.8302
19081TIP3   OH278657   3.251   4.964  16.969 -0.0988 -0.3945 -0.2689
19081TIP3    H178658   3.182   5.028  16.951 -0.5921 -0.3332  1.5710
19081TIP3    H278659   3.217   4.882  16.935 -0.1102  0.0235 -1.3154
19082TIP3   OH278660   3.063   2.590  13.565  0.0533  0.1336 -0.5072
19082TIP3    H178661   3.138   2.559  13.616  0.6628 -0.3216 -1.6448
19082TIP3    H278662   3.087   2.678  13.538 -0.6487  0.7201  0.6983
19083TIP3   OH278663   4.029   5.489  15.474 -0.5523  0.1344  0.4378
19083TIP3    H178664   3.985   5.552  15.531 -3.3662 -1.5823  0.3726
19083TIP3    H278665   4.062   5.421  15.534 -1.1126 -0.3219  0.2385
19084TIP3   OH278666   2.014   1.431   5.192 -0.8038 -0.1198  0.1386
19084TIP3    H178667   2.002   1.491   5.118  1.8748  0.9975  0.4967
19084TIP3    H278668   2.010   1.487   5.269 -0.3820 -0.7539  0.6283
19085TIP3   OH278669   3.880   6.262  13.868 -0.0224  0.1477  0.1274
19085TIP3    H178670   3.925   6.336  13.828 -0.0447 -0.6860 -1.5155
19085TIP3    H278671   3.942   6.230  13.934  0.6578  0.6626 -0.2440
19086TIP3   OH278672   0.878   3.977  13.503 -0.3128 -0.1555 -0.8183
19086TIP3    H178673   0.896   4.068  13.530 -0.4402 -0.0003 -1.2567
19086TIP3    H278674   0.794   3.981  13.459  0.0752 -0.3434 -1.5893
19087TIP3   OH278675   1.386   4.537   0.326  0.2869  0.4967  0.9136
19087TIP3    H178676   1.293   4.558   0.322  0.2522  0.2146  0.2252
19087TIP3    H278677   1.416   4.541   0.235  0.5835 -1.0559  0.9169
19088TIP3   OH278678   0.177   5.099   3.984 -0.7276 -0.2534 -0.0325
19088TIP3    H178679   0.163   5.178   3.931 -0.6712  0.2313  0.6678
19088TIP3    H278680   0.207   5.034   3.921 -2.4972 -0.2446 -0.9276
19089TIP3   OH278681   3.504   6.585   2.773 -0.2641  0.2955 -0.0545
19089TIP3    H178682   3.450   6.637   2.832 -1.0124  0.7912 -1.1487
19089TIP3    H278683   3.594   6.609   2.794 -0.5245  0.5672  0.7725
19090TIP3   OH278684   0.664   0.203   2.940  0.2185  0.3844 -0.1658
19090TIP3    H178685   0.698   0.128   2.891 -1.3196  0.1737 -0.9716
19090TIP3    H278686   0.734   0.268   2.936  0.9092 -0.3835 -0.9240
19091TIP3   OH278687   5.368   1.814  11.876  0.0476  0.5991  0.2647
19091TIP3    H178688   5.460   1.838  11.892 -0.4397  3.2664 -0.3890
19091TIP3    H278689   5.361   1.723  11.905  2.9116  0.2872  0.2332
19092TIP3   OH278690   1.708   0.979  16.347  0.0093 -0.4405 -0.0096
19092TIP3    H178691   1.795   0.952  16.316  0.9081  2.6570 -0.4896
19092TIP3    H278692   1.647   0.924  16.297  1.6289 -1.1965 -1.2539
19093TIP3   OH278693   0.864   0.386  14.111 -0.2234  0.0423 -0.1549
19093TIP3    H178694   0.814   0.375  14.192  1.7884  0.2281  1.1927
19093TIP3    H278695   0.818   0.455  14.064 -1.2824  0.1378  0.9720
19094TIP3   OH278696   5.284   1.832   6.362 -0.4548  0.0686 -0.6421
19094TIP3    H178697   5.255   1.774   6.433  2.1476  0.4663  0.8756
19094TIP3    H278698   5.324   1.906   6.407  0.6992  0.6472 -2.5315
19095TIP3   OH278699   4.786   2.175   4.913 -0.6759 -0.3951 -0.0185
19095TIP3    H178700   4.808   2.266   4.895  0.4617 -0.3347  1.5006
19095TIP3    H278701   4.690   2.174   4.913 -0.7131  0.9140  0.4607
19096TIP3   OH278702   3.860   2.385  16.448 -0.9258 -0.1538 -0.1808
19096TIP3    H178703   3.870   2.328  16.371  0.2185 -0.9982  0.5691
19096TIP3    H278704   3.946   2.385  16.490 -1.0788  1.6155  0.2246
19097TIP3   OH278705   3.716   0.060  14.540 -0.5780 -0.1095 -0.3278
19097TIP3    H178706   3.785   0.102  14.488 -0.6460 -0.6741 -0.8818
19097TIP3    H278707   3.664   0.133  14.573 -1.2416  0.2368 -2.0460
19098TIP3   OH278708   2.952   5.867   1.552  0.5530 -0.6358 -0.7433
19098TIP3    H178709   2.993   5.911   1.627 -0.0859 -0.0476 -0.7222
19098TIP3    H278710   2.919   5.939   1.497 -1.8700 -1.0544  0.0314
19099TIP3   OH278711   4.571   1.089   5.482 -0.3979 -0.3484  0.3716
19099TIP3    H178712   4.610   1.014   5.527  1.1266 -0.4087 -0.9597
19099TIP3    H278713   4.496   1.053   5.435 -1.0731 -0.5717  1.5944
19100TIP3   OH278714   5.260   1.359   4.252  0.5222 -0.0342  0.1288
19100TIP3    H178715   5.205   1.423   4.207 -0.1182  0.4210  1.5064
19100TIP3    H278716   5.314   1.411   4.311 -0.4403 -0.7689  1.7215
19101TIP3   OH278717   0.196   5.529  10.901 -0.1365  0.0746  0.0017
19101TIP3    H178718   0.172   5.444  10.937  0.2689 -0.0032  0.0923
19101TIP3    H278719   0.226   5.510  10.812  1.6425 -0.1182  0.6119
19102TIP3   OH278720   2.071   5.829   0.422 -0.2910 -0.0057 -0.1683
19102TIP3    H178721   1.982   5.855   0.396 -0.3636 -0.2679 -0.1812
19102TIP3    H278722   2.119   5.825   0.339 -0.0154  1.0639 -0.0812
19103TIP3   OH278723   6.409   3.188   3.012  0.3362  0.2469 -0.0964
19103TIP3    H178724   6.488   3.212   2.963  0.5301  0.3644  0.2699
19103TIP3    H278725   6.350   3.151   2.946  1.6621 -2.2643  0.0278
19104TIP3   OH278726   0.665   6.642  12.789  0.6168 -0.0455  0.0656
19104TIP3    H178727   0.587   6.698  12.786  0.1058 -0.5806  1.9614
19104TIP3    H278728   0.737   6.702  12.770 -0.1569  0.6445 -0.8415
19105TIP3   OH278729   4.384   3.802  16.756 -0.2726  0.1086  0.1939
19105TIP3    H178730   4.414   3.893  16.745  0.4606 -0.0553  0.7714
19105TIP3    H278731   4.446   3.751  16.704 -2.2322  0.1225 -2.3717
19106TIP3   OH278732   0.121   4.093   4.324  0.1565 -0.4355  0.3122
19106TIP3    H178733   0.048   4.122   4.378  0.1023 -0.9343  0.5150
19106TIP3    H278734   0.080   4.062   4.243  0.2617  0.6059 -0.1592
19107TIP3   OH278735   1.493   1.382   1.406  0.0178 -0.2035  0.4196
19107TIP3    H178736   1.483   1.332   1.325 -2.9964 -0.9326  1.1265
19107TIP3    H278737   1.533   1.465   1.379 -1.8717  0.0111 -2.0344
19108TIP3   OH278738   6.406   6.751  11.470  0.0186  0.1614 -0.2707
19108TIP3    H178739   6.378   6.713  11.554  1.4407  0.3429  0.3111
19108TIP3    H278740   6.338   6.723  11.408 -1.5366  0.7501  1.0911
19109TIP3   OH278741   2.623   1.881   1.036  0.0792  0.4818 -0.4820
19109TIP3    H178742   2.706   1.918   1.007  0.1876 -0.9917 -2.2342
19109TIP3    H278743   2.561   1.954   1.031  1.1482  1.4978  0.4871
19110TIP3   OH278744   0.293   1.649  11.239 -0.1521  0.0672  0.0789
19110TIP3    H178745   0.279   1.648  11.145 -0.8659 -1.2628  0.1660
19110TIP3    H278746   0.352   1.575  11.256 -0.2442  0.1271  0.7030
19111TIP3   OH278747   0.698   4.168  16.151  0.2245 -0.7805  0.1913
19111TIP3    H178748   0.696   4.141  16.243 -2.9950  0.5816  0.6841
19111TIP3    H278749   0.610   4.204  16.136  1.2713  0.7718 -2.9075
19112TIP3   OH278750   5.857   3.481  16.328  0.1644  0.3401  0.3512
19112TIP3    H178751   5.852   3.397  16.374 -1.0289  0.4735  0.4794
19112TIP3    H278752   5.929   3.528  16.371 -0.9160  0.4597  2.1094
19113TIP3   OH278753   2.864   0.330   4.025 -0.2033 -0.1254  0.1611
19113TIP3    H178754   2.848   0.343   4.119 -0.2103  1.5563 -0.0418
19113TIP3    H278755   2.959   0.336   4.015 -0.0386 -2.0497  0.2696
19114TIP3   OH278756   5.393   2.788  13.207 -0.0489 -0.4357 -0.1744
19114TIP3    H178757   5.406   2.699  13.241  1.3096 -0.7335 -1.3786
19114TIP3    H278758   5.303   2.810  13.232 -0.5664 -2.3192 -0.1926
19115TIP3   OH278759   4.557   4.480   2.733  0.3023 -0.5930  0.2458
19115TIP3    H178760   4.467   4.485   2.765  0.1741  1.1355 -0.3073
19115TIP3    H278761   4.603   4.428   2.799 -0.5195  0.6951  1.8817
19116TIP3   OH278762   6.141   4.062  13.658 -0.2665 -0.1615  0.6828
19116TIP3    H178763   6.108   4.076  13.570  0.8774 -1.5177  0.0099
19116TIP3    H278764   6.072   4.015  13.703  0.2001 -1.8831 -0.3337
19117TIP3   OH278765   2.569   3.708  12.851  0.1333 -0.3104 -0.8582
19117TIP3    H178766   2.594   3.672  12.936  2.0219  2.8625  0.1152
19117TIP3    H278767   2.473   3.706  12.851  0.0493  0.2207  1.6923
19118TIP3   OH278768   6.436   5.281   0.431  0.8353  0.1121 -0.0482
19118TIP3    H178769   6.505   5.260   0.368 -1.6350  0.0258 -2.9155
19118TIP3    H278770   6.419   5.374   0.418 -1.0336 -0.3151 -1.0621
19119TIP3   OH278771   0.935   5.869   2.423 -0.5647 -0.0179 -0.1495
19119TIP3    H178772   0.954   5.775   2.417  2.3506  0.3815  1.1580
19119TIP3    H278773   0.981   5.897   2.502 -1.4547  2.5257 -0.4650
19120TIP3   OH278774   5.081   1.427   0.393  0.0285 -0.3768 -0.1229
19120TIP3    H178775   5.018   1.482   0.346 -0.6048  0.0726  1.1900
19120TIP3    H278776   5.032   1.350   0.419  0.2356 -0.4001  0.2089
19121TIP3   OH278777   5.544   4.853   0.948 -0.2198  0.4896  0.6341
19121TIP3    H178778   5.639   4.865   0.955 -0.4230  1.2854  4.0389
19121TIP3    H278779   5.529   4.761   0.970 -0.2356  0.0046 -1.2102
19122TIP3   OH278780   5.476   3.819  16.666 -0.0237  0.2753  0.2385
19122TIP3    H178781   5.536   3.879  16.711 -1.3783  2.3636 -0.6122
19122TIP3    H278782   5.444   3.761  16.735 -0.5255  2.1106  1.6199
19123TIP3   OH278783   5.377   4.731   2.380 -0.3056  0.3214  0.6177
19123TIP3    H178784   5.432   4.713   2.304 -0.1282 -0.1827  0.8579
19123TIP3    H278785   5.408   4.670   2.447 -2.2914 -1.2123  0.2299
19124TIP3   OH278786   4.718   3.587   1.252  0.3902 -0.1881  0.1854
19124TIP3    H178787   4.631   3.590   1.213  0.2863 -1.3912  0.2880
19124TIP3    H278788   4.726   3.498   1.287  1.5127  0.0229  0.5143
19125TIP3   OH278789   6.619   5.185   4.798 -0.3437  0.0879  0.3508
19125TIP3    H178790   6.603   5.091   4.786 -1.6768  0.1004  1.6772
19125TIP3    H278791   6.536   5.227   4.775 -0.6239  0.6796  2.2666
19126TIP3   OH278792   6.561   4.806   1.282  0.2045  0.1235  0.0687
19126TIP3    H178793   6.532   4.772   1.367  1.2286  0.1722  0.4577
19126TIP3    H278794   6.547   4.901   1.288  1.4526  0.2835  0.6838
19127TIP3   OH278795   5.760   2.218   5.804  0.4963 -0.2503 -0.0954
19127TIP3    H178796   5.763   2.227   5.709 -0.3365 -0.4942 -0.1503
19127TIP3    H278797   5.842   2.174   5.826  0.3336 -0.9302 -0.7882
19128TIP3   OH278798   6.063   1.061   5.715 -0.2505 -0.1724  0.2604
19128TIP3    H178799   6.076   1.150   5.748  1.3549 -0.2541 -0.0650
19128TIP3    H278800   5.977   1.063   5.672 -0.2701  1.1913  0.3335
19129TIP3   OH278801   3.889   4.458  11.089 -0.0907  0.0619  0.0462
19129TIP3    H178802   3.859   4.386  11.145 -2.3968 -0.3776 -1.6117
19129TIP3    H278803   3.823   4.526  11.100  1.4904  1.5702  0.7463
19130TIP3   OH278804   4.918   2.784   0.907 -0.4061  0.0285 -0.5843
19130TIP3    H178805   4.827   2.813   0.909 -0.7758 -0.9443 -2.0719
19130TIP3    H278806   4.924   2.728   0.830  1.3112 -0.4195 -0.1680
19131TIP3   OH278807   0.563   0.466  14.824 -0.0973  0.4290  0.3316
19131TIP3    H178808   0.570   0.443  14.917 -0.6719  0.5254  0.4009
19131TIP3    H278809   0.480   0.513  14.817  1.0440  2.5430  0.2032
19132TIP3   OH278810   5.121   4.233  17.180  0.3038  0.0646  0.3339
19132TIP3    H178811   5.178   4.165  17.144 -2.7757 -1.1591 -2.9135
19132TIP3    H278812   5.146   4.241  17.272  3.0596 -3.0186  0.0047
19133TIP3   OH278813   2.544   4.261   3.208  0.4458 -0.1638  0.4060
19133TIP3    H178814   2.521   4.169   3.222  0.2684 -0.4474 -1.4678
19133TIP3    H278815   2.465   4.309   3.232  0.0238 -0.6391  0.0117
19134TIP3   OH278816   0.630   0.917   3.446 -0.7264 -0.7399  0.0146
19134TIP3    H178817   0.714   0.944   3.408 -0.1479 -1.2193  0.9150
19134TIP3    H278818   0.644   0.923   3.541 -1.6092 -1.1308  0.1774
19135TIP3   OH278819   0.903   0.099   5.078  0.2544 -0.1737 -0.6471
19135TIP3    H178820   0.905   0.063   4.989  1.6770 -0.8920 -0.3390
19135TIP3    H278821   0.880   0.025   5.134  1.2989 -0.1773 -0.2156
19136TIP3   OH278822   1.391   4.334   3.326 -0.0594 -0.1659  0.3576
19136TIP3    H178823   1.421   4.382   3.248 -1.3683 -0.5305 -0.4136
19136TIP3    H278824   1.465   4.337   3.386  0.7612  0.6954 -0.6464
19137TIP3   OH278825   0.835   2.819  14.874  0.4853  0.5798  0.4975
19137TIP3    H178826   0.913   2.771  14.903 -0.0501 -0.8698 -0.3677
19137TIP3    H278827   0.853   2.840  14.782  0.7626  2.2006  0.8940
19138TIP3   OH278828   4.585   1.432  14.111  0.3069 -0.3100  0.3621
19138TIP3    H178829   4.647   1.450  14.040 -0.9744  0.0542 -0.7260
19138TIP3    H278830   4.559   1.519  14.142  1.1350 -0.4716  1.5518
19139TIP3   OH278831   2.823   0.624   1.866  0.2870 -0.1293  0.4592
19139TIP3    H178832   2.767   0.659   1.797  0.1919 -0.2445  0.4781
19139TIP3    H278833   2.766   0.622   1.944  0.1525 -0.7604  0.3509
19140TIP3   OH278834   1.529   1.820   4.184  0.2262 -0.0174 -0.0522
19140TIP3    H178835   1.598   1.755   4.199 -0.7150 -1.0636 -0.1516
19140TIP3    H278836   1.549   1.891   4.245  2.0688  0.2738 -0.8941
19141TIP3   OH278837   0.561   1.555  17.116 -0.0956 -0.1183  0.2050
19141TIP3    H178838   0.573   1.598  17.031 -0.3914  1.1733  0.7957
19141TIP3    H278839   0.627   1.595  17.173 -1.5935  0.9606  1.2591
19142TIP3   OH278840   6.499   4.424   1.217 -0.2835 -0.2206 -0.4579
19142TIP3    H178841   6.580   4.381   1.190  0.1524 -1.6197  2.6958
19142TIP3    H278842   6.524   4.515   1.235  0.4600 -0.4918 -0.0974
19143TIP3   OH278843   2.877   0.052  14.896 -0.1872  0.8037 -0.1467
19143TIP3    H178844   2.940   0.076  14.828  1.7729  0.2202  1.3414
19143TIP3    H278845   2.930   0.045  14.976 -1.6769 -2.1486  0.7501
19144TIP3   OH278846   3.033   6.128   2.194  0.2781 -0.3804 -0.9177
19144TIP3    H178847   2.938   6.131   2.202  0.0815 -1.2972 -2.4500
19144TIP3    H278848   3.066   6.171   2.273 -1.4042  1.3173 -1.0895
19145TIP3   OH278849   1.754   1.522   1.695 -0.0390 -0.4992  0.2932
19145TIP3    H178850   1.695   1.535   1.769 -0.3874  0.5988 -0.1648
19145TIP3    H278851   1.709   1.561   1.621  1.5877  1.1043  0.0923
19146TIP3   OH278852   1.205   0.435  12.797 -0.5922 -0.1275  0.0395
19146TIP3    H178853   1.205   0.523  12.759  1.2963  0.4169  1.1722
19146TIP3    H278854   1.279   0.391  12.754  1.3555  0.3791  2.6517
19147TIP3   OH278855   4.878   5.099   2.227 -0.3401 -0.4452 -0.0956
19147TIP3    H178856   4.927   5.175   2.259 -0.1338 -0.9348  0.7798
19147TIP3    H278857   4.844   5.126   2.142 -1.8007  1.2893  0.9755
19148TIP3   OH278858   2.355   6.475  12.182  0.2234 -0.0259  0.1890
19148TIP3    H178859   2.287   6.458  12.247 -0.2354  2.3715  0.4465
19148TIP3    H278860   2.326   6.555  12.137  2.4195  0.5934 -0.2835
19149TIP3   OH278861   3.848   4.969   4.927 -0.6396  0.3952 -0.5910
19149TIP3    H178862   3.788   5.043   4.928  0.2964  1.2902 -3.0456
19149TIP3    H278863   3.927   5.001   4.969 -0.2351  0.8198 -1.6522
19150TIP3   OH278864   5.068   4.062   3.227  0.0971  0.4818 -0.1659
19150TIP3    H178865   5.145   4.006   3.218  1.7971  2.3855  1.3756
19150TIP3    H278866   5.061   4.107   3.143  0.9789  0.6363 -0.1661
19151TIP3   OH278867   0.319   6.580  16.134 -0.1198 -0.0917  0.3914
19151TIP3    H178868   0.328   6.559  16.041 -0.0797 -1.6193  0.7069
19151TIP3    H278869   0.241   6.634  16.139 -0.1372 -0.0145 -0.5244
19152TIP3   OH278870   2.040   4.568   5.705  0.3657  0.2716 -0.1265
19152TIP3    H178871   2.061   4.476   5.689 -1.4359 -0.4170  1.0625
19152TIP3    H278872   2.020   4.604   5.619 -0.8992 -1.0355 -0.4219
19153TIP3   OH278873   0.897   3.243   6.171  0.0655  0.2989 -0.7255
19153TIP3    H178874   0.843   3.233   6.092 -1.1731 -1.6180  0.2750
19153TIP3    H278875   0.860   3.319   6.216  0.4971  1.1298 -1.7501
19154TIP3   OH278876   2.187   0.049   0.928 -0.7302 -0.4979  0.4328
19154TIP3    H178877   2.119   0.116   0.931 -0.3362 -0.0282 -0.6705
19154TIP3    H278878   2.174   0.005   0.844  2.0105  1.4579 -1.1918
19155TIP3   OH278879   1.346   4.527  13.408  0.4224  0.7803  0.4537
19155TIP3    H178880   1.335   4.455  13.470 -1.6210  0.8352  0.2152
19155TIP3    H278881   1.353   4.483  13.323  0.3573  0.8266  0.4251
19156TIP3   OH278882   1.151   4.479   3.944  0.1397 -0.2628 -0.7289
19156TIP3    H178883   1.209   4.408   3.972 -0.9640 -1.0856 -0.4941
19156TIP3    H278884   1.066   4.437   3.930 -0.7685  1.1607  0.2739
19157TIP3   OH278885   6.044   0.011  12.290 -0.8428 -0.4090  0.0606
19157TIP3    H178886   5.948   0.008  12.284 -0.8424 -1.2139  0.3007
19157TIP3    H278887   6.063  -0.029  12.375 -0.2992 -0.0580  0.1058
19158TIP3   OH278888   2.456   6.756  11.037  0.0746  0.6185  0.1708
19158TIP3    H178889   2.381   6.756  10.977  1.6261 -0.7350 -1.8918
19158TIP3    H278890   2.445   6.836  11.088 -1.9343  1.2794 -1.1580
19159TIP3   OH278891   3.943   5.033   1.858 -0.4453  0.2803  0.3305
19159TIP3    H178892   3.965   5.027   1.765  0.6842  0.4246  0.5675
19159TIP3    H278893   3.858   5.076   1.860 -1.6967 -1.9673 -0.7322
19160TIP3   OH278894   1.308   4.795   6.368  0.7316  0.5634  0.2924
19160TIP3    H178895   1.283   4.703   6.375 -0.9429  0.8743 -1.1393
19160TIP3    H278896   1.355   4.813   6.450  0.1676 -1.2574  1.0649
19161TIP3   OH278897   2.192   5.106  13.213 -0.0241  0.3440  0.0554
19161TIP3    H178898   2.178   5.185  13.266 -0.1450  0.4712 -0.1628
19161TIP3    H278899   2.159   5.130  13.127  0.5300  0.2744 -0.1831
19162TIP3   OH278900   6.512   2.098   1.866 -0.5284  0.1008 -0.2664
19162TIP3    H178901   6.591   2.118   1.815 -0.5827 -2.0978 -1.3004
19162TIP3    H278902   6.519   2.005   1.886 -2.3644  0.0912  0.5238
19163TIP3   OH278903   2.123   1.303   0.137  0.1530  0.4192 -0.4679
19163TIP3    H178904   2.219   1.303   0.134  0.1419 -0.4401 -1.5165
19163TIP3    H278905   2.096   1.274   0.050 -1.1340  3.0954 -1.0635
19164TIP3   OH278906   4.430   2.030   2.559  0.3222 -0.2704  0.0968
19164TIP3    H178907   4.478   1.990   2.487 -0.9692 -0.8669 -0.4702
19164TIP3    H278908   4.466   1.990   2.638  1.6437  0.2751 -0.2087
19165TIP3   OH278909   6.755   2.148   1.782  0.1645  0.8040  0.3387
19165TIP3    H178910   6.802   2.123   1.862  1.7806  0.1885 -0.7554
19165TIP3    H278911   6.771   2.242   1.774 -0.4891  0.9842  1.0235
19166TIP3   OH278912   0.086   0.586  11.971  0.5381 -0.3375 -0.1313
19166TIP3    H178913   0.130   0.669  11.988  2.5562 -1.2770 -0.4177
19166TIP3    H278914   0.068   0.586  11.877 -0.2515  0.1017  0.0078
19167TIP3   OH278915   4.179   0.670  11.697  0.3352 -0.0538 -0.1546
19167TIP3    H178916   4.166   0.578  11.674 -4.7109  0.5093 -0.6128
19167TIP3    H278917   4.199   0.713  11.614 -1.3276 -0.3019 -0.7308
19168TIP3   OH278918   2.507   3.836  12.344 -0.2259 -0.0239 -0.1636
19168TIP3    H178919   2.464   3.885  12.414 -1.6597 -0.9914 -0.3173
19168TIP3    H278920   2.482   3.881  12.264  0.1848  0.2139 -0.1587
19169TIP3   OH278921   4.377   0.932  15.325 -0.0398 -0.4643 -0.3884
19169TIP3    H178922   4.459   0.969  15.294 -0.4931 -0.3590 -1.5319
19169TIP3    H278923   4.403   0.854  15.375  0.7795 -0.0207 -0.1126
19170TIP3   OH278924   3.308   3.312  16.867 -0.2429 -0.8296  0.6265
19170TIP3    H178925   3.219   3.334  16.840 -0.2582 -0.1867  1.1785
19170TIP3    H278926   3.303   3.303  16.962  0.7626  1.6425  0.9777
19171TIP3   OH278927   5.291   5.050  16.687 -0.0874  0.1452 -0.0817
19171TIP3    H178928   5.206   5.020  16.655  0.2534 -0.1040 -0.7863
19171TIP3    H278929   5.295   5.018  16.777  0.1955 -1.8752 -0.7451
19172TIP3   OH278930   3.755   0.979  14.393  0.2694  0.4561 -0.7940
19172TIP3    H178931   3.732   0.912  14.457  3.8246 -1.0267 -0.8459
19172TIP3    H278932   3.797   1.048  14.445 -0.8627  1.3840 -1.0742
19173TIP3   OH278933   6.447   6.290   2.404 -0.3640 -0.1487  0.0697
19173TIP3    H178934   6.494   6.357   2.353 -0.3430  0.6012  1.0279
19173TIP3    H278935   6.374   6.338   2.444  0.3345 -0.3935  1.7344
19174TIP3   OH278936   0.030   3.773   4.749  0.0508 -0.1120  0.1681
19174TIP3    H178937   0.013   3.866   4.765  1.2764  0.1005  0.3096
19174TIP3    H278938   0.125   3.764   4.753 -0.0678 -1.4682  0.6408
19175TIP3   OH278939   2.381   1.254   3.854 -0.6557  0.0956  0.3161
19175TIP3    H178940   2.395   1.261   3.948  0.4064  1.6215  0.0816
19175TIP3    H278941   2.338   1.169   3.842  1.2101 -1.1717  1.9569
19176TIP3   OH278942   5.099   4.164   3.902 -0.0440  0.5068 -0.2377
19176TIP3    H178943   5.099   4.248   3.948 -0.8717  0.4660 -0.1548
19176TIP3    H278944   5.023   4.168   3.845 -0.0074 -0.1339 -0.3351
19177TIP3   OH278945   1.648   2.415  16.118 -0.0941  0.1806 -0.0679
19177TIP3    H178946   1.553   2.431  16.125 -0.2411 -1.0002  0.8973
19177TIP3    H278947   1.665   2.418  16.024 -1.0337  0.6923 -0.2385
19178TIP3   OH278948   3.045   5.958  13.585  0.5493  0.2316 -0.0513
19178TIP3    H178949   3.137   5.978  13.568  0.7471  1.6218  2.2689
19178TIP3    H278950   3.005   6.043  13.605 -1.1124 -0.4314 -0.3817
19179TIP3   OH278951   4.577   1.665   0.979  0.1976 -0.3384  0.0895
19179TIP3    H178952   4.562   1.698   1.068  0.3555 -0.5095  0.1792
19179TIP3    H278953   4.645   1.599   0.989 -0.4299 -1.0234 -0.0181
19180TIP3   OH278954   5.435   1.596   1.636  0.0749 -0.3113  0.5877
19180TIP3    H178955   5.524   1.604   1.669 -0.1393  0.1660  1.0545
19180TIP3    H278956   5.439   1.522   1.575  0.7002 -0.5356  0.8912
19181TIP3   OH278957   2.025   3.391   1.678 -0.2981  0.7488 -0.5721
19181TIP3    H178958   2.120   3.386   1.669 -0.4175  0.7659 -2.0304
19181TIP3    H278959   1.997   3.448   1.607 -1.3648  1.1163  0.1230
19182TIP3   OH278960   5.287   2.563   1.890  0.1457  0.0013 -0.1050
19182TIP3    H178961   5.245   2.647   1.909 -0.6458 -0.4001 -0.0441
19182TIP3    H278962   5.285   2.556   1.794  0.2128  0.0496 -0.1102
19183TIP3   OH278963   4.605   2.389  15.434  0.5256  0.0343 -0.6766
19183TIP3    H178964   4.579   2.474  15.400 -1.6148 -0.2574  0.0835
19183TIP3    H278965   4.593   2.329  15.360 -0.5776 -0.0120 -0.4772
19184TIP3   OH278966   5.320   5.232   2.503  0.4752  0.0111  0.1150
19184TIP3    H178967   5.366   5.149   2.515 -1.5336 -1.4193 -1.3245
19184TIP3    H278968   5.241   5.223   2.556  0.6097  1.3962  0.6044
19185TIP3   OH278969   3.687   0.629  10.582 -0.0043 -0.2211 -0.6530
19185TIP3    H178970   3.731   0.626  10.667  1.9845  1.8565 -1.5063
19185TIP3    H278971   3.630   0.706  10.587 -1.8939 -1.5661 -0.3736
19186TIP3   OH278972   6.490   0.985  15.532 -0.3659  0.3870  0.0397
19186TIP3    H178973   6.493   0.890  15.529  2.4245  0.4212 -0.4437
19186TIP3    H278974   6.581   1.012  15.539 -0.9261  3.0802 -1.6485
19187TIP3   OH278975   2.274   2.941  12.511 -0.4780 -0.6322  0.0768
19187TIP3    H178976   2.288   3.011  12.448 -0.3604  0.1679  0.9657
19187TIP3    H278977   2.276   2.985  12.596 -1.1185 -1.6051  0.6131
19188TIP3   OH278978   5.722   4.137  15.416 -0.0215 -0.2290 -0.0439
19188TIP3    H178979   5.738   4.048  15.445 -2.1849 -0.2402  1.3495
19188TIP3    H278980   5.724   4.189  15.497 -0.2483  0.7535 -0.6522
19189TIP3   OH278981   2.626   3.679  16.861 -0.3914  0.3687 -0.2228
19189TIP3    H178982   2.670   3.670  16.776  0.4160 -0.3502  0.2552
19189TIP3    H278983   2.546   3.627  16.852 -0.3681  0.3896 -0.5788
19190TIP3   OH278984   4.564   5.565   2.473 -0.0789  0.1795  0.0782
19190TIP3    H178985   4.595   5.481   2.438 -1.1950 -0.7327  1.1733
19190TIP3    H278986   4.556   5.550   2.568 -1.3498  1.1687  0.1510
19191TIP3   OH278987   5.208   5.763  13.221 -0.2235 -0.2087 -0.0781
19191TIP3    H178988   5.158   5.747  13.302 -1.3120 -0.2088 -0.7228
19191TIP3    H278989   5.181   5.692  13.163 -1.4748  1.2388 -1.3463
19192TIP3   OH278990   6.370   4.234   3.753 -0.3596 -0.2038 -0.2609
19192TIP3    H178991   6.309   4.246   3.680  0.6518  0.9658 -0.9615
19192TIP3    H278992   6.347   4.302   3.816  0.7483  0.8648 -0.9468
19193TIP3   OH278993   5.130   6.603  13.373 -0.3141 -0.0989  0.0453
19193TIP3    H178994   5.106   6.652  13.294  0.2717 -0.6558 -0.4763
19193TIP3    H278995   5.061   6.537  13.382  0.5872 -1.2217 -1.0408
19194TIP3   OH278996   1.546   5.318  16.275  0.0678 -0.1020 -0.0423
19194TIP3    H178997   1.511   5.291  16.360 -0.0610 -1.2119 -0.4239
19194TIP3    H278998   1.492   5.272  16.211  0.5833  0.2013 -0.7099
19195TIP3   OH278999   1.712   0.892  15.580  0.2999  0.5714 -0.1018
19195TIP3    H179000   1.737   0.948  15.507 -1.1644  0.7579 -0.4880
19195TIP3    H279001   1.632   0.848  15.551  0.4447 -0.3872  0.8768
19196TIP3   OH279002   6.429   3.726  11.785 -0.0750 -0.0020 -0.4369
19196TIP3    H179003   6.373   3.733  11.863  0.2806  1.6570 -0.2878
19196TIP3    H279004   6.514   3.698  11.819 -0.5499 -1.6885 -0.5595
19197TIP3   OH279005   2.447   2.168   3.408 -0.3841  0.0626  0.1960
19197TIP3    H179006   2.519   2.152   3.346 -1.9110 -1.0829 -1.3598
19197TIP3    H279007   2.477   2.243   3.460  2.2628 -0.8587  0.1515
19198TIP3   OH279008   1.304   1.087   4.399  0.4644  0.4416  0.1260
19198TIP3    H179009   1.249   1.028   4.450  2.4678 -1.4029  0.2917
19198TIP3    H279010   1.373   1.114   4.461  2.2305 -0.8429 -1.1652
19199TIP3   OH279011   4.980   2.534  11.906  0.2961  0.1794 -0.0170
19199TIP3    H179012   4.959   2.441  11.915  1.2547 -0.1386 -0.9388
19199TIP3    H279013   5.074   2.537  11.891  0.1877  1.2473 -0.6340
19200TIP3   OH279014   3.101   2.215  14.927  0.2023 -0.0188  0.0213
19200TIP3    H179015   3.099   2.258  15.012  0.9466 -0.0912  0.0839
19200TIP3    H279016   3.034   2.260  14.876 -0.0081  0.2575  0.5363
19201TIP3   OH279017   1.582   6.475   4.772  0.1546 -0.0595 -0.3431
19201TIP3    H179018   1.533   6.415   4.716  1.8796 -0.5626 -1.4029
19201TIP3    H279019   1.629   6.532   4.712  1.2586  0.0629  0.5943
19202TIP3   OH279020   4.959   1.486   2.087 -0.0684 -0.0256  0.0293
19202TIP3    H179021   5.052   1.477   2.104  0.0260 -1.2505 -1.0021
19202TIP3    H279022   4.934   1.404   2.046 -2.3990 -1.3729  3.6519
19203TIP3   OH279023   4.833   3.223   3.169  0.0593  0.1564  0.1091
19203TIP3    H179024   4.868   3.274   3.242  1.8898 -1.7591  0.7015
19203TIP3    H279025   4.883   3.252   3.093  0.0645  0.2618  0.1524
19204TIP3   OH279026   0.355   2.465   6.865  0.4099  0.8870  0.5058
19204TIP3    H179027   0.283   2.509   6.910 -1.0775 -0.8968  0.0210
19204TIP3    H279028   0.351   2.498   6.775 -1.2004 -0.6351 -0.0624
19205TIP3   OH279029   5.403   1.408  14.241  0.1709  0.1763  0.0658
19205TIP3    H179030   5.468   1.400  14.311 -0.2187  0.0066  0.4095
19205TIP3    H279031   5.355   1.325  14.244  0.6330 -0.1392 -0.8855
19206TIP3   OH279032   4.698   1.106   0.093  0.9291  0.8706  0.1919
19206TIP3    H179033   4.620   1.154   0.122 -0.8970 -0.5224 -2.0696
19206TIP3    H279034   4.734   1.068   0.173 -1.8246  0.0109  1.1383
19207TIP3   OH279035   6.742   1.833  11.666 -0.5391  0.4335  0.1973
19207TIP3    H179036   6.665   1.796  11.710  0.7666 -1.2453  1.1690
19207TIP3    H279037   6.776   1.761  11.612 -0.2175  1.4655 -1.0183
19208TIP3   OH279038   5.291   5.607   1.847 -0.2715  1.0466  0.1978
19208TIP3    H179039   5.320   5.520   1.876 -2.3096 -0.5760 -2.1213
19208TIP3    H279040   5.224   5.632   1.910 -1.1099 -0.0795 -0.1958
19209TIP3   OH279041   4.104   1.510   4.393 -0.7453  0.4400 -0.3381
19209TIP3    H179042   4.131   1.437   4.450 -1.1229 -0.5892 -1.4419
19209TIP3    H279043   4.087   1.582   4.454  0.3672 -0.1570  0.7263
19210TIP3   OH279044   5.988   4.242   5.975  0.2480 -0.3397 -0.1074
19210TIP3    H179045   5.900   4.207   5.961  0.5862 -0.8422 -1.0515
19210TIP3    H279046   5.973   4.328   6.016 -0.5784 -1.5449  2.2673
19211TIP3   OH279047   2.649   4.319   5.251  0.0913 -0.4939  0.1172
19211TIP3    H179048   2.709   4.380   5.294 -0.1402 -0.0451 -0.1807
19211TIP3    H279049   2.687   4.304   5.165 -0.4447  0.1578 -0.2485
19212TIP3   OH279050   6.420   1.417   4.036 -0.1588 -0.2264  0.4981
19212TIP3    H179051   6.353   1.426   3.969  0.7328  1.3305 -0.2463
19212TIP3    H279052   6.405   1.330   4.073 -0.9171 -0.9964 -1.4596
19213TIP3   OH279053   6.545   3.496  14.480  0.7209  0.2693 -0.2048
19213TIP3    H179054   6.463   3.492  14.528  0.3175 -0.3454 -0.9248
19213TIP3    H279055   6.519   3.499  14.388  1.4925 -1.0377 -0.5041
19214TIP3   OH279056   2.408   2.466  17.047  0.1249 -0.3695  0.9729
19214TIP3    H179057   2.430   2.411  17.122  1.3853 -0.6574  0.4283
19214TIP3    H279058   2.480   2.530  17.043  0.3316 -0.6597 -0.2587
19215TIP3   OH279059   1.916   5.758  16.025  0.0759 -0.5577 -0.2357
19215TIP3    H179060   1.871   5.841  16.040  0.8539 -0.2069  0.1961
19215TIP3    H279061   2.002   5.770  16.064  0.9992 -0.7849 -2.0690
19216TIP3   OH279062   6.262   0.318  12.265 -0.1867  0.4321 -0.1191
19216TIP3    H179063   6.177   0.312  12.307 -0.6499 -2.1160 -1.2147
19216TIP3    H279064   6.325   0.323  12.337 -1.1184 -0.5028  0.7890
19217TIP3   OH279065   2.939   3.980  16.693  0.2269  0.1585 -0.3819
19217TIP3    H179066   2.862   3.928  16.668 -0.4699  0.6343  0.6706
19217TIP3    H279067   2.968   4.020  16.611  0.1749 -1.0754 -1.0344
19218TIP3   OH279068   5.924   2.979  10.891 -0.0732  0.0780  0.0291
19218TIP3    H179069   5.928   3.066  10.852 -1.1448  0.6189  1.0736
19218TIP3    H279070   5.836   2.947  10.870  0.4977 -1.0251 -0.8421
19219TIP3   OH279071   1.868   5.195   1.260  0.6355 -0.6105 -0.4818
19219TIP3    H179072   1.868   5.114   1.311 -2.0521  0.4170  1.3637
19219TIP3    H279073   1.777   5.208   1.235  1.2727  1.0370 -2.1734
19220TIP3   OH279074   3.247   5.931  12.888  0.0897 -0.4905 -0.4436
19220TIP3    H179075   3.207   5.853  12.852 -1.1986 -0.0367 -0.0606
19220TIP3    H279076   3.281   5.904  12.974 -0.1841 -0.6767 -0.3945
19221TIP3   OH279077   4.297   0.243   2.108 -0.2108 -0.0328 -0.1814
19221TIP3    H179078   4.346   0.161   2.108 -1.7859 -1.1414  3.2433
19221TIP3    H279079   4.346   0.300   2.048  3.1119 -2.2119  0.2027
19222TIP3   OH279080   2.935   0.061  12.459 -0.3480  0.2521  0.3347
19222TIP3    H179081   2.969  -0.023  12.425 -0.6040 -0.6705  2.2415
19222TIP3    H279082   2.845   0.041  12.486 -0.5210  1.2362  0.5043
19223TIP3   OH279083   5.190   2.932   4.995 -0.2198  0.3351 -0.1517
19223TIP3    H179084   5.280   2.947   4.965  0.0450 -0.2671  0.3262
19223TIP3    H279085   5.135   2.978   4.930  0.4187  0.5235 -0.5660
19224TIP3   OH279086   1.361   0.983   5.159 -0.5432 -0.4309 -0.0928
19224TIP3    H179087   1.364   0.947   5.247 -0.3003 -2.5283 -0.8953
19224TIP3    H279088   1.444   1.028   5.148 -0.6851  0.0587  0.8328
19225TIP3   OH279089   3.328   0.068  13.612 -0.4689 -0.7146 -0.3069
19225TIP3    H179090   3.255   0.093  13.555 -0.4665 -1.3340 -0.5895
19225TIP3    H279091   3.296  -0.007  13.660 -0.0699 -0.8945 -0.3194
19226TIP3   OH279092   3.736   0.117   1.045  0.7278  0.0146  0.3628
19226TIP3    H179093   3.816   0.070   1.022  1.2508  1.6016 -1.2853
19226TIP3    H279094   3.672   0.048   1.060  1.6061 -1.2754 -1.3540
19227TIP3   OH279095   5.930   2.814  12.953  0.1725  0.1388 -0.4150
19227TIP3    H179096   5.959   2.765  12.876 -0.9240 -0.5936 -0.3881
19227TIP3    H279097   5.849   2.770  12.980  0.0087  1.0048  0.5609
19228TIP3   OH279098   6.148   2.847   2.403  0.2188  0.1495  0.5427
19228TIP3    H179099   6.074   2.883   2.353  1.6221  1.6821 -0.5333
19228TIP3    H279100   6.200   2.801   2.337  0.3819 -0.6827  1.2440
19229TIP3   OH279101   1.797   5.359   5.846 -0.8730  0.1709 -0.2885
19229TIP3    H179102   1.749   5.360   5.928 -1.2843  0.7796 -0.5330
19229TIP3    H279103   1.889   5.372   5.872 -1.0616  0.8874  0.0347
19230TIP3   OH279104   5.641   4.788  15.618 -0.0536 -0.6443 -0.0260
19230TIP3    H179105   5.736   4.789  15.615 -0.0120 -2.4265 -0.6312
19230TIP3    H279106   5.614   4.777  15.527 -0.7776 -1.4029  0.2651
19231TIP3   OH279107   1.566   2.583  15.622 -0.0093 -0.2707  0.7212
19231TIP3    H179108   1.505   2.630  15.566 -1.0402 -2.4034 -0.0759
19231TIP3    H279109   1.646   2.636  15.621 -0.8284  1.0237 -0.7199
19232TIP3   OH279110   5.294   6.486   4.995 -0.6320  0.3649 -0.3314
19232TIP3    H179111   5.328   6.513   4.910  0.7455 -1.3997 -0.3977
19232TIP3    H279112   5.354   6.418   5.025 -3.4500 -2.1557  0.1019
19233TIP3   OH279113   2.338   5.326   0.057 -0.2194 -0.0516  0.0322
19233TIP3    H179114   2.294   5.241   0.066  1.3974 -0.7754  1.6781
19233TIP3    H279115   2.266   5.389   0.048 -1.4880 -1.4810 -0.2796
19234TIP3   OH279116   4.452   5.107  13.147 -0.1107 -0.1493  0.2360
19234TIP3    H179117   4.439   5.115  13.052  1.2607 -0.6920 -0.0313
19234TIP3    H279118   4.364   5.099  13.183 -0.7264  1.2529 -0.8618
19235TIP3   OH279119   4.807   4.457   0.711 -0.0599  0.0692 -0.1177
19235TIP3    H179120   4.738   4.515   0.678 -0.5639  0.0097  0.8044
19235TIP3    H279121   4.770   4.369   0.702 -0.1061  0.0378  0.3899
19236TIP3   OH279122   0.950   4.318   3.107  0.1118  0.3530 -0.3820
19236TIP3    H179123   1.028   4.333   3.054  1.5081 -1.5234  1.0024
19236TIP3    H279124   0.969   4.360   3.190  0.2949 -1.2524  0.4346
19237TIP3   OH279125   5.939   1.076  10.785 -0.0284  0.6396 -0.8100
19237TIP3    H179126   5.920   1.131  10.709  0.9592  0.3411 -1.2884
19237TIP3    H279127   6.034   1.078  10.793 -0.0394 -0.3303 -0.3218
19238TIP3   OH279128   4.691   1.679   1.607 -0.8366  0.3857 -0.0640
19238TIP3    H179129   4.665   1.705   1.519 -1.1191  0.6798  0.1060
19238TIP3    H279130   4.766   1.734   1.628 -0.8670  0.4244 -0.0580
19239TIP3   OH279131   5.641   1.759  15.230 -0.3679  0.5510 -0.1463
19239TIP3    H179132   5.704   1.696  15.265 -0.9526  0.9395  1.7118
19239TIP3    H279133   5.643   1.745  15.136  1.1649 -0.6847  0.0328
19240TIP3   OH279134   2.447   5.536  14.907  0.2164 -0.1665 -0.0591
19240TIP3    H179135   2.424   5.582  14.987  1.2387 -0.6828  0.5478
19240TIP3    H279136   2.436   5.602  14.838  1.5432  1.0000  0.7722
19241TIP3   OH279137   4.407   1.017  11.962 -0.4553 -0.0851  0.1143
19241TIP3    H179138   4.344   0.972  11.905 -0.4306  0.4284 -0.3268
19241TIP3    H279139   4.413   0.961  12.040  0.3862 -1.4035 -0.8559
19242TIP3   OH279140   0.105   5.574  15.619 -0.2468  0.2758  0.2991
19242TIP3    H179141   0.154   5.546  15.696 -2.0305 -0.0579  1.3942
19242TIP3    H279142   0.082   5.665  15.637  1.2924  0.9596 -0.9588
19243TIP3   OH279143   4.337   3.011   5.449 -0.7084 -0.2939  0.7071
19243TIP3    H179144   4.328   2.921   5.418 -0.8568  0.4721 -1.7130
19243TIP3    H279145   4.431   3.024   5.460 -0.7138 -0.8502  1.5233
19244TIP3   OH279146   2.765   0.591   1.075 -0.0021 -0.1799  0.3415
19244TIP3    H179147   2.788   0.679   1.045 -4.4304  1.2850  0.5177
19244TIP3    H279148   2.759   0.599   1.170 -0.7539 -0.5227  0.3306
19245TIP3   OH279149   1.058   6.358   3.318 -0.5212 -0.2066 -0.6709
19245TIP3    H179150   1.023   6.399   3.239 -0.5118  0.6759 -0.2285
19245TIP3    H279151   0.984   6.355   3.379 -0.0132  1.0641  0.0330
19246TIP3   OH279152   2.274   6.202   0.208  0.1097 -0.1040 -0.1485
19246TIP3    H179153   2.319   6.260   0.146  0.2495 -0.4552 -0.3824
19246TIP3    H279154   2.251   6.259   0.281 -1.0513  0.5576 -1.0019
19247TIP3   OH279155   1.433   3.946  17.238 -0.6383 -0.4697  0.4240
19247TIP3    H179156   1.391   3.865  17.209  2.0081 -1.2391 -1.6047
19247TIP3    H279157   1.505   3.917  17.294  0.2476  0.4846 -0.1960
19248TIP3   OH279158   6.339   1.317   0.383  0.7900 -0.3867 -0.0014
19248TIP3    H179159   6.411   1.302   0.322  1.7977 -0.1793  1.1033
19248TIP3    H279160   6.339   1.240   0.440  1.3165  0.4372  1.1400
19249TIP3   OH279161   2.075   0.337  12.458 -0.0859 -0.3266  0.2279
19249TIP3    H179162   2.171   0.333  12.467  0.0487  0.7002 -0.6330
19249TIP3    H279163   2.060   0.381  12.375 -1.3218 -1.9984 -0.5045
19250TIP3   OH279164   3.482   4.661  14.553 -0.2438 -0.4400  0.4072
19250TIP3    H179165   3.390   4.640  14.572 -0.5908 -1.0084 -1.6906
19250TIP3    H279166   3.507   4.600  14.485  1.0323  1.1271 -0.5994
19251TIP3   OH279167   5.311   3.228   1.544  0.1652 -0.1851 -0.2807
19251TIP3    H179168   5.219   3.206   1.528  0.0836 -0.3414  0.3753
19251TIP3    H279169   5.310   3.319   1.573  0.3943  0.3638 -1.8956
19252TIP3   OH279170   0.870   4.080  15.878  1.2038 -0.1047  0.2847
19252TIP3    H179171   0.817   4.142  15.927 -0.8848 -0.5502 -1.2777
19252TIP3    H279172   0.891   4.011  15.941  3.6624  2.0631  2.0892
19253TIP3   OH279173   6.116   2.986  11.685 -0.2106 -0.2780  0.5971
19253TIP3    H179174   6.108   3.043  11.761 -0.6349  0.9258 -0.3300
19253TIP3    H279175   6.061   3.026  11.618  1.2358 -0.5383 -0.8044
19254TIP3   OH279176   5.605   2.826  16.619  0.4921  0.1504 -0.0815
19254TIP3    H179177   5.529   2.825  16.561  0.7835 -0.2594 -0.4689
19254TIP3    H279178   5.658   2.751  16.591  0.9281  0.2913  0.3319
19255TIP3   OH279179   2.409   0.700  11.596 -0.5573  0.4980 -0.0610
19255TIP3    H179180   2.480   0.665  11.649 -0.1826  0.4659 -0.5794
19255TIP3    H279181   2.329   0.672  11.641 -0.2839  2.4249  1.8023
19256TIP3   OH279182   2.806   5.747  16.883 -0.1875  0.1363 -0.6243
19256TIP3    H179183   2.793   5.832  16.924 -0.8809 -0.8973  1.4383
19256TIP3    H279184   2.895   5.722  16.906 -0.9027 -0.8908  1.2783
19257TIP3   OH279185   3.978   3.210   2.090  0.1963  0.0963 -0.7663
19257TIP3    H179186   3.928   3.161   2.155 -1.8659  1.5999 -1.0958
19257TIP3    H279187   4.014   3.284   2.138  0.8402 -0.1552 -0.8507
19258TIP3   OH279188   0.125   4.942   4.745 -0.0999 -0.3209  0.5624
19258TIP3    H179189   0.207   4.893   4.739  0.1211  0.2490 -1.7751
19258TIP3    H279190   0.152   5.034   4.753 -0.5331 -0.2487  1.3449
19259TIP3   OH279191   5.028   4.415   3.599 -0.3193  0.1969 -0.4375
19259TIP3    H179192   5.093   4.403   3.668 -1.5576  3.3237  1.4962
19259TIP3    H279193   5.067   4.374   3.521  3.1833  0.4917  0.9885
19260TIP3   OH279194   6.263   2.706  14.427 -0.7971 -0.4408  0.1758
19260TIP3    H179195   6.215   2.737  14.350 -0.5676  0.2317  0.2913
19260TIP3    H279196   6.242   2.770  14.495  1.4018  0.7764 -0.1597
19261TIP3   OH279197   1.489   1.077   2.786 -0.3602  0.5782 -0.2537
19261TIP3    H179198   1.518   1.118   2.705 -0.6480  0.8670 -0.2130
19261TIP3    H279199   1.445   0.997   2.759 -1.0831  1.0307 -0.4313
19262TIP3   OH279200   0.771   1.173   0.570 -0.0241 -0.4744  0.3725
19262TIP3    H179201   0.828   1.099   0.590  1.6639  0.9230  0.9158
19262TIP3    H279202   0.740   1.155   0.481  1.5604 -1.1099 -0.0829
19263TIP3   OH279203   5.010   5.183   1.141 -0.1126 -0.0413 -0.5871
19263TIP3    H179204   5.029   5.119   1.073 -1.1789  0.8014 -1.7348
19263TIP3    H279205   4.931   5.150   1.183  0.0750 -0.1338 -0.3037
19264TIP3   OH279206   6.655   4.144  13.415  0.1858  0.0907  0.6524
19264TIP3    H179207   6.725   4.108  13.470 -1.6258  0.3944  3.2935
19264TIP3    H279208   6.664   4.239  13.424  1.4837  0.3082 -1.8423
19265TIP3   OH279209   2.029   4.419   6.252 -0.1143  0.2494  0.0774
19265TIP3    H179210   2.102   4.359   6.263 -1.1513 -0.9479  0.6539
19265TIP3    H279211   2.044   4.487   6.318 -0.2559 -0.7543  1.1766
19266TIP3   OH279212   6.545   4.398  16.682  0.0233 -0.3038  0.1142
19266TIP3    H179213   6.521   4.484  16.647  2.0385  0.3648  0.2495
19266TIP3    H279214   6.475   4.340  16.653  0.1619  0.7679 -2.6556
19267TIP3   OH279215   5.541   6.686  17.235 -0.3585 -0.7568 -0.2257
19267TIP3    H179216   5.524   6.636  17.315 -2.5161 -1.5115 -1.0776
19267TIP3    H279217   5.581   6.767  17.266 -0.1515 -1.4607  1.5066
19268TIP3   OH279218   2.685   2.823  14.525  0.4148  0.2326  0.6595
19268TIP3    H179219   2.731   2.902  14.552  0.4011  1.4756 -2.4887
19268TIP3    H279220   2.753   2.756  14.520  0.7617  0.4931  1.6377
19269TIP3   OH279221   4.967   5.158   0.495 -0.2075  0.2683  0.3795
19269TIP3    H179222   4.891   5.137   0.442 -0.8286  0.9114  0.9964
19269TIP3    H279223   5.009   5.074   0.513 -2.0839 -0.3980  1.9983
19270TIP3   OH279224   3.265   0.333  11.443  0.2800 -0.3736  0.1733
19270TIP3    H179225   3.320   0.299  11.513  1.8121  3.6440  1.2167
19270TIP3    H279226   3.178   0.340  11.482  0.2234 -1.7328  0.3265
19271TIP3   OH279227   5.511   1.855   1.552  0.0489 -0.1284  0.3742
19271TIP3    H179228   5.595   1.871   1.595  0.1015 -0.8014  0.5460
19271TIP3    H279229   5.495   1.761   1.567 -1.0049  0.1109  0.8319
19272TIP3   OH279230   4.584   4.136  11.570 -0.8013 -0.2987 -0.3069
19272TIP3    H179231   4.649   4.138  11.500 -1.0326 -1.9471 -0.6204
19272TIP3    H279232   4.583   4.225  11.605 -1.9381  1.1410 -3.5473
19273TIP3   OH279233   0.626   5.439  11.140 -0.1433  0.0434  0.6783
19273TIP3    H179234   0.584   5.367  11.091 -1.4146 -0.7969  2.8675
19273TIP3    H279235   0.720   5.424  11.128 -0.4082 -0.8134 -0.5289
19274TIP3   OH279236   0.977   3.223  15.869  0.5153  0.0739  0.1346
19274TIP3    H179237   1.028   3.168  15.810  1.7517 -0.2278  1.4275
19274TIP3    H279238   1.038   3.289  15.900 -0.3076  0.6869  0.4862
19275TIP3   OH279239   1.833   5.835  12.309 -0.6972 -0.1313  0.4189
19275TIP3    H179240   1.760   5.871  12.259  0.8234  2.6268  0.0290
19275TIP3    H279241   1.906   5.830  12.246 -0.5336 -3.2371  0.6714
19276TIP3   OH279242   5.526   6.269   3.256  0.3584  0.1144  0.1394
19276TIP3    H179243   5.571   6.217   3.323  1.2868  1.7629  0.8736
19276TIP3    H279244   5.450   6.217   3.231  0.4524 -0.9192  1.8854
19277TIP3   OH279245   1.895   3.965  13.987 -0.4528  0.2179  0.3675
19277TIP3    H179246   1.900   4.060  13.997  3.4773  0.1224  0.8439
19277TIP3    H279247   1.985   3.939  13.965 -1.4175 -3.3931  0.1612
19278TIP3   OH279248   6.095   5.509  14.877 -0.3082 -0.4586 -0.3701
19278TIP3    H179249   6.081   5.591  14.924  0.9801 -0.7327  0.5373
19278TIP3    H279250   6.180   5.477  14.908 -0.4618 -1.7899 -1.2186
19279TIP3   OH279251   5.147   0.456  17.251 -0.2189  0.2292  0.0065
19279TIP3    H179252   5.058   0.422  17.257 -1.4696  3.4456  1.9810
19279TIP3    H279253   5.143   0.524  17.184  1.6347 -1.6131 -2.1535
19280TIP3   OH279254   0.384   4.694   1.230 -0.1556 -0.5542  0.2585
19280TIP3    H179255   0.370   4.665   1.320 -1.0895  1.4019  0.8117
19280TIP3    H279256   0.339   4.630   1.176 -2.1209 -0.2227  1.3973
19281TIP3   OH279257   5.843   5.085  12.095 -0.5615  0.2722  0.1924
19281TIP3    H179258   5.911   5.139  12.054 -0.8162 -0.1170 -0.7601
19281TIP3    H279259   5.770   5.145  12.111 -0.6183  0.3376 -0.3144
19282TIP3   OH279260   3.599   1.235   4.778  0.1615 -0.1249  0.0153
19282TIP3    H179261   3.658   1.175   4.733  0.4057 -0.3116  0.5659
19282TIP3    H279262   3.652   1.313   4.794 -0.2505  0.3717 -0.9844
19283TIP3   OH279263   5.142   0.655   3.691 -0.0366  0.7338  0.8206
19283TIP3    H179264   5.053   0.679   3.662 -0.2737 -0.7627  0.2123
19283TIP3    H279265   5.131   0.625   3.781 -0.3851 -0.5953  0.3608
19284TIP3   OH279266   3.797   0.746  15.829 -0.0586 -0.1382  0.2132
19284TIP3    H179267   3.772   0.770  15.740  0.7020 -2.1156 -0.6183
19284TIP3    H279268   3.757   0.812  15.885 -0.7951  0.9994 -1.5720
19285TIP3   OH279269   1.293   5.591  14.338 -0.3455 -0.5714 -0.3184
19285TIP3    H179270   1.329   5.554  14.257  2.0750 -0.3715  0.5933
19285TIP3    H279271   1.277   5.683  14.318  1.5412 -0.1801 -0.2594
19286TIP3   OH279272   1.675   5.344  16.038  0.9334  0.1781  0.0374
19286TIP3    H179273   1.635   5.380  16.117 -0.9794  0.4210 -1.0042
19286TIP3    H279274   1.723   5.418  16.000  0.2049  0.6075 -0.0668
19287TIP3   OH279275   2.134   5.432  11.684  0.4066 -0.3087  0.1867
19287TIP3    H179276   2.088   5.383  11.751 -0.1509 -0.7170 -0.4816
19287TIP3    H279277   2.097   5.521  11.688  2.1853  0.4153  2.1402
19288TIP3   OH279278   5.036   4.406   0.370  0.2530  0.0919  0.4318
19288TIP3    H179279   5.085   4.447   0.441 -2.7134 -0.3581  2.9380
19288TIP3    H279280   5.054   4.313   0.378  1.8190  0.2180 -1.0652
19289TIP3   OH279281   6.251   0.784   1.765  0.0130  0.0655  0.0739
19289TIP3    H179282   6.169   0.752   1.801 -0.2507  0.6654  0.0166
19289TIP3    H279283   6.318   0.754   1.826 -0.5748  2.6609  2.1797
19290TIP3   OH279284   4.104   2.334   2.444  0.2394  0.1502 -0.8701
19290TIP3    H179285   4.012   2.311   2.429  0.7193 -1.5297 -1.5724
19290TIP3    H279286   4.106   2.429   2.440 -1.4942  0.2311 -0.6712
19291TIP3   OH279287   3.545   2.756  13.251 -0.3747 -0.1326 -0.2040
19291TIP3    H179288   3.495   2.735  13.330  0.6828  1.2213  0.8987
19291TIP3    H279289   3.506   2.837  13.218 -0.7242 -0.6169 -1.0100
19292TIP3   OH279290   2.899   3.676  13.581  0.3150  0.7576  0.7201
19292TIP3    H179291   2.935   3.764  13.589  1.2401  0.5703 -0.8675
19292TIP3    H279292   2.861   3.657  13.667  1.4893  2.1012  1.5815
19293TIP3   OH279293   1.969   0.026   5.070 -0.0319  0.1213 -0.1043
19293TIP3    H179294   1.979  -0.024   5.151  0.0900 -2.1243 -1.4194
19293TIP3    H279295   1.875   0.024   5.053  0.0259 -0.1096 -0.4067
19294TIP3   OH279296   1.323   3.989   4.622  0.3446  0.1508  0.1280
19294TIP3    H179297   1.364   4.074   4.638  0.4469  0.1278 -0.0138
19294TIP3    H279298   1.392   3.937   4.581 -0.2564  0.5789 -1.4958
19295TIP3   OH279299   0.310   2.574  11.397 -0.8505 -0.3342 -0.3224
19295TIP3    H179300   0.246   2.593  11.328  1.2672  2.4964 -1.7161
19295TIP3    H279301   0.306   2.651  11.454  0.3174 -0.7406  0.3252
19296TIP3   OH279302   4.274   0.270  11.839  0.4797 -0.4818 -0.3859
19296TIP3    H179303   4.208   0.302  11.900  1.4927  1.4227 -0.2130
19296TIP3    H279304   4.338   0.226  11.896  1.0455  0.6372 -0.1373
19297TIP3   OH279305   5.059   5.596  16.101 -0.1984  0.7427  0.0193
19297TIP3    H179306   5.117   5.672  16.110  1.3065 -0.3720  0.2093
19297TIP3    H279307   5.118   5.520  16.108 -1.8142 -0.4808  1.2337
19298TIP3   OH279308   2.951   3.061  12.470  0.5763 -0.5454 -0.1576
19298TIP3    H179309   2.856   3.059  12.486  0.4998  0.7768 -0.3617
19298TIP3    H279310   2.962   3.004  12.394 -0.3611  0.8529 -1.4094
19299TIP3   OH279311   6.197   2.965   4.774 -0.2909  0.2956 -0.5195
19299TIP3    H179312   6.102   2.964   4.769 -0.2605 -0.7841 -1.6800
19299TIP3    H279313   6.225   2.932   4.688  1.1406  1.3502 -0.4857
19300TIP3   OH279314   6.527   2.117   5.683 -0.1191 -0.5736  0.0754
19300TIP3    H179315   6.581   2.195   5.691 -0.5593 -0.3542  1.1590
19300TIP3    H279316   6.450   2.146   5.634  0.4142 -0.7205 -0.8712
19301TIP3   OH279317   1.765   3.321  13.670 -0.4490  0.0104  0.1344
19301TIP3    H179318   1.691   3.260  13.674 -0.2939 -0.5219 -2.7878
19301TIP3    H279319   1.838   3.269  13.636  1.1455  0.7040  2.2759
19302TIP3   OH279320   2.994   1.515   6.040 -0.0585 -0.1502 -0.1505
19302TIP3    H179321   3.062   1.532   6.105 -0.0815 -2.4751  0.5604
19302TIP3    H279322   3.041   1.483   5.964 -0.3010 -2.0756  0.4539
19303TIP3   OH279323   5.137   1.192  15.739  0.3298 -0.7888  0.6928
19303TIP3    H179324   5.076   1.158  15.804  0.3189 -2.6129 -0.2152
19303TIP3    H279325   5.221   1.196  15.785 -0.2887  1.1659  1.7680
19304TIP3   OH279326   4.646   1.064   2.590 -0.2936  0.9632  0.2784
19304TIP3    H179327   4.669   1.029   2.503 -0.8906  0.6942  0.2258
19304TIP3    H279328   4.565   1.112   2.575 -0.5259  0.7161  0.7349
19305TIP3   OH279329   3.670   5.055   2.517 -0.1077  0.0703  0.0907
19305TIP3    H179330   3.642   4.966   2.539 -0.7703 -0.1349 -1.4767
19305TIP3    H279331   3.763   5.046   2.497  0.1015 -0.0416  1.0442
19306TIP3   OH279332   0.535   6.299  16.539  0.1930 -0.7704  0.0344
19306TIP3    H179333   0.538   6.299  16.634 -1.6200 -0.5538  0.1243
19306TIP3    H279334   0.494   6.216  16.515 -1.2410  0.0284 -0.4268
19307TIP3   OH279335   6.743   6.708  16.056  0.3709 -0.4349  0.0901
19307TIP3    H179336   6.761   6.743  16.143 -2.6283  1.5882  0.0364
19307TIP3    H279337   6.782   6.771  15.996  0.0913 -0.3784 -0.0308
19308TIP3   OH279338   6.239   3.018   5.479 -0.1005 -0.2046  0.3833
19308TIP3    H179339   6.265   3.019   5.387 -0.1568 -2.5461  0.2938
19308TIP3    H279340   6.145   3.035   5.478 -0.3075 -1.3135 -0.1033
19309TIP3   OH279341   5.352   3.184   6.806  0.9064 -0.4491 -0.2916
19309TIP3    H179342   5.286   3.119   6.829  1.9264 -1.2426  0.4669
19309TIP3    H279343   5.412   3.138   6.747  1.4965 -0.1306  0.0428
19310TIP3   OH279344   3.531   2.177   0.789  0.5445  0.8069 -0.3127
19310TIP3    H179345   3.563   2.231   0.717  1.9215 -0.1975 -0.5025
19310TIP3    H279346   3.560   2.088   0.767 -0.2944  0.2463  0.7512
19311TIP3   OH279347   6.720   3.039  15.200 -0.0365 -0.3176  0.1655
19311TIP3    H179348   6.639   3.065  15.243 -0.0641  1.2314 -0.7401
19311TIP3    H279349   6.786   3.043  15.270 -0.7456 -1.7488  0.9400
19312TIP3   OH279350   3.267   1.349  16.370  0.5835  0.5861  0.3154
19312TIP3    H179351   3.358   1.318  16.369  0.2306 -0.4431  0.1003
19312TIP3    H279352   3.238   1.336  16.460  1.2626  2.8047  0.9335
19313TIP3   OH279353   4.110   6.775   3.280 -0.0825  0.2449 -0.2822
19313TIP3    H179354   4.202   6.799   3.277  0.0174 -0.0771  0.0838
19313TIP3    H279355   4.089   6.748   3.191  0.2904 -0.0829 -0.2752
19314TIP3   OH279356   2.624   4.076   0.248 -0.3682  0.3522 -0.3901
19314TIP3    H179357   2.605   4.025   0.326  0.1264  0.4784 -0.1821
19314TIP3    H279358   2.692   4.027   0.202  0.8974  1.3314  0.3594
19315TIP3   OH279359   4.013   2.960   3.374  0.3244  0.7898 -0.7136
19315TIP3    H179360   3.959   3.006   3.438  0.5254 -0.4819  0.4110
19315TIP3    H279361   3.973   2.981   3.289 -0.8831  1.2672 -0.0461
19316TIP3   OH279362   5.004   6.511  12.688 -0.1494  0.0688 -0.2788
19316TIP3    H179363   5.077   6.460  12.653  1.0667  1.6127 -0.1133
19316TIP3    H279364   4.975   6.565  12.615 -1.7754 -1.1698 -0.6022
19317TIP3   OH279365   0.751   3.556   2.063 -0.3666 -0.1940 -0.2305
19317TIP3    H179366   0.664   3.594   2.075  0.2745  1.3975 -0.3637
19317TIP3    H279367   0.796   3.572   2.145 -0.5733 -2.1729  0.3156
19318TIP3   OH279368   2.772   2.941  12.900 -0.2965  0.2199 -0.1337
19318TIP3    H179369   2.805   3.027  12.925 -0.8808  0.1709  0.8612
19318TIP3    H279370   2.738   2.953  12.811  0.2436  0.8407 -0.2587
19319TIP3   OH279371   6.504   0.612   6.028 -0.5932 -0.0212  0.3281
19319TIP3    H179372   6.470   0.641   5.944 -0.4116  1.1889  0.6471
19319TIP3    H279373   6.426   0.583   6.076 -0.5176 -2.2770 -0.8009
19320TIP3   OH279374   2.999   3.264  15.847  0.0017 -0.5919  0.1604
19320TIP3    H179375   2.967   3.344  15.805  0.6488 -0.3065  0.1962
19320TIP3    H279376   2.927   3.202  15.837 -0.3829 -0.1099 -0.1633
19321TIP3   OH279377   5.663   5.640   2.223  0.0133  0.4654  0.1749
19321TIP3    H179378   5.698   5.614   2.138  3.1924  1.3396  1.0625
19321TIP3    H279379   5.661   5.559   2.274 -1.4562  0.0240 -0.5306
19322TIP3   OH279380   0.324   2.254   2.051  0.3349 -0.4212  0.3235
19322TIP3    H179381   0.235   2.229   2.024 -0.3011  0.9653  1.0454
19322TIP3    H279382   0.367   2.281   1.970  0.3614 -1.7921 -0.1475
19323TIP3   OH279383   5.937   2.024   4.713  0.0735 -0.1338 -0.4096
19323TIP3    H179384   5.935   2.096   4.776  3.3658 -1.5821  1.5844
19323TIP3    H279385   6.002   2.051   4.648  0.6585 -0.8891 -0.1499
19324TIP3   OH279386   5.806   3.254   4.051 -0.3309  0.0621 -0.1562
19324TIP3    H179387   5.789   3.160   4.060  0.1970 -0.1487 -1.1850
19324TIP3    H279388   5.722   3.296   4.068 -1.3834 -0.7900 -2.7972
19325TIP3   OH279389   4.642   2.166   0.183 -0.3279 -0.8161  0.0950
19325TIP3    H179390   4.689   2.159   0.100  2.9304 -1.7172  1.8244
19325TIP3    H279391   4.662   2.255   0.214  0.3462 -1.2254  0.8732
19326TIP3   OH279392   1.307   2.218  14.007  0.3450  0.7412 -0.4964
19326TIP3    H179393   1.319   2.218  13.912  0.7244  2.1360 -0.4750
19326TIP3    H279394   1.394   2.200  14.043  0.1223 -0.1972 -0.4027
19327TIP3   OH279395   5.159   0.342   2.193  0.3278 -1.0917 -0.3029
19327TIP3    H179396   5.157   0.250   2.218 -0.6400 -1.1689 -0.6353
19327TIP3    H279397   5.115   0.388   2.265  0.4638 -0.9325 -0.3187
19328TIP3   OH279398   2.873   0.344  11.116 -0.2264 -0.1368  0.0218
19328TIP3    H179399   2.912   0.413  11.063 -1.0132  2.0482  2.0822
19328TIP3    H279400   2.803   0.307  11.061  1.1582 -0.3879 -1.6620
19329TIP3   OH279401   6.011   6.737  10.489  0.2754 -0.7424 -0.0312
19329TIP3    H179402   5.925   6.700  10.510  0.8097 -0.9147  2.0533
19329TIP3    H279403   6.011   6.823  10.530  0.3445  0.1927 -1.8718
19330TIP3   OH279404   1.388   2.109   5.681 -0.4155 -0.5109 -0.1514
19330TIP3    H179405   1.297   2.127   5.705 -0.0987 -0.0139  0.7195
19330TIP3    H279406   1.428   2.196   5.671  0.1443 -0.7209  0.2110
19331TIP3   OH279407   6.450   4.771   5.673  0.1412  0.3888  0.1659
19331TIP3    H179408   6.458   4.823   5.753  0.3527  0.3632  0.1619
19331TIP3    H279409   6.432   4.682   5.705  1.6125  0.0853  0.2471
19332TIP3   OH279410   6.350   4.366  15.344  0.0849  0.6549 -0.2501
19332TIP3    H179411   6.356   4.363  15.248 -0.5766  0.4993 -0.2971
19332TIP3    H279412   6.282   4.302  15.365 -0.6620  1.5739  0.2201
19333TIP3   OH279413   4.195   0.241  13.692  0.0562  0.0965  0.3776
19333TIP3    H179414   4.223   0.150  13.694 -0.3884 -0.0207  1.6231
19333TIP3    H279415   4.236   0.276  13.613  1.2639 -0.8462  0.5563
19334TIP3   OH279416   3.496   3.064   3.751  0.3756 -0.0133 -0.5555
19334TIP3    H179417   3.537   3.046   3.666  0.4346 -1.3867 -0.2630
19334TIP3    H279418   3.569   3.061   3.813  0.3710  1.2278 -0.4654
19335TIP3   OH279419   4.164   4.022   4.164 -0.3659 -0.3007 -0.1342
19335TIP3    H179420   4.144   4.112   4.189 -2.1218 -0.6570 -0.1155
19335TIP3    H279421   4.214   3.987   4.237 -2.5124 -0.3113  1.3999
19336TIP3   OH279422   5.212   5.256   5.072 -0.3198  0.5089 -0.0867
19336TIP3    H179423   5.152   5.286   5.003  0.1754  2.3057  0.2054
19336TIP3    H279424   5.222   5.332   5.130  0.7239 -0.3738  0.9477
19337TIP3   OH279425   0.954   4.671   2.895 -0.3115 -0.0418  0.0550
19337TIP3    H179426   0.887   4.617   2.854 -1.1336  1.4701 -0.6765
19337TIP3    H279427   0.984   4.728   2.825  0.8444  0.1732  0.6977
19338TIP3   OH279428   1.370   5.153  14.150 -0.0639  0.0730 -0.5953
19338TIP3    H179429   1.390   5.074  14.100 -0.5390 -0.6267  0.2873
19338TIP3    H279430   1.411   5.224  14.100 -0.5882 -0.5760 -2.0005
19339TIP3   OH279431   0.501   2.682  11.892  0.1325 -0.0823 -0.4806
19339TIP3    H179432   0.596   2.674  11.901  0.1507 -1.3511 -1.5021
19339TIP3    H279433   0.477   2.615  11.828 -1.4140  0.4533 -0.5102
19340TIP3   OH279434   0.011   1.853  17.011 -0.2199  0.0173 -0.0308
19340TIP3    H179435   0.099   1.890  17.019 -0.5358  1.0277 -0.9276
19340TIP3    H279436  -0.048   1.926  17.028 -0.9106 -0.7364  0.9430
19341TIP3   OH279437   6.538   4.951  10.532  0.1099  0.2523 -0.1261
19341TIP3    H179438   6.457   4.963  10.582 -0.6018 -1.4618 -0.8047
19341TIP3    H279439   6.607   4.948  10.598 -0.8087 -1.9564  0.8089
19342TIP3   OH279440   2.595   2.538   5.212  0.3927 -0.4062 -0.3750
19342TIP3    H179441   2.632   2.611   5.260 -1.7985  0.8919 -0.5093
19342TIP3    H279442   2.608   2.561   5.120 -0.3481 -0.1210 -0.4178
19343TIP3   OH279443   6.103   0.579  13.284  0.0959 -0.1760  0.3414
19343TIP3    H179444   6.113   0.508  13.220  0.8716 -1.1565  1.5005
19343TIP3    H279445   6.179   0.569  13.342 -0.4912  0.7913  1.3057
19344TIP3   OH279446   2.610   1.587  13.691  0.3255 -0.1727 -0.0756
19344TIP3    H179447   2.553   1.604  13.766  1.3823  0.0786  0.6918
19344TIP3    H279448   2.696   1.574  13.729  0.6330 -1.4606 -1.1325
19345TIP3   OH279449   2.939   2.959  15.652  0.1399 -0.7633  0.3003
19345TIP3    H179450   2.996   3.014  15.600  0.9155 -1.5045  0.3468
19345TIP3    H279451   2.879   2.920  15.589  0.9419 -1.4965 -0.0210
19346TIP3   OH279452   0.239   5.334   2.498 -0.0960 -1.0218 -0.2315
19346TIP3    H179453   0.323   5.334   2.453  0.0340 -1.8137  0.0121
19346TIP3    H279454   0.259   5.318   2.590 -0.2429  1.8450  0.4200
19347TIP3   OH279455   3.681   0.586  12.252 -0.1538  0.4754 -0.3312
19347TIP3    H179456   3.643   0.576  12.165 -0.8937  0.4391 -0.0087
19347TIP3    H279457   3.681   0.681  12.267 -1.4216  0.4099  0.2233
19348TIP3   OH279458   6.264   5.075   4.388  0.1784 -0.2258  0.0687
19348TIP3    H179459   6.352   5.071   4.351  0.0507 -0.2956 -0.2279
19348TIP3    H279460   6.274   5.129   4.466  0.6285 -0.8070  0.4344
19349TIP3   OH279461   5.955   2.996  14.559 -0.0928  0.0558  0.1763
19349TIP3    H179462   5.912   2.926  14.511  0.8378 -0.1124 -0.4437
19349TIP3    H279463   5.998   2.952  14.633 -0.1943  0.0871  0.2536
19350TIP3   OH279464   6.596   1.909   5.861 -0.0207  0.7169 -0.5555
19350TIP3    H179465   6.670   1.870   5.814  1.1879  0.2728  1.5721
19350TIP3    H279466   6.584   1.995   5.821  2.2233  1.1380 -0.4164
19351TIP3   OH279467   2.756   1.157  16.233  0.2572  0.9497 -0.2705
19351TIP3    H179468   2.681   1.100  16.248  2.3896 -2.2895 -0.9473
19351TIP3    H279469   2.748   1.183  16.141  0.4468 -0.1715 -0.6119
19352TIP3   OH279470   1.408   5.165   5.676  0.5436 -0.2523 -0.2146
19352TIP3    H179471   1.329   5.123   5.643  0.1504 -0.3262  0.8140
19352TIP3    H279472   1.476   5.098   5.670  0.5160 -0.2245 -0.9841
19353TIP3   OH279473   5.839   5.347  15.202  0.3645 -0.0354  0.5380
19353TIP3    H179474   5.770   5.281  15.198 -1.1129  1.4660  0.2266
19353TIP3    H279475   5.906   5.315  15.142 -0.6942 -0.8402 -0.2620
19354TIP3   OH279476   2.507   0.476   5.945  0.3271 -0.1244  0.1743
19354TIP3    H179477   2.592   0.435   5.958  0.3316 -0.0366  0.4256
19354TIP3    H279478   2.523   0.570   5.954  0.3180 -0.0642 -0.4166
19355TIP3   OH279479   0.626   5.134  14.873 -0.7813  0.4250  0.2179
19355TIP3    H179480   0.623   5.130  14.969  1.2454  0.5521  0.3308
19355TIP3    H279481   0.668   5.218  14.854 -1.2750  0.4559 -0.8092
19356TIP3   OH279482   1.625   4.153   2.656  0.1852 -0.0832 -0.4271
19356TIP3    H179483   1.620   4.070   2.608  1.3269  0.6304 -1.8564
19356TIP3    H279484   1.589   4.218   2.596  1.8935  0.8816 -0.4573
19357TIP3   OH279485   3.328   3.564  16.796 -0.3225 -0.5733 -0.1976
19357TIP3    H179486   3.355   3.563  16.704  2.4856 -0.7477  0.5256
19357TIP3    H279487   3.319   3.471  16.819 -1.6853 -0.5158 -0.4326
19358TIP3   OH279488   2.191   5.947  11.000 -0.5427  0.0226  0.0454
19358TIP3    H179489   2.239   6.008  10.944 -1.8759  1.8961  0.8191
19358TIP3    H279490   2.249   5.932  11.074  0.8598 -1.7647 -1.3404
19359TIP3   OH279491   5.742   0.742  11.784  0.3123 -0.0928  0.3150
19359TIP3    H179492   5.806   0.812  11.786 -1.7244  1.8995  0.0722
19359TIP3    H279493   5.756   0.693  11.865  2.1587  0.1987  0.2054
19360TIP3   OH279494   3.102   4.741   6.353  0.2305  0.0731 -1.0676
19360TIP3    H179495   3.065   4.751   6.441  0.8642 -1.1590 -0.6233
19360TIP3    H279496   3.061   4.661   6.319  0.6874  0.0225 -1.5096
19361TIP3   OH279497   1.156   1.839  13.778 -0.1160  0.1056 -0.6130
19361TIP3    H179498   1.067   1.834  13.811  0.6304 -0.4585  1.4677
19361TIP3    H279499   1.149   1.820  13.684 -2.0587 -0.7228 -0.3234
19362TIP3   OH279500   5.440   6.315  16.369  0.6535  0.0067  0.0354
19362TIP3    H179501   5.353   6.355  16.366  0.0270 -1.3305 -1.4425
19362TIP3    H279502   5.489   6.359  16.299  1.3466  1.0555  1.1401
19363TIP3   OH279503   0.919   5.101   3.625  0.2691  1.0694 -0.7677
19363TIP3    H179504   0.943   5.146   3.544  2.4317 -0.5789 -1.1052
19363TIP3    H279505   0.986   5.127   3.688  1.1571 -1.0011 -0.7736
19364TIP3   OH279506   1.582   3.910   3.426  0.2288 -0.0242 -0.0743
19364TIP3    H179507   1.605   3.938   3.515  0.4063 -0.1532 -0.0783
19364TIP3    H279508   1.567   3.816   3.434  3.1908 -0.6382 -0.7295
19365TIP3   OH279509   6.590   1.565  10.551  0.5184  0.5885 -0.1430
19365TIP3    H179510   6.621   1.655  10.554 -0.0312  0.7766  1.5067
19365TIP3    H279511   6.630   1.523  10.628  1.3127 -0.7827 -1.2550
19366TIP3   OH279512   0.715   2.567  13.358 -0.2784  0.3022 -0.2833
19366TIP3    H179513   0.795   2.556  13.409 -0.0029  0.4431 -0.6772
19366TIP3    H279514   0.744   2.563  13.267 -0.4770  1.9202 -0.4611
19367TIP3   OH279515   1.027   4.479   0.463  0.0028  0.0494  0.2781
19367TIP3    H179516   0.935   4.506   0.466 -0.2930 -0.9513  0.5715
19367TIP3    H279517   1.036   4.434   0.379  0.4259  0.8188 -0.0942
19368TIP3   OH279518   1.493   5.114  12.144 -0.0428 -1.0688 -0.6240
19368TIP3    H179519   1.476   5.207  12.131 -0.5647 -1.1904 -0.8300
19368TIP3    H279520   1.506   5.079  12.056  0.3266 -1.1615 -0.5369
19369TIP3   OH279521   2.021   4.975   3.414  0.2073 -0.0355  0.2033
19369TIP3    H179522   1.949   4.989   3.475 -1.4233 -3.0072 -0.8234
19369TIP3    H279523   2.047   5.063   3.386 -1.7042  1.2136  2.0746
19370TIP3   OH279524   3.365   2.609  14.231 -0.0669  0.0634  0.3283
19370TIP3    H179525   3.301   2.589  14.163 -0.6354 -1.0205  1.1396
19370TIP3    H279526   3.355   2.703  14.247 -2.6022 -0.3016  1.5020
19371TIP3   OH279527   4.586   4.635  17.020 -0.2718  0.1480 -0.1754
19371TIP3    H179528   4.553   4.682  17.096 -0.5561 -1.4415  0.7131
19371TIP3    H279529   4.681   4.640  17.029 -0.3018 -0.2216  0.4293
19372TIP3   OH279530   6.600   0.461   1.281  0.3242 -0.4634  0.4873
19372TIP3    H179531   6.581   0.455   1.374 -1.1781  1.3793  0.3588
19372TIP3    H279532   6.541   0.529   1.248  4.3731  2.9457 -0.7930
19373TIP3   OH279533   4.133   6.244  12.634 -0.3233 -0.2350 -0.2176
19373TIP3    H179534   4.057   6.301  12.627 -1.0101 -1.1131 -0.0313
19373TIP3    H279535   4.103   6.170  12.686  1.3269  0.5488  2.0050
19374TIP3   OH279536   2.539   3.787  15.309 -0.2124  0.7430  0.1828
19374TIP3    H179537   2.496   3.758  15.229  0.8749  2.1635 -0.9557
19374TIP3    H279538   2.477   3.849  15.348  0.2243  1.8594 -0.8253
19375TIP3   OH279539   0.704   5.461  13.171  0.2740  0.6163 -0.1453
19375TIP3    H179540   0.717   5.427  13.083 -3.0508 -0.4845 -0.3613
19375TIP3    H279541   0.614   5.495  13.170  0.1928  0.7180  2.7607
19376TIP3   OH279542   2.546   2.730  12.527  0.0132  0.1427 -0.2110
19376TIP3    H179543   2.590   2.733  12.442 -0.0348 -0.7963 -0.2711
19376TIP3    H279544   2.493   2.810  12.529 -0.6345 -0.2248 -1.4209
19377TIP3   OH279545   6.301   5.309   6.073  0.0388 -0.7450 -0.2608
19377TIP3    H179546   6.333   5.345   6.156  1.4342 -1.2820 -0.5375
19377TIP3    H279547   6.206   5.320   6.077 -0.0130 -1.5533  1.7892
19378TIP3   OH279548   0.008   0.471  14.941 -0.0110  0.2206  0.0323
19378TIP3    H179549  -0.044   0.449  14.864  0.5955  0.3729 -0.4297
19378TIP3    H279550  -0.040   0.542  14.983  0.1105  0.7626 -0.7141
19379TIP3   OH279551   1.431   3.087  12.087  0.1400  0.4754  0.2883
19379TIP3    H179552   1.377   3.162  12.060 -0.5529  0.0430  0.4789
19379TIP3    H279553   1.390   3.055  12.167  0.6880  0.1508  0.4407
19380TIP3   OH279554   3.529   3.250  15.686 -0.5532  0.4137 -0.3768
19380TIP3    H179555   3.543   3.191  15.759 -0.7658 -0.1931 -0.8186
19380TIP3    H279556   3.576   3.330  15.710 -0.7240  0.2646  0.4702
19381TIP3   OH279557   4.048   3.470   0.513 -0.1649 -0.0445 -0.4670
19381TIP3    H179558   4.121   3.408   0.513  0.1418  0.3029 -1.6554
19381TIP3    H279559   4.025   3.481   0.421  0.0032  1.8655 -0.3104
19382TIP3   OH279560   2.349   3.335   5.098 -0.1255 -0.1333 -0.1032
19382TIP3    H179561   2.309   3.258   5.139 -0.2153  0.2701  0.5919
19382TIP3    H279562   2.432   3.346   5.145  0.0002  0.0543 -0.3664
19383TIP3   OH279563   6.076   1.483  16.956 -0.4552  0.1254 -0.2159
19383TIP3    H179564   6.107   1.568  16.988 -1.2437  0.2346  0.2916
19383TIP3    H279565   5.983   1.482  16.979  0.0770 -2.0228  2.2810
19384TIP3   OH279566   6.744   0.758   6.026 -0.1416 -0.2467 -0.5650
19384TIP3    H179567   6.665   0.704   6.024 -0.1576 -0.4566  2.0918
19384TIP3    H279568   6.712   0.845   6.051  0.4493 -0.3381  0.5446
19385TIP3   OH279569   4.243   1.238   1.574  0.3297 -0.0972  0.7226
19385TIP3    H179570   4.281   1.150   1.570  1.6075  0.4671 -0.7417
19385TIP3    H279571   4.149   1.224   1.571  0.3518 -1.5106  3.3688
19386TIP3   OH279572   5.994   2.210  15.389 -0.6167 -0.1563 -0.2221
19386TIP3    H179573   5.934   2.155  15.338 -0.2408 -1.3299  0.5750
19386TIP3    H279574   5.971   2.192  15.480  0.6183 -0.2522  0.0799
19387TIP3   OH279575   2.130   0.084   4.845  0.2238  0.3662 -0.2541
19387TIP3    H179576   2.117   0.160   4.790  2.3027  0.0649 -1.2322
19387TIP3    H279577   2.069   0.096   4.918 -0.2891  2.3666 -0.9745
19388TIP3   OH279578   4.705   3.694   4.355 -0.0023 -0.7038  0.2295
19388TIP3    H179579   4.693   3.658   4.267 -0.7152 -1.6796  0.7077
19388TIP3    H279580   4.795   3.726   4.356 -0.6070  1.2741 -1.5374
19389TIP3   OH279581   0.802   4.215   1.708  0.3894 -0.7817  0.1949
19389TIP3    H179582   0.788   4.183   1.619  0.0896  0.5475 -0.2641
19389TIP3    H279583   0.891   4.249   1.707 -0.3964  1.4305 -0.3486
19390TIP3   OH279584   1.070   5.111  16.508  0.2521  0.1909 -0.5042
19390TIP3    H179585   1.024   5.083  16.429 -1.6288  4.3211 -1.1669
19390TIP3    H279586   1.011   5.088  16.579 -1.2841  2.1509 -1.0355
19391TIP3   OH279587   3.315   0.213   6.020 -0.7073  1.2771 -0.3837
19391TIP3    H179588   3.271   0.229   6.104 -0.1023  0.5271  0.0888
19391TIP3    H279589   3.246   0.180   5.963 -1.0631  1.5058 -0.0891
19392TIP3   OH279590   2.269   0.599  13.609 -0.5394  0.2133  0.0554
19392TIP3    H179591   2.256   0.515  13.566  1.0080 -0.0439  0.0382
19392TIP3    H279592   2.190   0.649  13.588 -1.5693 -1.2860  0.2352
19393TIP3   OH279593   5.191   1.013   5.299 -0.3249  0.3039  0.3744
19393TIP3    H179594   5.165   1.102   5.326 -0.6346  0.0495  0.9243
19393TIP3    H279595   5.271   0.996   5.348 -0.7614 -0.0695  0.9687
19394TIP3   OH279596   1.649   5.559  12.259  0.3917 -0.3318 -0.0092
19394TIP3    H179597   1.611   5.623  12.198  1.8049 -0.3463 -0.9593
19394TIP3    H279598   1.638   5.599  12.345  0.7855  0.9752 -0.5354
19395TIP3   OH279599   1.480   1.840   5.244 -0.2913  0.2542 -0.3525
19395TIP3    H179600   1.413   1.810   5.305  0.7368 -0.9450  0.2389
19395TIP3    H279601   1.562   1.806   5.280  0.4545  0.3184 -1.9072
19396TIP3   OH279602   3.580   3.076  12.287  0.1476 -0.0634 -0.5569
19396TIP3    H179603   3.583   2.984  12.263 -0.7674  0.1299 -1.4970
19396TIP3    H279604   3.672   3.101  12.299  0.4261 -0.9700 -0.7385
19397TIP3   OH279605   5.487   5.964   1.950 -0.0127 -0.0440  0.1298
19397TIP3    H179606   5.457   5.921   2.030 -1.2310  0.0806 -0.2300
19397TIP3    H279607   5.406   5.984   1.903  0.6910 -0.4828 -1.3205
19398TIP3   OH279608   1.931   2.857   1.211 -0.1758 -0.3856 -0.4122
19398TIP3    H179609   1.919   2.856   1.306 -1.2258  1.6291 -0.4633
19398TIP3    H279610   2.022   2.882   1.198 -0.7016  1.9646  0.1123
19399TIP3   OH279611   6.329   5.946  14.675 -0.3772  0.3938  0.7823
19399TIP3    H179612   6.354   5.923  14.585  0.5036  1.2288  0.7939
19399TIP3    H279613   6.289   6.032  14.667 -1.1053  0.0850  1.0822
19400TIP3   OH279614   2.502   2.886   3.304  0.6738 -0.4924 -0.5677
19400TIP3    H179615   2.516   2.977   3.278 -0.0931 -0.0367  0.5619
19400TIP3    H279616   2.542   2.880   3.391  0.7922 -1.2602 -0.6711
19401TIP3   OH279617   2.803   1.352  14.992  0.6496  0.2622 -0.1421
19401TIP3    H179618   2.738   1.284  14.972  1.1237 -0.7735  1.5669
19401TIP3    H279619   2.848   1.368  14.909  0.3754 -1.3680 -0.6419
19402TIP3   OH279620   0.572   2.377  14.085  0.3210  0.3040  0.4559
19402TIP3    H179621   0.609   2.452  14.038  0.3855  0.1765  0.3000
19402TIP3    H279622   0.478   2.383  14.069  0.2166  0.8904  1.2311
19403TIP3   OH279623   3.759   3.435  12.925  0.0472 -0.2479  0.4522
19403TIP3    H179624   3.682   3.381  12.909  0.0645 -0.8341  2.1892
19403TIP3    H279625   3.807   3.433  12.843 -1.0341 -1.1020 -0.1861
19404TIP3   OH279626   4.909   0.157   4.633  0.3528 -0.0729  0.1624
19404TIP3    H179627   4.998   0.190   4.637  0.7450 -0.6539 -2.3901
19404TIP3    H279628   4.902   0.097   4.707  1.2787  1.6722  1.7606
19405TIP3   OH279629   0.374   4.542  16.175  0.2708 -0.1749 -0.7328
19405TIP3    H179630   0.450   4.561  16.229 -1.1358  1.9862  0.6733
19405TIP3    H279631   0.343   4.457  16.205  0.6148  0.1534  0.5894
19406TIP3   OH279632   6.462   1.995   2.229  0.1799 -0.1032 -0.0698
19406TIP3    H179633   6.511   1.950   2.160 -0.2259  0.5240 -0.7822
19406TIP3    H279634   6.372   1.966   2.216 -0.0250  0.6384 -0.3108
19407TIP3   OH279635   0.781   3.704   0.082 -0.3353  0.9473  0.3524
19407TIP3    H179636   0.760   3.646   0.155  0.9746  0.6501  0.5194
19407TIP3    H279637   0.806   3.646   0.010 -1.3349  1.2480 -0.2575
19408TIP3   OH279638   6.292   3.714   0.416  0.1182  0.3637 -0.0694
19408TIP3    H179639   6.201   3.741   0.422  0.5549  2.1849 -0.7705
19408TIP3    H279640   6.304   3.650   0.485 -1.1307  1.7790  1.5368
19409TIP3   OH279641   5.043   4.912   0.575 -0.3702 -0.1293 -0.5111
19409TIP3    H179642   5.015   4.820   0.571 -0.5753 -0.0251 -1.9985
19409TIP3    H279643   5.119   4.912   0.633  0.1366 -1.3719 -1.1540
19410TIP3   OH279644   0.743   3.258   5.938 -0.4479  0.9235 -0.1706
19410TIP3    H179645   0.737   3.225   5.848  0.8609 -2.1663  0.7378
19410TIP3    H279646   0.652   3.272   5.965 -1.0331 -0.7911 -1.1103
19411TIP3   OH279647   3.195   4.143  11.739 -0.4434 -0.5809  0.2368
19411TIP3    H179648   3.285   4.152  11.709 -0.4219 -0.6480  0.2803
19411TIP3    H279649   3.149   4.099  11.668 -0.0581 -2.0782  0.8867
19412TIP3   OH279650   2.582   5.993   3.859  0.1240  0.5891 -0.0475
19412TIP3    H179651   2.668   6.026   3.833  0.0780 -1.0687 -2.7054
19412TIP3    H279652   2.528   6.005   3.781 -1.3920 -0.5696  0.7688
19413TIP3   OH279653   0.752   6.179   5.710  0.0097  0.0760  0.1652
19413TIP3    H179654   0.749   6.088   5.740 -2.1441  0.5749  1.6432
19413TIP3    H279655   0.759   6.173   5.615  0.0636 -1.6202  0.2487
19414TIP3   OH279656   5.299   3.947   5.687 -0.5534 -0.4335 -0.0404
19414TIP3    H179657   5.288   4.041   5.678  0.0056 -0.3636 -0.0632
19414TIP3    H279658   5.394   3.935   5.692 -0.5898 -1.0495 -0.6530
19415TIP3   OH279659   0.202   2.161  15.010 -0.0764 -0.1135 -0.7297
19415TIP3    H179660   0.133   2.222  14.988 -0.8620 -0.2935  1.0570
19415TIP3    H279661   0.168   2.075  14.984  0.1714 -0.0328 -1.3407
19416TIP3   OH279662   0.381   0.997   0.401  0.0462 -0.4785 -0.2307
19416TIP3    H179663   0.383   1.068   0.465  0.3181 -0.6296 -0.0692
19416TIP3    H279664   0.472   0.970   0.393 -0.0075 -0.5609 -0.5707
19417TIP3   OH279665   1.424   2.258  12.668 -0.1478  0.0605  0.4562
19417TIP3    H179666   1.388   2.342  12.698 -1.3086 -0.6060  0.9822
19417TIP3    H279667   1.415   2.261  12.573  0.5616  0.8518  0.3992
19418TIP3   OH279668   3.964   3.053   6.129 -0.3719 -0.0213 -0.3981
19418TIP3    H179669   4.054   3.033   6.154 -0.7927  0.5939  1.7991
19418TIP3    H279670   3.951   3.144   6.157 -1.0295  0.6514 -2.6902
19419TIP3   OH279671   0.967   1.188   5.026  0.3937  0.5375 -0.1095
19419TIP3    H179672   1.033   1.256   5.007  0.6378 -0.2489 -2.2275
19419TIP3    H279673   0.999   1.147   5.107  2.3139  0.4556 -0.8506
19420TIP3   OH279674   5.091   0.196  16.638 -0.6211 -0.3590 -0.5421
19420TIP3    H179675   5.121   0.248  16.563  0.2887  1.3288  0.9070
19420TIP3    H279676   5.132   0.110  16.625 -1.3100 -0.4483 -2.4653
19421TIP3   OH279677   5.983   2.683   6.096  0.2157  0.4470 -0.0147
19421TIP3    H179678   5.963   2.776   6.084  0.6536  0.7645  1.4662
19421TIP3    H279679   6.078   2.679   6.104  0.2471 -0.2108 -0.6225
19422TIP3   OH279680   2.198   5.042   3.687  0.4319  0.0241  0.1343
19422TIP3    H179681   2.203   5.058   3.593  0.0229 -0.7450 -0.0280
19422TIP3    H279682   2.165   4.953   3.695 -1.2212  0.6511  0.9996
19423TIP3   OH279683   4.985   5.416  12.355  0.3027 -0.3034 -0.2849
19423TIP3    H179684   5.061   5.464  12.388  1.6107 -3.1147  1.0761
19423TIP3    H279685   4.935   5.393  12.433  0.1287 -1.7992 -0.8124
19424TIP3   OH279686   3.151   5.628  16.601 -0.3865 -0.0544  0.3074
19424TIP3    H179687   3.072   5.652  16.554  0.0814  0.8159 -0.0594
19424TIP3    H279688   3.219   5.625  16.534  0.3066  1.2955  0.9135
19425TIP3   OH279689   6.153   0.065  10.274  0.6581  0.3230 -0.0051
19425TIP3    H179690   6.091   0.017  10.328  0.5568 -1.4540 -1.5938
19425TIP3    H279691   6.237   0.021  10.289  0.8481  0.5183 -0.4742
19426TIP3   OH279692   6.021   1.786  12.658  0.3275 -0.2847  0.6952
19426TIP3    H179693   5.992   1.739  12.737 -0.3571 -1.1245 -0.0361
19426TIP3    H279694   5.995   1.877  12.674  0.9956 -0.2717  1.8121
19427TIP3   OH279695   2.029   0.216   5.342  0.2587 -0.0155  0.3953
19427TIP3    H179696   2.016   0.167   5.261  3.1553  2.4474 -1.7924
19427TIP3    H279697   2.059   0.151   5.406 -1.3177 -1.8928 -0.6963
19428TIP3   OH279698   6.266   2.667  16.325  0.1249  0.0500 -0.4661
19428TIP3    H179699   6.328   2.603  16.361  0.3555  0.4255 -0.1939
19428TIP3    H279700   6.320   2.740  16.297 -0.2260  0.5426  0.1169
19429TIP3   OH279701   4.155   5.313  11.853  0.3288  0.1184  0.5490
19429TIP3    H179702   4.186   5.236  11.901  1.1476  0.6022  0.7977
19429TIP3    H279703   4.230   5.373  11.851 -0.2578  0.8551  0.2290
19430TIP3   OH279704   4.637   0.193  13.120 -0.1009 -0.3703 -0.5801
19430TIP3    H179705   4.566   0.255  13.104 -0.5574 -1.1130 -1.5529
19430TIP3    H279706   4.593   0.109  13.132  0.4371 -0.3613  1.7854
19431TIP3   OH279707   1.473   1.691   5.502  0.2379 -0.4293 -0.7050
19431TIP3    H179708   1.494   1.609   5.545 -0.0205 -0.4702 -0.6539
19431TIP3    H279709   1.552   1.714   5.453  1.3732  0.7582  1.5488
19432TIP3   OH279710   1.424   1.593   6.134 -0.4196  0.7161 -0.3058
19432TIP3    H179711   1.354   1.527   6.139  1.2218 -1.0318  2.1210
19432TIP3    H279712   1.396   1.662   6.194 -0.6508  0.6080 -0.2867
19433TIP3   OH279713   6.507   0.030  15.044  0.2970  0.0376 -0.0468
19433TIP3    H179714   6.549  -0.052  15.016  1.9860  1.0085 -0.4788
19433TIP3    H279715   6.544   0.048  15.130  0.2791  0.5818 -0.1489
19434TIP3   OH279716   3.886   2.630  14.423  0.4624 -0.7744 -0.4416
19434TIP3    H179717   3.929   2.710  14.453  0.3343  0.3593 -3.0256
19434TIP3    H279718   3.958   2.573  14.396  0.4914 -0.8685 -0.1715
19435TIP3   OH279719   1.964   3.257  12.174  0.0542  0.2426 -0.6097
19435TIP3    H179720   1.902   3.255  12.247 -0.2228 -0.6286 -0.8636
19435TIP3    H279721   1.917   3.216  12.101  0.8043 -0.1019 -0.9082
19436TIP3   OH279722   5.714   6.764  15.219  0.1584  0.3369  0.0398
19436TIP3    H179723   5.736   6.709  15.295 -0.4135 -1.9007 -1.3285
19436TIP3    H279724   5.731   6.708  15.143 -1.7797  1.5675 -1.3961
19437TIP3   OH279725   3.351   1.449   1.300 -0.1968  0.2821  0.1197
19437TIP3    H179726   3.356   1.365   1.254 -0.6130  0.3617 -0.0750
19437TIP3    H279727   3.391   1.512   1.239 -1.6280  0.5627 -0.5741
19438TIP3   OH279728   1.982   5.166   5.454 -0.1820  0.1991  0.4329
19438TIP3    H179729   1.910   5.152   5.516 -1.8140 -0.5612 -1.5534
19438TIP3    H279730   1.940   5.197   5.374  1.5217 -1.6302 -1.2800
19439TIP3   OH279731   3.333   6.308   5.126  0.0324  0.3970  0.0332
19439TIP3    H179732   3.327   6.345   5.214  0.4736 -2.7655  1.5400
19439TIP3    H279733   3.346   6.383   5.069  0.2756  2.5362  2.7176
19440TIP3   OH279734   2.572   3.690  10.697  0.2997 -0.6754 -0.1140
19440TIP3    H179735   2.662   3.696  10.730 -0.3648  2.0464  1.4441
19440TIP3    H279736   2.558   3.772  10.650 -0.6788 -2.0740 -2.4677
19441TIP3   OH279737   3.664   1.888   3.772  0.1801  0.3420 -0.3097
19441TIP3    H179738   3.621   1.847   3.697  1.2616  0.5967 -1.0888
19441TIP3    H279739   3.682   1.978   3.744 -0.7285  0.8986  0.8027
19442TIP3   OH279740   2.896   4.307   0.804 -0.6327 -0.6065  0.3895
19442TIP3    H179741   2.838   4.321   0.878  1.1747 -1.4551  2.0597
19442TIP3    H279742   2.904   4.211   0.798 -0.5021 -0.5377 -0.6859
19443TIP3   OH279743   4.305   4.644   2.279 -0.2211 -0.7386  0.2537
19443TIP3    H179744   4.244   4.658   2.206 -1.3162 -1.0259  1.0776
19443TIP3    H279745   4.268   4.696   2.351  1.0065 -0.2145  0.5232
19444TIP3   OH279746   3.344   0.704   4.900  0.1511 -0.3708 -0.6766
19444TIP3    H179747   3.271   0.753   4.937  2.2047  1.8739  0.6688
19444TIP3    H279748   3.375   0.649   4.972  0.7885 -0.0626 -0.7061
19445TIP3   OH279749   2.316   6.016  11.422 -0.1013  0.0407 -0.2444
19445TIP3    H179750   2.240   6.015  11.480  0.5853  0.3668  0.6876
19445TIP3    H279751   2.356   6.102  11.438  0.6251 -0.2477 -0.5074
19446TIP3   OH279752   2.857   5.516  15.747  0.1468  0.0661  0.0694
19446TIP3    H179753   2.909   5.470  15.681  1.2850  1.1084  0.1999
19446TIP3    H279754   2.920   5.537  15.816 -1.1225 -1.5952  1.8618
19447TIP3   OH279755   1.928   0.364  15.633 -0.3112  0.0784 -0.1178
19447TIP3    H179756   1.847   0.414  15.620 -0.3486 -0.3044 -1.5510
19447TIP3    H279757   1.998   0.425  15.608 -0.0849  0.5987  1.6621
19448TIP3   OH279758   4.965   2.972  10.589  0.3422  0.2970  0.4614
19448TIP3    H179759   5.047   2.924  10.603 -0.4341 -2.2692 -2.6050
19448TIP3    H279760   4.987   3.039  10.524  0.2128  0.2491  0.3675
19449TIP3   OH279761   6.357   2.649   3.185  0.2412 -0.1391  0.2582
19449TIP3    H179762   6.384   2.683   3.100 -0.8649  1.8459  0.6213
19449TIP3    H279763   6.410   2.698   3.248  0.6867 -1.2254  0.7397
19450TIP3   OH279764   4.057   0.896   4.577  0.1923  0.0308 -0.0498
19450TIP3    H179765   4.116   0.838   4.530  0.0407 -1.1698  1.1605
19450TIP3    H279766   3.999   0.931   4.509  0.4456 -1.0511 -0.8603
19451TIP3   OH279767   5.398   6.504   6.265 -0.0661 -0.1559  0.3054
19451TIP3    H179768   5.455   6.495   6.341 -1.2095 -0.1380  1.1840
19451TIP3    H279769   5.433   6.580   6.217 -1.2491  1.9621  2.5739
19452TIP3   OH279770   6.449   2.846  16.250  0.1368 -0.6036  0.2175
19452TIP3    H179771   6.513   2.810  16.188 -1.5204 -0.3064 -1.7850
19452TIP3    H279772   6.478   2.935  16.266  0.3963 -0.5654 -0.4386
19453TIP3   OH279773   4.875   4.095   2.932  0.4071  0.9737 -0.2939
19453TIP3    H179774   4.830   4.063   3.010 -0.0699  2.5781  0.1270
19453TIP3    H279775   4.924   4.171   2.962  4.2449 -1.1237 -0.5372
19454TIP3   OH279776   1.059   2.046   1.940 -0.5869 -0.3677 -0.6877
19454TIP3    H179777   1.053   1.951   1.932  0.0055 -0.3963 -0.8012
19454TIP3    H279778   0.996   2.069   2.009  0.9594 -1.0927  1.0636
19455TIP3   OH279779   1.295   5.220   2.042 -0.0669 -0.0096  0.0222
19455TIP3    H179780   1.377   5.255   2.007  0.4873 -1.8203 -0.5787
19455TIP3    H279781   1.295   5.247   2.134  1.4540 -0.3578  0.1586
19456TIP3   OH279782   0.272   2.153   2.637  0.0088 -0.0735  0.2293
19456TIP3    H179783   0.194   2.099   2.622 -0.7354  1.0526 -0.0928
19456TIP3    H279784   0.244   2.218   2.702  1.1489 -0.5899  1.2851
19457TIP3   OH279785   2.934   6.647  11.267 -0.5866 -0.3234  0.1977
19457TIP3    H179786   2.862   6.707  11.288 -0.4699 -0.1536  0.1199
19457TIP3    H279787   2.967   6.619  11.353 -0.5075 -0.1110  0.2394
19458TIP3   OH279788   0.109   0.687   4.875  0.2215  0.6507 -0.2869
19458TIP3    H179789   0.199   0.667   4.848  0.4978  0.1506  0.9511
19458TIP3    H279790   0.072   0.734   4.800  0.9109 -0.7591 -1.5687
19459TIP3   OH279791   2.732   5.562   4.240  0.2543  0.1695 -0.3956
19459TIP3    H179792   2.721   5.657   4.243 -0.3652  0.1015 -0.3658
19459TIP3    H279793   2.765   5.540   4.327 -1.0954  0.1910  0.1516
19460TIP3   OH279794   2.278   5.265   1.359  0.2412  0.3068 -0.0604
19460TIP3    H179795   2.373   5.265   1.349  0.1993 -0.3075 -0.5352
19460TIP3    H279796   2.248   5.192   1.305 -0.5700  0.9845 -0.5464
19461TIP3   OH279797   1.651   5.024   2.056  0.0955 -0.4468  0.7468
19461TIP3    H179798   1.736   5.002   2.017  1.3744  1.1998  2.3944
19461TIP3    H279799   1.591   4.960   2.020  1.7538 -0.8733 -1.5313
19462TIP3   OH279800   2.523   1.017  16.270  0.0648  0.7987  0.2887
19462TIP3    H179801   2.463   1.036  16.198  0.4794 -1.2344 -0.6675
19462TIP3    H279802   2.467   0.986  16.341 -0.3179  2.5405  0.7947
19463TIP3   OH279803   4.740   4.930   0.578  0.2592  0.0129 -0.3157
19463TIP3    H179804   4.713   4.964   0.492 -0.3330 -0.3881 -0.2952
19463TIP3    H279805   4.836   4.933   0.576  0.3354 -1.6910 -1.7013
19464TIP3   OH279806   0.910   2.742  13.735 -0.3407 -0.7013  0.1519
19464TIP3    H179807   0.963   2.664  13.717  2.3115 -0.1570  4.2690
19464TIP3    H279808   0.856   2.717  13.810  0.5585  1.3490  1.5591
19465TIP3   OH279809   3.558   2.687   5.369  0.0662 -0.3101 -0.1241
19465TIP3    H179810   3.647   2.693   5.332 -0.3892  2.0510 -1.0088
19465TIP3    H279811   3.543   2.772   5.409 -2.6187  0.2505 -2.0416
19466TIP3   OH279812   3.489   2.052  13.615  0.2811  0.0931 -0.2440
19466TIP3    H179813   3.433   2.120  13.654 -1.7841  0.1860 -3.0663
19466TIP3    H279814   3.540   2.099  13.549 -0.0037 -0.8317 -1.1372
19467TIP3   OH279815   0.517   4.158  16.768  0.1645  0.3540  0.6199
19467TIP3    H179816   0.553   4.072  16.790  0.5428  0.2580 -0.3687
19467TIP3    H279817   0.504   4.201  16.853  1.5021 -0.0538  1.0444
19468TIP3   OH279818   0.162   0.571  14.566  1.1410  0.4357  0.1559
19468TIP3    H179819   0.157   0.484  14.606 -0.3648  0.3732 -0.1172
19468TIP3    H279820   0.154   0.555  14.472  1.9263  0.7967  0.0204
19469TIP3   OH279821   2.099   1.004   3.051  0.3358 -0.5949 -0.5694
19469TIP3    H179822   2.012   1.035   3.077  0.6973  1.8866 -2.0456
19469TIP3    H279823   2.091   0.987   2.957  1.2224 -1.2921 -0.5354
19470TIP3   OH279824   6.034   6.118  13.031 -0.2530 -0.1916 -0.1595
19470TIP3    H179825   6.004   6.201  12.995 -0.6025 -1.0969 -2.0933
19470TIP3    H279826   6.019   6.125  13.125  0.1013  2.0644 -0.2308
19471TIP3   OH279827   0.605   3.333  14.648 -0.1873  0.2697 -0.4477
19471TIP3    H179828   0.531   3.369  14.598 -0.6870  1.1796  0.9044
19471TIP3    H279829   0.566   3.265  14.702 -0.0099  0.6123  0.1183
19472TIP3   OH279830   4.050   2.899  11.293 -0.7129  0.4941 -0.2614
19472TIP3    H179831   4.062   2.985  11.253 -2.3968  0.7162 -0.3549
19472TIP3    H279832   4.046   2.838  11.219 -2.0364  0.6761 -0.3574
19473TIP3   OH279833   4.137   4.299   0.916  0.3687 -0.0360  0.3043
19473TIP3    H179834   4.192   4.376   0.925  0.7331 -0.2281 -0.2352
19473TIP3    H279835   4.198   4.227   0.899  0.0423 -0.4623  0.9130
19474TIP3   OH279836   4.851   1.861   3.024 -0.4075  0.1267 -0.3622
19474TIP3    H179837   4.937   1.868   2.983 -0.1999  1.0895  0.1994
19474TIP3    H279838   4.841   1.768   3.044 -0.1655 -0.2374 -1.8219
19475TIP3   OH279839   1.499   4.095   4.382 -0.0192  0.0882  0.3645
19475TIP3    H179840   1.553   4.114   4.305 -1.9135  0.4552 -0.9548
19475TIP3    H279841   1.531   4.011   4.414  0.9885  0.0571 -0.6502
19476TIP3   OH279842   6.573   4.150   5.362 -0.1457  0.5015 -0.0625
19476TIP3    H179843   6.661   4.113   5.349 -0.8391 -0.9052 -0.9834
19476TIP3    H279844   6.564   4.214   5.291 -0.5173 -0.6521 -1.0874
19477TIP3   OH279845   5.078   0.179   5.720  0.3479  0.0248  0.4996
19477TIP3    H179846   5.046   0.211   5.804 -0.0241 -1.1422  0.8247
19477TIP3    H279847   5.008   0.123   5.687 -0.2492  1.7833 -1.4348
19478TIP3   OH279848   1.925   4.107   1.887 -0.1748  0.0423 -0.4086
19478TIP3    H179849   1.941   4.192   1.926  0.9371 -0.2985 -0.0974
19478TIP3    H279850   1.899   4.126   1.796 -0.2639  0.7120 -0.2457
19479TIP3   OH279851   2.488   3.203   1.058 -0.4859  0.6432  0.0129
19479TIP3    H179852   2.574   3.172   1.084  0.2603  1.6839 -1.1375
19479TIP3    H279853   2.437   3.123   1.044  0.5224 -0.0037 -0.0636
19480TIP3   OH279854   4.287   2.977  13.174 -0.3190  0.3837  0.2380
19480TIP3    H179855   4.246   2.994  13.090  0.9569 -0.4370 -0.5769
19480TIP3    H279856   4.294   2.882  13.180 -1.4249  0.3620  1.8051
19481TIP3   OH279857   6.429   6.609   0.314  0.3147  0.5978 -0.3004
19481TIP3    H179858   6.474   6.631   0.232  0.3565  0.5993 -0.2768
19481TIP3    H279859   6.366   6.680   0.326 -0.6852 -0.1219 -1.0796
19482TIP3   OH279860   6.204   1.364  12.931  0.5460  0.2155 -0.0735
19482TIP3    H179861   6.161   1.281  12.951 -0.4688  0.7880  0.1713
19482TIP3    H279862   6.296   1.349  12.954  0.3015 -0.7028  0.3608
19483TIP3   OH279863   1.283   5.891   1.293 -0.0954 -0.1781  0.3587
19483TIP3    H179864   1.211   5.852   1.343  0.1785 -1.2696 -0.0562
19483TIP3    H279865   1.241   5.951   1.232 -0.6197 -0.4767  0.4228
19484TIP3   OH279866   4.915   0.111  12.789  0.4141  0.6098  0.4534
19484TIP3    H179867   4.927   0.206  12.793  0.4873  0.6320 -0.1092
19484TIP3    H279868   4.994   0.079  12.747  0.3666  0.3030  0.5981
19485TIP3   OH279869   4.071   4.886   3.530 -0.0343 -0.1256  0.2325
19485TIP3    H179870   4.144   4.947   3.528 -0.7792  0.8087  0.6551
19485TIP3    H279871   4.109   4.804   3.562  0.9011  0.2282  0.0581
19486TIP3   OH279872   5.767   0.133  10.933 -0.3257 -0.6189 -0.0052
19486TIP3    H179873   5.682   0.155  10.895 -0.5524 -0.3246  0.6610
19486TIP3    H279874   5.750   0.124  11.027  0.8220  1.9142  0.5191
19487TIP3   OH279875   4.120   4.158  16.162 -0.4892  0.2764  0.4792
19487TIP3    H179876   4.205   4.130  16.195  0.6221 -0.8497 -2.8711
19487TIP3    H279877   4.137   4.243  16.122 -0.3588 -0.7506 -1.8379
19488TIP3   OH279878   2.559   1.474   0.625  0.0456  0.1908  0.1774
19488TIP3    H179879   2.588   1.559   0.657  0.0106  0.5312 -0.6696
19488TIP3    H279880   2.622   1.450   0.557  0.2352 -0.6125  0.6181
19489TIP3   OH279881   3.663   1.940   2.421 -0.7572 -0.2321 -0.2681
19489TIP3    H179882   3.603   1.934   2.347 -0.5173 -1.6214 -0.3608
19489TIP3    H279883   3.619   1.893   2.491 -0.8343  0.7975  0.3997
19490TIP3   OH279884   4.075   3.551  15.035  0.2072 -0.2144  0.5198
19490TIP3    H179885   4.051   3.459  15.023 -0.2446 -0.3271  2.1083
19490TIP3    H279886   4.090   3.560  15.129  0.5102  1.2833  0.3531
19491TIP3   OH279887   0.719   3.352  12.347 -0.5666 -0.1978  0.1637
19491TIP3    H179888   0.656   3.354  12.276 -0.5392 -1.8067  0.0586
19491TIP3    H279889   0.678   3.299  12.415  0.6030 -1.2140  0.1233
19492TIP3   OH279890   3.094   3.151   2.765 -0.6676 -0.2809  0.3306
19492TIP3    H179891   3.050   3.233   2.790  0.5320  0.2385  0.8570
19492TIP3    H279892   3.187   3.175   2.760 -0.2939 -1.6158  0.5071
19493TIP3   OH279893   3.470   1.575  14.625 -1.0559  0.1686  0.1009
19493TIP3    H179894   3.419   1.611  14.552 -0.6404 -0.3188 -0.4360
19493TIP3    H279895   3.416   1.505  14.660  0.4712 -2.4581 -2.4246
19494TIP3   OH279896   0.789   3.111  10.470 -0.0360 -0.1657 -0.6533
19494TIP3    H179897   0.787   3.079  10.560  1.0835  1.6887  0.0853
19494TIP3    H279898   0.840   3.045  10.423  1.0162 -0.2178  0.5051
19495TIP3   OH279899   2.369   1.143  14.665 -0.2640  0.2517  0.3286
19495TIP3    H179900   2.447   1.196  14.678  0.2395 -1.0144  3.3317
19495TIP3    H279901   2.300   1.188  14.714 -1.1213  0.6756 -1.2142
19496TIP3   OH279902   6.446   2.134   3.300  0.0231 -0.0899 -0.2765
19496TIP3    H179903   6.507   2.171   3.364  1.4565  0.8031 -2.0571
19496TIP3    H279904   6.416   2.210   3.249 -0.6550 -0.8312 -1.0214
19497TIP3   OH279905   1.255   2.030   1.039  0.1762 -0.9775 -0.1925
19497TIP3    H179906   1.162   2.020   1.059  0.1096 -0.0601 -0.0119
19497TIP3    H279907   1.261   2.111   0.989  1.0822 -0.0659  1.2959
19498TIP3   OH279908   1.970   0.362   4.699 -0.2139  0.2402 -0.9862
19498TIP3    H179909   1.976   0.356   4.604 -0.6066  0.0251 -0.9989
19498TIP3    H279910   1.886   0.322   4.721 -0.2325  0.4986 -0.5668
19499TIP3   OH279911   6.359   3.252   0.538 -0.3855 -0.5446  0.1564
19499TIP3    H179912   6.323   3.258   0.627  1.3787 -0.2182  0.8991
19499TIP3    H279913   6.353   3.341   0.504 -0.7613 -0.5994  0.0820
19500TIP3   OH279914   5.961   3.421   2.022  0.1741 -0.6916  0.3227
19500TIP3    H179915   5.983   3.440   1.931 -1.2567  1.8237  0.4272
19500TIP3    H279916   5.903   3.344   2.017 -2.6418  1.3499 -1.3177
19501TIP3   OH279917   4.702   4.877  11.364  0.1069  0.1993 -0.0290
19501TIP3    H179918   4.765   4.837  11.305  1.1334 -0.4122  1.4292
19501TIP3    H279919   4.751   4.892  11.445 -1.4910  0.1469  0.9874
19502TIP3   OH279920   4.252   3.742  17.328 -0.3392 -0.5842  0.3155
19502TIP3    H179921   4.162   3.715  17.310 -1.2154  0.1606  3.0871
19502TIP3    H279922   4.270   3.810  17.264 -2.3724  0.3800  0.7024
19503TIP3   OH279923   0.298   5.614   4.525  0.2119  0.2837  0.5487
19503TIP3    H179924   0.380   5.646   4.564  0.7730  0.6103 -0.8478
19503TIP3    H279925   0.288   5.666   4.446 -0.2173 -1.2349 -0.4287
19504TIP3   OH279926   3.483   6.582   2.494 -0.0462  0.1032  0.2685
19504TIP3    H179927   3.548   6.513   2.485 -1.1692 -1.0100  0.3670
19504TIP3    H279928   3.461   6.584   2.587 -0.3314  0.2910  0.2017
19505TIP3   OH279929   1.291   3.564  12.027 -0.1483  0.0836  0.4348
19505TIP3    H179930   1.299   3.631  11.958 -0.3750 -0.8830 -0.5511
19505TIP3    H279931   1.276   3.614  12.107 -0.9597  1.1870 -0.3825
19506TIP3   OH279932   5.473   4.987   2.448  0.8796 -0.0940 -0.3316
19506TIP3    H179933   5.423   4.911   2.417 -0.7583  1.3863 -1.4838
19506TIP3    H279934   5.518   5.021   2.371 -0.5968  1.6774 -0.4769
19507TIP3   OH279935   3.799   3.899   4.986  0.7963  0.3902 -0.1940
19507TIP3    H179936   3.813   3.991   5.006 -0.8086  0.5442  0.3992
19507TIP3    H279937   3.704   3.892   4.970  0.9587 -1.0652 -0.6980
19508TIP3   OH279938   4.162   6.684  15.730  0.2786 -0.2602  0.0014
19508TIP3    H179939   4.141   6.614  15.792 -2.7202 -0.8054 -1.4161
19508TIP3    H279940   4.152   6.643  15.644 -0.2998  1.5889 -0.8571
19509TIP3   OH279941   6.271   0.170  15.738 -0.2129 -0.1767 -0.6911
19509TIP3    H179942   6.301   0.236  15.676 -2.1982 -0.1144 -1.6569
19509TIP3    H279943   6.281   0.212  15.824 -1.2871  1.3674 -1.2744
19510TIP3   OH279944   5.174   4.989  12.109  0.5625 -0.7614 -0.0294
19510TIP3    H179945   5.115   5.051  12.067  1.1074 -0.0093  0.2933
19510TIP3    H279946   5.261   5.023  12.092  0.9183 -1.9244 -0.5946
19511TIP3   OH279947   0.796   0.089  11.092  0.0749  0.5075  0.2476
19511TIP3    H179948   0.746   0.021  11.047 -0.0662  1.0344 -0.4209
19511TIP3    H279949   0.763   0.171  11.054 -0.0507  0.9760  1.3171
19512TIP3   OH279950   4.164   2.514   5.813 -0.3052 -1.2394 -0.0647
19512TIP3    H179951   4.247   2.499   5.858  0.3451 -1.6344 -1.3492
19512TIP3    H279952   4.155   2.610   5.810  0.9037 -1.1440 -1.3041
19513TIP3   OH279953   2.378   4.738   1.787 -0.2066  0.0596  0.2934
19513TIP3    H179954   2.309   4.775   1.841 -0.3301  1.1480 -0.5637
19513TIP3    H279955   2.372   4.643   1.800 -1.3184  0.2012  0.8634
19514TIP3   OH279956   3.435   6.659   3.407  0.4885  0.3430  0.0532
19514TIP3    H179957   3.518   6.658   3.359  0.9118 -1.9253  0.6821
19514TIP3    H279958   3.461   6.661   3.499 -0.1999  0.8069  0.2391
19515TIP3   OH279959   3.033   5.722   0.641 -0.1070 -0.1786  0.3013
19515TIP3    H179960   3.105   5.682   0.689 -0.2781 -0.5354  0.2663
19515TIP3    H279961   3.076   5.773   0.572  0.0974 -1.1614 -0.3167
19516TIP3   OH279962   5.130   6.715   5.252 -0.5554  0.6767 -0.5018
19516TIP3    H179963   5.206   6.682   5.299 -1.2198  0.2922  0.3464
19516TIP3    H279964   5.165   6.753   5.172  0.3456 -1.0413 -0.9575
19517TIP3   OH279965   5.691   2.487   4.102  0.3167  0.4761  0.2671
19517TIP3    H179966   5.735   2.405   4.080 -0.0393  0.5583 -0.7968
19517TIP3    H279967   5.707   2.544   4.027 -0.5996  0.9059  0.3887
19518TIP3   OH279968   6.359   6.446  16.818  0.1884 -0.2334 -0.0130
19518TIP3    H179969   6.270   6.480  16.815 -0.4238 -1.8129 -0.5701
19518TIP3    H279970   6.410   6.517  16.858 -1.0189  1.2693 -1.0208
19519TIP3   OH279971   0.751   5.342  14.744  0.0625  0.1657  0.2721
19519TIP3    H179972   0.836   5.384  14.752  0.0491  0.0450  1.2057
19519TIP3    H279973   0.689   5.413  14.732  0.3385  0.2253 -0.8744
19520TIP3   OH279974   2.981   2.339   1.432 -0.9040  0.3013  0.4357
19520TIP3    H179975   2.904   2.304   1.475 -0.5838 -0.8566  0.0885
19520TIP3    H279976   3.020   2.398   1.496 -2.6276  1.7301  0.2496
19521TIP3   OH279977   3.782   2.008  14.930  0.6224  0.6273  0.3326
19521TIP3    H179978   3.772   1.919  14.965 -0.1787  0.3500 -0.5611
19521TIP3    H279979   3.717   2.059  14.978 -1.9666 -0.1669 -2.0127
19522TIP3   OH279980   3.862   4.277   2.506 -0.0078  0.3894 -0.1342
19522TIP3    H179981   3.798   4.340   2.540  1.6300  2.5496 -0.7660
19522TIP3    H279982   3.920   4.258   2.579  0.0362  0.3583 -0.1767
19523TIP3   OH279983   0.039   3.984  13.551 -0.1980  0.2106 -0.4518
19523TIP3    H179984   0.090   4.015  13.625  0.2605 -0.2250 -0.5785
19523TIP3    H279985  -0.042   3.950  13.590 -0.0919  0.2671 -0.1804
19524TIP3   OH279986   3.618   0.054  15.987 -0.9068  0.0765 -0.2728
19524TIP3    H179987   3.579   0.047  16.074 -0.5677  1.3147 -0.0085
19524TIP3    H279988   3.543   0.055  15.928 -1.2307  0.8915  0.1308
19525TIP3   OH279989   5.401   5.166  11.993  0.2435  0.3496 -0.1219
19525TIP3    H179990   5.339   5.231  11.960  1.6247  0.7202 -2.1701
19525TIP3    H279991   5.482   5.214  12.008  0.7605 -0.5723  0.1372
19526TIP3   OH279992   2.923   3.387  14.183 -0.0944 -0.0363  0.3188
19526TIP3    H179993   2.963   3.474  14.188  0.5677 -0.3352  0.3643
19526TIP3    H279994   2.833   3.403  14.156 -0.1614  0.7134  0.9627
19527TIP3   OH279995   4.625   4.115  14.035 -0.1486 -0.0671  0.0065
19527TIP3    H179996   4.559   4.047  14.051  0.5373 -1.4656 -2.5270
19527TIP3    H279997   4.607   4.145  13.945  1.5026  0.8940 -0.0406
19528TIP3   OH279998   2.868   0.230   3.025  0.2749  0.7429 -0.3545
19528TIP3    H179999   2.811   0.273   3.089  1.2226 -0.4290  1.3597
19528TIP3    H280000   2.956   0.235   3.064  1.0343  0.7592 -1.9958
19529TIP3   OH280001   2.411   6.172   4.778 -0.3597  0.4938  0.1137
19529TIP3    H180002   2.356   6.171   4.856  0.7826 -2.3664  1.0073
19529TIP3    H280003   2.500   6.177   4.812  0.0995  1.0460 -1.1195
19530TIP3   OH280004   0.689   1.964   2.095  0.0729 -0.4784  0.4551
19530TIP3    H180005   0.687   2.023   2.019 -0.7500 -1.0583  0.0145
19530TIP3    H280006   0.598   1.961   2.125  0.5705  0.7032  2.2338
19531TIP3   OH280007   3.688   2.869  15.991 -0.0668  0.1746 -0.2914
19531TIP3    H180008   3.631   2.924  15.937  1.0515  3.4797  1.5977
19531TIP3    H280009   3.631   2.840  16.063 -0.2859  0.2468 -0.4323
19532TIP3   OH280010   5.391   1.009  15.529  0.3424  0.7101  0.5439
19532TIP3    H180011   5.396   1.102  15.554  0.4082  0.8349  0.0619
19532TIP3    H280012   5.379   1.010  15.434  0.7080  0.2154  0.4916
19533TIP3   OH280013   0.558   6.598   2.761 -0.0311 -0.6327  0.0952
19533TIP3    H180014   0.527   6.571   2.674 -1.6890  2.2166 -0.3297
19533TIP3    H280015   0.646   6.633   2.745 -0.4569  0.1804 -0.5135
19534TIP3   OH280016   2.736   2.921   5.947 -0.3347 -0.0610  0.1848
19534TIP3    H180017   2.801   2.982   5.982  0.0482 -0.3634  0.0139
19534TIP3    H280018   2.742   2.845   6.004  0.0787 -0.4360 -0.3433
19535TIP3   OH280019   2.912   6.183  15.458  0.2627 -0.6942  0.5398
19535TIP3    H180020   2.833   6.141  15.423 -0.1070 -1.0607  1.7691
19535TIP3    H280021   2.965   6.111  15.492  0.7880 -0.3830  0.3976
19536TIP3   OH280022   2.063   4.549   4.250  0.5594  0.1243 -0.2161
19536TIP3    H180023   2.104   4.471   4.211  0.4514 -1.0602  1.8709
19536TIP3    H280024   2.135   4.595   4.292  0.6108  1.1626 -1.3982
19537TIP3   OH280025   3.617   0.502  11.310 -0.1996  0.4021  0.3431
19537TIP3    H180026   3.668   0.572  11.269 -1.2290  0.8307 -0.2322
19537TIP3    H280027   3.608   0.436  11.242 -0.7576  0.5062  0.3161
19538TIP3   OH280028   6.557   6.171   3.246 -0.1793 -0.6526  0.0336
19538TIP3    H180029   6.642   6.182   3.205 -0.3187  0.1064 -0.0701
19538TIP3    H280030   6.522   6.089   3.209 -0.2959 -0.0016 -1.3517
19539TIP3   OH280031   1.446   5.751  17.056 -0.3038  0.1085  0.8794
19539TIP3    H180032   1.432   5.844  17.073 -3.3301 -0.2591  1.0083
19539TIP3    H280033   1.404   5.707  17.131 -1.1421 -1.3561 -0.3970
19540TIP3   OH280034   2.681   3.020  12.614 -0.1821  0.1946 -0.3054
19540TIP3    H180035   2.608   3.039  12.555  0.8410 -1.1409 -2.0870
19540TIP3    H280036   2.714   3.107  12.638  0.5365  0.8476 -3.2497
19541TIP3   OH280037   2.722   4.724   5.077  0.1832  0.0440  0.8906
19541TIP3    H180038   2.781   4.649   5.082  0.0519 -0.2510 -1.1854
19541TIP3    H280039   2.779   4.798   5.056 -0.0207 -0.0142  0.1126
19542TIP3   OH280040   2.030   3.006   3.963  0.9150  0.2500 -0.3293
19542TIP3    H180041   1.955   2.986   3.907  0.2075  2.0980 -0.1423
19542TIP3    H280042   2.100   3.032   3.903  2.2212 -3.4542 -0.6526
19543TIP3   OH280043   0.152   3.118  15.515 -0.2900  0.1713 -0.2964
19543TIP3    H180044   0.078   3.167  15.552 -1.0481 -0.0614 -1.4458
19543TIP3    H280045   0.196   3.181  15.458  0.8945  0.5398  0.9860
19544TIP3   OH280046   2.315   5.143  12.333  0.2917 -0.0878 -0.0820
19544TIP3    H180047   2.321   5.156  12.427  1.5615  0.0226 -0.1622
19544TIP3    H280048   2.297   5.231  12.298  1.3992  0.1605 -0.0522
19545TIP3   OH280049   2.960   1.574  14.309 -0.6068  0.0166  0.5951
19545TIP3    H180050   2.914   1.521  14.244 -1.5200  0.9237  0.4881
19545TIP3    H280051   3.010   1.637  14.257  2.3841 -2.0895  0.5872
19546TIP3   OH280052   1.841   6.373  14.516  0.3330  0.2354 -0.1588
19546TIP3    H180053   1.933   6.350  14.528  0.4090  0.1440 -0.8526
19546TIP3    H280054   1.822   6.435  14.586  1.3994  1.5421 -0.9674
19547TIP3   OH280055   6.563   0.980   4.270 -0.1528 -0.1857 -0.0671
19547TIP3    H180056   6.484   0.968   4.323  1.1956 -0.8468  1.9068
19547TIP3    H280057   6.579   0.894   4.231 -0.1439 -0.1760 -0.0844
19548TIP3   OH280058   1.731   0.337  14.816  0.1564  0.7759  0.5031
19548TIP3    H180059   1.708   0.419  14.772  2.4230  1.2133 -0.0322
19548TIP3    H280060   1.780   0.288  14.749 -1.4237 -1.1894  0.7089
19549TIP3   OH280061   1.404   2.349  11.435  0.2914 -0.1469  0.0074
19549TIP3    H180062   1.493   2.329  11.404  0.9892  0.8095  1.3187
19549TIP3    H280063   1.368   2.264  11.458  1.3047 -0.4523  0.5507
19550TIP3   OH280064   3.688   4.781  14.711 -0.2047  0.8338 -0.5249
19550TIP3    H180065   3.598   4.762  14.686  0.1063  1.1417 -1.9777
19550TIP3    H280066   3.741   4.730  14.650  0.6392 -0.5259  1.2452
19551TIP3   OH280067   1.667   5.027  15.936  0.3730 -0.6031 -0.1773
19551TIP3    H180068   1.740   5.084  15.913 -1.1477  1.6035  0.0483
19551TIP3    H280069   1.688   4.942  15.897  1.3137  0.9338 -3.3310
19552TIP3   OH280070   4.494   0.779   4.403 -0.1471 -0.7802 -1.0282
19552TIP3    H180071   4.497   0.710   4.469 -0.1224  0.1168 -0.0637
19552TIP3    H280072   4.565   0.838   4.427 -2.1619  1.3280  0.1658
19553TIP3   OH280073   1.495   3.449  14.515  0.1722 -0.1825  0.9858
19553TIP3    H180074   1.519   3.449  14.422  0.5358 -0.1910  1.0797
19553TIP3    H280075   1.402   3.424  14.515  0.9313 -3.4659  0.7935
19554TIP3   OH280076   2.121   2.124  15.595 -0.9870  0.0097  0.6610
19554TIP3    H180077   2.145   2.163  15.511  0.9197 -0.5775  0.9008
19554TIP3    H280078   2.035   2.084  15.578 -1.1576  0.8687 -0.6756
19555TIP3   OH280079   0.485   6.595   2.016  0.0167 -0.0284  0.0826
19555TIP3    H180080   0.462   6.536   2.088 -0.7163 -1.0134 -0.9235
19555TIP3    H280081   0.431   6.673   2.031 -2.1968 -1.2710 -0.8003
19556TIP3   OH280082   3.082   1.812   3.501  0.0159  0.2177  0.1099
19556TIP3    H180083   3.094   1.719   3.519  1.0183  0.6465  1.9193
19556TIP3    H280084   3.001   1.817   3.451  1.0196 -1.7914 -1.8663
19557TIP3   OH280085   4.784   0.132   2.440  0.2105 -0.0872 -0.4451
19557TIP3    H180086   4.717   0.160   2.378  0.5377  0.4392 -0.5691
19557TIP3    H280087   4.807   0.044   2.413 -0.4078 -0.2598 -0.4210
19558TIP3   OH280088   6.001   3.924  11.494 -0.6613 -0.2028 -0.3217
19558TIP3    H180089   6.022   3.900  11.404  0.5809  0.4037 -0.2234
19558TIP3    H280090   5.919   3.972  11.488 -2.0058 -2.4394 -0.7792
19559TIP3   OH280091   2.904   4.488  15.249  0.0775 -0.0019  0.0954
19559TIP3    H180092   2.838   4.419  15.237 -2.0165  1.6823  1.1909
19559TIP3    H280093   2.967   4.473  15.179 -2.1950 -0.9405 -1.9129
19560TIP3   OH280094   5.989   1.176  11.763 -0.3788  0.1906 -0.1546
19560TIP3    H180095   5.965   1.263  11.793 -1.4914 -0.1250 -0.0756
19560TIP3    H280096   5.906   1.130  11.755  0.2789 -1.3060  1.1387
19561TIP3   OH280097   3.406   0.339   0.611 -0.2595 -0.0449  0.4739
19561TIP3    H180098   3.500   0.320   0.606 -0.1066  0.8489 -0.9101
19561TIP3    H280099   3.402   0.435   0.616 -1.0898 -0.0262 -0.2448
19562TIP3   OH280100   1.170   3.224   6.062 -0.3633 -0.1399 -0.2973
19562TIP3    H180101   1.232   3.264   6.122  0.4889 -0.1196 -1.1751
19562TIP3    H280102   1.092   3.208   6.116  1.1743 -2.3419  1.4872
19563TIP3   OH280103   2.551   2.734  15.122  0.2109  0.6676  0.2639
19563TIP3    H180104   2.621   2.791  15.092 -0.1878  0.8006 -0.4249
19563TIP3    H280105   2.488   2.793  15.164  1.1084  0.4087  2.0907
19564TIP3   OH280106   0.376   4.153  11.857  0.5737  0.2063 -0.2906
19564TIP3    H180107   0.445   4.156  11.791  1.1546 -1.7668  0.1743
19564TIP3    H280108   0.309   4.214  11.825  0.6051 -1.0131 -2.9449
19565TIP3   OH280109   5.505   4.835   0.426  0.3654  0.4140  0.1917
19565TIP3    H180110   5.600   4.840   0.436  0.4923 -1.1311 -0.0115
19565TIP3    H280111   5.480   4.919   0.389  1.7400  0.5753 -0.4173
19566TIP3   OH280112   6.026   5.232  11.929 -0.2708 -0.4982  0.5879
19566TIP3    H180113   6.088   5.302  11.911 -0.2355 -0.9151 -1.1421
19566TIP3    H280114   6.016   5.187  11.845 -2.5895 -0.7033  0.9002
19567TIP3   OH280115   4.042   4.393  10.892 -0.3505  0.0020  0.2214
19567TIP3    H180116   3.985   4.444  10.948 -0.7376 -0.7617  0.5438
19567TIP3    H280117   4.097   4.457  10.847 -0.0745  0.6285  1.4204
19568TIP3   OH280118   1.679   5.160   1.509  0.3422 -0.0502  0.2821
19568TIP3    H180119   1.619   5.191   1.441  0.9761  0.3876 -0.1004
19568TIP3    H280120   1.706   5.073   1.478 -0.7888 -0.6533  0.9271
19569TIP3   OH280121   2.053   1.394  14.290 -0.7958 -0.1584  0.4239
19569TIP3    H180122   2.132   1.412  14.342 -0.8551  0.6261  0.2431
19569TIP3    H280123   2.080   1.407  14.200 -1.2841  0.6736  0.3951
19570TIP3   OH280124   6.096   2.289   4.738  0.2992  0.0226  0.2397
19570TIP3    H180125   6.153   2.223   4.698  1.3465  0.2920  1.2274
19570TIP3    H280126   6.145   2.371   4.729  0.0214  0.2823  0.9847
19571TIP3   OH280127   5.167   5.014   0.089 -0.4675  0.1712  0.0522
19571TIP3    H180128   5.166   5.093   0.144 -0.7726  0.4044 -0.2852
19571TIP3    H280129   5.239   4.962   0.124  0.2970  0.9885 -0.2483
19572TIP3   OH280130   6.758   4.821   6.249 -0.0738  0.1794 -0.5661
19572TIP3    H180131   6.741   4.874   6.327  0.7662 -1.2758  0.6674
19572TIP3    H280132   6.705   4.742   6.262  1.0718 -0.6552 -0.8053
19573TIP3   OH280133   1.658   4.489   5.994 -0.0030 -0.1432  0.1467
19573TIP3    H180134   1.606   4.490   6.074 -1.0243  0.0156 -0.5039
19573TIP3    H280135   1.622   4.416   5.943  0.8038 -0.4025 -0.0727
19574TIP3   OH280136   0.330   0.241  15.154 -0.1972 -0.0959 -0.5146
19574TIP3    H180137   0.321   0.274  15.243 -0.8120  2.5432 -1.4595
19574TIP3    H280138   0.406   0.183  15.157  0.3382  0.6378  1.5144
19575TIP3   OH280139   2.802   2.372   5.296 -0.1115  0.5119 -0.0218
19575TIP3    H180140   2.727   2.423   5.266 -0.2677  1.7982  2.2911
19575TIP3    H280141   2.829   2.321   5.220 -2.8317  0.5811 -1.1348
19576TIP3   OH280142   2.833   4.713  17.254  0.0995 -0.1376 -0.0062
19576TIP3    H180143   2.785   4.780  17.204 -1.3575 -0.8624  0.3598
19576TIP3    H280144   2.873   4.658  17.187  0.6388  0.6116 -0.3177
19577TIP3   OH280145   1.480   0.229   0.238 -0.0128  0.2130  0.1720
19577TIP3    H180146   1.485   0.187   0.152 -1.0459 -0.6701  0.5118
19577TIP3    H280147   1.481   0.323   0.219 -1.3419  0.0483 -0.9191
19578TIP3   OH280148   3.316   5.783  10.603  0.0223 -0.6267 -0.7052
19578TIP3    H180149   3.332   5.689  10.617  0.9463 -0.3775  0.0317
19578TIP3    H280150   3.403   5.822  10.607 -0.4194  0.3381 -0.4277
19579TIP3   OH280151   2.781   2.730   3.327 -0.0600  0.2942 -0.1334
19579TIP3    H180152   2.810   2.814   3.292  0.1337  0.5056  0.5068
19579TIP3    H280153   2.819   2.727   3.415 -2.4226  0.8670  0.9933
19580TIP3   OH280154   0.789   4.104  14.606 -0.1979  0.0428  0.2066
19580TIP3    H180155   0.876   4.088  14.641 -0.0942  0.7553  0.2828
19580TIP3    H280156   0.783   4.048  14.529 -0.2565 -1.1911  1.0739
19581TIP3   OH280157   0.699   6.388  13.665 -0.1364 -0.1125  0.3450
19581TIP3    H180158   0.723   6.474  13.631 -0.0750  0.0282  0.7345
19581TIP3    H280159   0.605   6.380  13.648  0.0306 -0.3468 -0.5030
19582TIP3   OH280160   0.659   1.652   5.582  0.2711 -0.0540 -0.0100
19582TIP3    H180161   0.667   1.593   5.657  0.1201 -2.1051 -1.5312
19582TIP3    H280162   0.667   1.595   5.506 -0.2048  1.8739 -1.5719
19583TIP3   OH280163   6.405   3.442   4.484 -0.1763 -0.3664 -0.8219
19583TIP3    H180164   6.369   3.522   4.520 -0.3448 -0.0979 -1.5636
19583TIP3    H280165   6.448   3.470   4.403 -0.4824 -1.0652 -1.2313
19584TIP3   OH280166   2.051   5.689  11.731 -0.5006 -0.3800 -0.2688
19584TIP3    H180167   1.996   5.733  11.796  0.0027  0.3378 -0.3215
19584TIP3    H280168   2.025   5.729  11.648  0.2897  0.1623 -0.2596
19585TIP3   OH280169   5.461   0.554  14.791 -0.2710 -0.2667  0.2255
19585TIP3    H180170   5.371   0.561  14.758 -0.7872 -0.1286  1.6047
19585TIP3    H280171   5.451   0.541  14.885  1.1715  2.4888  0.8767
19586TIP3   OH280172   5.720   0.737   4.366 -0.5383 -0.0125  0.2882
19586TIP3    H180173   5.714   0.643   4.349 -0.9607  0.0262  0.2190
19586TIP3    H280174   5.718   0.745   4.461  0.6060 -0.1446  0.3404
19587TIP3   OH280175   1.401   5.224  16.798 -0.1930 -0.1182  0.2544
19587TIP3    H180176   1.463   5.291  16.768 -0.3319 -0.0783  0.0562
19587TIP3    H280177   1.334   5.273  16.845 -1.2862  0.1080 -1.4587
19588TIP3   OH280178   6.161   1.334  14.295  0.4025  0.1431  0.2800
19588TIP3    H180179   6.087   1.337  14.234 -0.1075  3.2366  0.8851
19588TIP3    H280180   6.239   1.336  14.239 -0.0112  0.3110 -0.2945
19589TIP3   OH280181   4.534   3.468   6.631 -0.5962  0.4003 -0.1126
19589TIP3    H180182   4.546   3.373   6.635 -0.5739  0.4324  0.7377
19589TIP3    H280183   4.523   3.487   6.538  0.3372 -0.3254 -0.3859
19590TIP3   OH280184   5.342   2.824  15.702  0.2403  0.1144  0.0360
19590TIP3    H180185   5.370   2.776  15.624 -1.5029 -2.0673  0.6692
19590TIP3    H280186   5.406   2.801  15.769 -0.1323 -0.7322  0.1166
19591TIP3   OH280187   4.513   6.434  14.277  0.5506  0.0590  0.1044
19591TIP3    H180188   4.418   6.432  14.263  0.4077 -1.1225  1.1052
19591TIP3    H280189   4.524   6.424  14.371  1.7324 -3.2361 -0.2743
19592TIP3   OH280190   4.626   5.605   0.103 -0.4751 -0.3985 -0.1039
19592TIP3    H180191   4.547   5.657   0.089 -0.3288 -0.7003 -2.5703
19592TIP3    H280192   4.595   5.514   0.104 -0.1631 -0.5352 -1.3756
19593TIP3   OH280193   2.022   2.053   2.002  0.4737  0.3064 -0.4279
19593TIP3    H180194   2.041   1.978   1.946 -1.4828  0.4688 -1.3849
19593TIP3    H280195   2.094   2.114   1.985  1.8740 -1.1424  0.0572
19594TIP3   OH280196   5.675   6.770   3.178 -0.1041 -0.2558  0.4938
19594TIP3    H180197   5.688   6.738   3.267  0.6881  1.1200  0.8969
19594TIP3    H280198   5.763   6.794   3.148 -0.6140  1.3700  0.1745
19595TIP3   OH280199   0.565   3.054   1.881  0.1741 -0.2916  0.1066
19595TIP3    H180200   0.645   3.003   1.895  0.4147 -0.9605 -2.9664
19595TIP3    H280201   0.586   3.142   1.912  2.6524 -0.0982 -1.8253
19596TIP3   OH280202   4.834   6.056   4.412  0.2961 -0.1915 -0.3700
19596TIP3    H180203   4.814   6.002   4.336  0.8304 -0.3118 -0.4279
19596TIP3    H280204   4.806   6.144   4.388  0.1283 -0.2971 -0.5641
19597TIP3   OH280205   5.667   3.492   4.101 -0.0980 -0.2215 -0.6130
19597TIP3    H180206   5.611   3.518   4.174 -0.4586  1.3055 -1.3984
19597TIP3    H280207   5.746   3.545   4.110  0.4750 -1.0507 -0.5548
19598TIP3   OH280208   4.230   4.855  16.946  0.0395  0.0019 -0.1869
19598TIP3    H180209   4.201   4.769  16.913  0.4546 -0.9227  1.6874
19598TIP3    H280210   4.318   4.866  16.910  0.6410 -1.1655  0.8117
19599TIP3   OH280211   0.127   1.964   5.522 -0.1116  0.3076 -0.0916
19599TIP3    H180212   0.156   2.054   5.507  0.8580  0.2016  1.0132
19599TIP3    H280213   0.204   1.911   5.505 -0.2541 -0.1755  0.7225
19600TIP3   OH280214   5.482   1.716   0.987  0.0308  0.5280  0.1479
19600TIP3    H180215   5.436   1.741   0.907 -0.5189  0.2932  0.3894
19600TIP3    H280216   5.560   1.670   0.957  0.5745  1.6875 -0.2855
19601TIP3   OH280217   6.574   2.861   4.270 -0.1595  0.0422  0.2266
19601TIP3    H180218   6.629   2.828   4.198 -1.2923  0.3568 -0.8182
19601TIP3    H280219   6.489   2.819   4.256 -0.6407  0.7801  0.8842
19602TIP3   OH280220   0.731   3.239   2.815 -0.7144 -0.1379 -0.2091
19602TIP3    H180221   0.755   3.216   2.725 -0.0276  0.2611 -0.1371
19602TIP3    H280222   0.814   3.266   2.856 -0.9055 -0.9074  0.7310
19603TIP3   OH280223   1.090   6.599  12.596  0.8397 -0.3360 -0.1745
19603TIP3    H180224   1.036   6.548  12.536 -1.0671 -1.5553  2.3704
19603TIP3    H280225   1.092   6.547  12.676  1.0874  2.3343  1.6845
19604TIP3   OH280226   2.297   0.750  15.699 -0.5284  0.5564  0.2027
19604TIP3    H180227   2.326   0.777  15.612 -0.9251  0.2489 -0.0269
19604TIP3    H280228   2.375   0.715  15.740  0.2937  3.0336  0.9201
19605TIP3   OH280229   1.344   4.995  16.968 -0.2043  0.3614 -0.4866
19605TIP3    H180230   1.367   4.919  16.914 -0.5208  0.5831 -0.9462
19605TIP3    H280231   1.356   5.070  16.909  0.9611  0.7569  0.2168
19606TIP3   OH280232   5.313   2.466  12.066 -0.3420 -0.5444 -0.1569
19606TIP3    H180233   5.315   2.542  12.008 -2.0160  0.0740  0.5367
19606TIP3    H280234   5.274   2.396  12.014  1.7289 -1.1692 -0.9877
19607TIP3   OH280235   2.620   5.928  12.245  0.0403 -0.8470  0.5655
19607TIP3    H180236   2.556   5.988  12.207  1.0572  0.3497  0.6882
19607TIP3    H280237   2.645   5.871  12.173 -1.5568 -1.7002  0.6512
19608TIP3   OH280238   6.539   6.211   4.002 -0.0502 -0.2751  0.3105
19608TIP3    H180239   6.629   6.182   3.991 -0.2762 -0.3165 -1.7840
19608TIP3    H280240   6.486   6.143   3.960 -0.8907  0.7550 -0.3712
19609TIP3   OH280241   3.138   3.915  13.062 -0.1133 -0.2482  0.2536
19609TIP3    H180242   3.107   4.004  13.053  1.1176  0.1031 -0.8782
19609TIP3    H280243   3.152   3.885  12.972  0.0822 -1.3631  0.6346
19610TIP3   OH280244   3.783   0.717   1.349  0.2191 -0.2600 -0.1221
19610TIP3    H180245   3.780   0.805   1.313 -0.2215  0.0580  0.6836
19610TIP3    H280246   3.857   0.676   1.304  0.5970  0.6032 -0.3072
19611TIP3   OH280247   0.260   4.050   2.972 -0.3866  0.0807  0.5832
19611TIP3    H180248   0.188   4.110   2.990  0.2983  0.8464  0.8563
19611TIP3    H280249   0.335   4.088   3.019  0.4124 -0.2090 -0.4205
19612TIP3   OH280250   1.136   5.394  16.535  0.1682  0.8395  0.2930
19612TIP3    H180251   1.122   5.302  16.513  0.6367 -0.0577  3.3150
19612TIP3    H280252   1.198   5.425  16.469  1.4301 -1.5294  0.2683
19613TIP3   OH280253   5.840   2.511   1.257  0.3232  0.0416 -0.4071
19613TIP3    H180254   5.916   2.472   1.212  0.2254  0.9178 -1.3653
19613TIP3    H280255   5.772   2.513   1.190 -0.2691  0.0777  0.1975
19614TIP3   OH280256   4.175   2.970   1.817 -0.3938  0.2350  0.1483
19614TIP3    H180257   4.246   2.946   1.878 -1.4031 -0.9220  0.9071
19614TIP3    H280258   4.096   2.932   1.856 -0.9325 -1.5671 -2.4529
19615TIP3   OH280259   0.574   6.443  15.708  0.0538 -0.4247 -0.7307
19615TIP3    H180260   0.609   6.377  15.648 -1.5350 -1.5892 -0.4472
19615TIP3    H280261   0.651   6.491  15.739  1.0001 -0.2800 -3.0976
19616TIP3   OH280262   0.924   5.184  11.844  0.1558  0.0431 -0.1384
19616TIP3    H180263   1.010   5.144  11.832 -0.9073 -2.6464  0.3437
19616TIP3    H280264   0.863   5.110  11.838 -1.9331  1.4772  1.8252
19617TIP3   OH280265   6.198   3.259  11.203 -0.2589  0.3573 -0.3520
19617TIP3    H180266   6.220   3.304  11.284 -1.3999  0.1115  0.1125
19617TIP3    H280267   6.181   3.168  11.229  1.9524 -0.4051 -1.2637
19618TIP3   OH280268   1.201   0.430  11.421 -0.4442 -0.3118 -0.0311
19618TIP3    H180269   1.263   0.432  11.494 -0.8384  0.5073  0.2950
19618TIP3    H280270   1.207   0.517  11.381 -1.3792 -0.2116  0.0115
19619TIP3   OH280271   2.967   5.498  10.833 -0.1923  0.1900 -0.4152
19619TIP3    H180272   3.036   5.433  10.815 -0.7178 -0.7661  0.8656
19619TIP3    H280273   2.973   5.560  10.760  2.2610  0.3495 -0.1835
19620TIP3   OH280274   1.624   6.060   1.649 -0.1776  0.3443 -0.2707
19620TIP3    H180275   1.533   6.086   1.663 -0.6882 -1.2678 -0.4158
19620TIP3    H280276   1.619   5.989   1.585  0.7746 -2.3100  2.3727
19621TIP3   OH280277   3.106   1.198   1.581 -0.3005 -0.1706  0.0290
19621TIP3    H180278   3.195   1.184   1.548 -0.1810 -2.8964  1.2359
19621TIP3    H280279   3.049   1.177   1.508  0.0385 -2.3431  0.3177
19622TIP3   OH280280   4.956   6.499   3.948 -0.1625 -0.7783  0.1640
19622TIP3    H180281   4.871   6.494   3.903  0.5003  0.4082 -1.3293
19622TIP3    H280282   4.995   6.412   3.935 -0.5667 -0.8855 -0.3641
19623TIP3   OH280283   2.734   1.070   4.018  0.0710  0.4383 -0.0334
19623TIP3    H180284   2.786   1.012   3.962 -0.4971  0.6021 -0.7490
19623TIP3    H280285   2.759   1.158   3.991 -2.0611  0.5699 -1.9074
19624TIP3   OH280286   6.577   3.216   5.084 -0.1592 -0.2569  0.2387
19624TIP3    H180287   6.523   3.200   5.007 -1.2103  1.2776  0.6112
19624TIP3    H280288   6.608   3.129   5.110 -1.9831 -1.1320 -0.3288
19625TIP3   OH280289   1.641   6.082  13.243 -0.4089 -0.0958  0.3472
19625TIP3    H180290   1.724   6.113  13.278 -0.2289 -0.5091  0.2859
19625TIP3    H280291   1.577   6.148  13.271 -0.1590 -0.0851  0.9032
19626TIP3   OH280292   0.971   0.696  10.453  0.3402  0.0775  0.9284
19626TIP3    H180293   1.011   0.781  10.471  0.1519  1.1178 -2.6224
19626TIP3    H280294   0.884   0.717  10.420 -0.1466 -1.5997  1.0455
19627TIP3   OH280295   5.636   0.400  11.876 -0.1930  0.4887 -0.2086
19627TIP3    H180296   5.595   0.329  11.825  2.1591  0.3706 -2.1492
19627TIP3    H280297   5.566   0.463  11.889 -2.1040 -1.6435  0.6121
19628TIP3   OH280298   1.889   3.244   1.099 -0.1638 -0.2016 -0.2830
19628TIP3    H180299   1.943   3.246   1.020 -1.1642 -0.2494 -0.9823
19628TIP3    H280300   1.801   3.264   1.068 -0.8051 -1.4712  0.6204
19629TIP3   OH280301   2.911   1.939  11.679  0.0270 -0.2858  0.0069
19629TIP3    H180302   2.987   1.929  11.621  0.4933 -0.3196  0.6073
19629TIP3    H280303   2.941   2.001  11.746 -1.0107  0.9489 -0.6278
19630TIP3   OH280304   0.717   1.014   1.029  0.4377 -0.0460 -0.4667
19630TIP3    H180305   0.645   1.043   1.086 -0.0041 -0.0236 -1.0326
19630TIP3    H280306   0.768   1.093   1.013  1.0134 -0.1994  0.5269
19631TIP3   OH280307   0.423   6.502   5.782 -0.0562 -0.1809  0.0751
19631TIP3    H180308   0.490   6.514   5.715  1.3190  0.0351  1.4439
19631TIP3    H280309   0.470   6.508   5.865 -1.7169 -0.3933  1.0800
19632TIP3   OH280310   3.957   4.594  13.327  0.4522 -0.0213  0.6870
19632TIP3    H180311   3.999   4.555  13.250  1.0798 -0.3218  1.1614
19632TIP3    H280312   3.888   4.532  13.351  0.4454 -0.0723  0.5356
19633TIP3   OH280313   3.406   2.304   3.231  0.9860 -0.0235 -0.0377
19633TIP3    H180314   3.334   2.258   3.274  0.3004 -1.1430 -2.2591
19633TIP3    H280315   3.458   2.339   3.303 -0.6633 -0.8999  1.6631
19634TIP3   OH280316   3.392   2.687  17.270  0.0447  0.0604  0.1847
19634TIP3    H180317   3.419   2.773  17.303 -0.9467  0.0255  1.1379
19634TIP3    H280318   3.310   2.703  17.224  0.4089 -0.2173 -0.5774
19635TIP3   OH280319   1.887   0.859   3.990 -0.1150 -0.1250 -0.2547
19635TIP3    H180320   1.921   0.919   3.924 -0.8674  0.8261  0.1748
19635TIP3    H280321   1.811   0.818   3.949 -0.3216  0.1416 -0.1502
19636TIP3   OH280322   2.201   3.526  14.354  0.5724 -0.3664 -0.0243
19636TIP3    H180323   2.111   3.514  14.323  0.1873 -0.4762  1.1158
19636TIP3    H280324   2.241   3.439  14.345 -0.2846 -1.0370  2.0793
19637TIP3   OH280325   6.228   3.048   2.184 -0.2077 -0.0385  0.3656
19637TIP3    H180326   6.212   3.137   2.152 -0.1595  0.5665  1.9335
19637TIP3    H280327   6.226   2.993   2.105 -0.9722  1.2421 -0.5448
19638TIP3   OH280328   3.439   5.528   0.752 -0.2184  0.0605 -0.0238
19638TIP3    H180329   3.504   5.594   0.727 -0.8981 -0.1812 -2.7601
19638TIP3    H280330   3.488   5.445   0.749 -0.1147  0.1085  0.2772
19639TIP3   OH280331   5.091   0.456   0.222  0.1242 -0.2131  0.0556
19639TIP3    H180332   5.125   0.429   0.136  0.4594 -0.8047  0.3648
19639TIP3    H280333   5.156   0.519   0.254 -0.4591  0.7005 -0.4987
19640TIP3   OH280334   6.371   0.262  11.379 -0.2499 -0.0829 -0.0901
19640TIP3    H180335   6.348   0.210  11.457 -2.9117  0.1646 -0.6086
19640TIP3    H280336   6.459   0.295  11.397 -0.5963 -0.4023  2.6262
19641TIP3   OH280337   6.280   5.136  12.050 -0.6051  0.4383  0.4434
19641TIP3    H180338   6.203   5.117  11.997 -1.1772 -0.2070  1.4930
19641TIP3    H280339   6.282   5.067  12.116 -0.3755  1.6697  1.7767
19642TIP3   OH280340   1.516   0.786   3.301 -0.1474 -0.0945 -0.4968
19642TIP3    H180341   1.531   0.867   3.349  0.2728  0.1302 -0.9898
19642TIP3    H280342   1.487   0.723   3.367 -0.2676  0.3969 -0.0765
19643TIP3   OH280343   4.768   2.762  15.837 -0.2737 -0.7579 -0.2267
19643TIP3    H180344   4.858   2.732  15.827 -0.2557 -0.3674 -1.4697
19643TIP3    H280345   4.774   2.857  15.846 -0.5434 -0.7459 -0.1586
19644TIP3   OH280346   4.935   3.732   1.340  0.1973 -0.0021 -0.7720
19644TIP3    H180347   4.854   3.687   1.317  0.1663 -0.7493  0.6654
19644TIP3    H280348   4.932   3.740   1.435  0.8770  1.7946 -0.8601
19645TIP3   OH280349   1.660   5.555  11.574 -0.0135  0.3180  0.4686
19645TIP3    H180350   1.656   5.646  11.543 -0.0237 -0.3004 -1.4848
19645TIP3    H280351   1.660   5.503  11.494  0.7993 -1.3922  1.5349
19646TIP3   OH280352   5.325   4.635  10.817  0.6746  0.3310 -0.2840
19646TIP3    H180353   5.324   4.563  10.755  0.8192 -0.6583  0.8183
19646TIP3    H280354   5.370   4.600  10.894  1.3742  1.8267  0.0231
19647TIP3   OH280355   3.574   0.221  12.430 -0.0679  0.0376  0.1892
19647TIP3    H180356   3.611   0.307  12.452 -0.4419  0.1707  0.3027
19647TIP3    H280357   3.498   0.241  12.375 -0.3470 -0.2049  0.4809
19648TIP3   OH280358   5.461   0.945  11.967 -0.5570  0.0566 -0.5534
19648TIP3    H180359   5.369   0.928  11.948 -0.5638  1.1101 -1.5814
19648TIP3    H280360   5.500   0.968  11.882  0.6899 -0.4793 -0.1613
19649TIP3   OH280361   6.487   5.889   4.146  0.1645  0.0684  0.3419
19649TIP3    H180362   6.500   5.941   4.066  0.2477  0.4440  0.5983
19649TIP3    H280363   6.445   5.949   4.207  1.6295  0.3153  1.1545
19650TIP3   OH280364   3.551   5.505   5.300  0.2629 -0.2386  0.4530
19650TIP3    H180365   3.533   5.454   5.380  2.8535 -0.6989  0.8384
19650TIP3    H280366   3.560   5.595   5.331  3.2457 -0.6771  1.1210
19651TIP3   OH280367   2.466   4.330  10.984  0.4708  0.1397  0.2723
19651TIP3    H180368   2.426   4.410  11.020  0.2715  0.4585 -0.6293
19651TIP3    H280369   2.558   4.353  10.973  0.5703 -0.0215  0.7412
19652TIP3   OH280370   5.392   6.532  14.030 -0.2407 -0.1095  0.1354
19652TIP3    H180371   5.350   6.454  14.066 -1.5751  2.0629  3.8547
19652TIP3    H280372   5.333   6.562  13.961 -0.3994 -1.6039 -0.4087
19653TIP3   OH280373   2.481   2.472  14.576 -0.0616  0.0411  0.1088
19653TIP3    H180374   2.492   2.410  14.504 -0.2345 -0.0796  0.1860
19653TIP3    H280375   2.427   2.542  14.539 -1.4820 -0.7727  0.5549
19654TIP3   OH280376   0.334   5.942  13.538  0.3720 -0.1809 -0.4308
19654TIP3    H180377   0.370   5.898  13.461  1.1554  1.5320 -1.0980
19654TIP3    H280378   0.406   5.998  13.569  0.0850 -0.8535  1.5901
19655TIP3   OH280379   1.126   3.887  13.462  0.0124  0.4664  0.0926
19655TIP3    H180380   1.038   3.912  13.491  0.2284  1.9211 -0.4770
19655TIP3    H280381   1.168   3.853  13.542 -0.7819  0.5186  0.5459
19656TIP3   OH280382   2.351   2.838  15.301 -0.3543  0.1316  0.0125
19656TIP3    H180383   2.366   2.752  15.339  1.0292  0.0116 -0.7081
19656TIP3    H280384   2.412   2.896  15.348  2.0515 -0.1871 -2.4753
19657TIP3   OH280385   0.501   4.894   6.688  0.3119 -0.1725  0.3062
19657TIP3    H180386   0.508   4.955   6.761 -0.3033  0.0776  0.1608
19657TIP3    H280387   0.419   4.847   6.704 -0.3705  0.6142 -0.7657
19658TIP3   OH280388   3.180   5.973  12.389  0.8062 -0.3610  0.0507
19658TIP3    H180389   3.223   6.047  12.346 -0.7334  1.1657  1.0302
19658TIP3    H280390   3.116   6.013  12.447 -1.9529 -2.4843 -1.2892
19659TIP3   OH280391   1.260   0.327   2.326 -0.7506  0.1536 -0.6505
19659TIP3    H180392   1.275   0.417   2.297  0.0276  0.4714  0.6673
19659TIP3    H280393   1.256   0.276   2.245 -0.0706  1.2132 -1.3755
19660TIP3   OH280394   3.547   2.703  15.138 -0.0272  0.2149 -0.4517
19660TIP3    H180395   3.466   2.661  15.168  0.8659 -0.3543  1.3065
19660TIP3    H280396   3.570   2.763  15.208 -0.3669  2.4883 -2.1766
19661TIP3   OH280397   4.823   5.750  15.010 -0.0358 -0.1739  0.2037
19661TIP3    H180398   4.820   5.754  14.914  1.4016 -2.0595  0.0316
19661TIP3    H280399   4.900   5.697  15.030 -0.1203  0.4222  2.4355
19662TIP3   OH280400   1.026   0.630   4.274 -0.3346  0.4162  0.6785
19662TIP3    H180401   1.038   0.680   4.193 -1.4095 -1.1532 -0.5350
19662TIP3    H280402   1.113   0.598   4.296 -0.4902 -2.5155 -2.2442
19663TIP3   OH280403   5.980   3.125   0.851  0.0217 -0.2261  0.6859
19663TIP3    H180404   5.905   3.067   0.843  0.5138 -0.5708 -3.2241
19663TIP3    H280405   6.054   3.067   0.870  0.1076 -0.5943 -0.7145
19664TIP3   OH280406   5.665   4.650  15.873  0.1015 -0.4036 -0.2241
19664TIP3    H180407   5.669   4.709  15.948  1.2025 -0.7004 -0.0309
19664TIP3    H280408   5.686   4.705  15.798 -1.1263 -0.0788 -0.3556
19665TIP3   OH280409   5.215   2.333   2.719  0.1452 -0.4267 -0.0386
19665TIP3    H180410   5.268   2.264   2.677  0.1293 -1.7531  1.9791
19665TIP3    H280411   5.125   2.305   2.705  0.1434 -0.9644  0.9566
19666TIP3   OH280412   6.509   5.683   5.738 -0.9729 -0.1157 -0.4272
19666TIP3    H180413   6.597   5.646   5.741 -1.4695 -1.2895 -0.1385
19666TIP3    H280414   6.486   5.697   5.830 -0.9262  0.6285 -0.5178
19667TIP3   OH280415   0.675   1.325   6.293 -0.8462  0.1597  0.2572
19667TIP3    H180416   0.677   1.346   6.386 -0.0077  0.8316  0.0959
19667TIP3    H280417   0.599   1.266   6.284 -0.8086 -0.0956  1.3872
19668TIP3   OH280418   4.173   3.732   5.247  0.3917 -0.9524  0.2343
19668TIP3    H180419   4.081   3.731   5.219  0.3147 -0.9598  0.4849
19668TIP3    H280420   4.170   3.705   5.339  0.3664  1.5850  1.0507
19669TIP3   OH280421   3.902   2.185   2.679 -0.0461  0.0753  0.4704
19669TIP3    H180422   3.811   2.174   2.651 -0.6623  0.9003  2.0236
19669TIP3    H280423   3.901   2.165   2.773  1.7237 -1.5443  0.2084
19670TIP3   OH280424   2.517   3.813   4.276 -0.4241 -0.6163  0.0220
19670TIP3    H180425   2.546   3.798   4.366  0.3700  1.2052  0.1381
19670TIP3    H280426   2.544   3.735   4.228  1.4713 -0.5457  0.8819
19671TIP3   OH280427   2.739   1.598  17.119 -0.2137 -0.3306 -0.6765
19671TIP3    H180428   2.831   1.621  17.104 -0.1804  0.4424  0.6066
19671TIP3    H280429   2.689   1.667  17.075 -0.1332  0.9185  1.1233
19672TIP3   OH280430   6.265   3.755  16.103  0.5862 -0.2111  0.0608
19672TIP3    H180431   6.198   3.696  16.069  1.3540 -0.9198 -0.2725
19672TIP3    H280432   6.285   3.813  16.030  0.9989 -0.6168 -0.1594
19673TIP3   OH280433   0.241   2.901  15.654  0.2000 -0.4610 -0.2340
19673TIP3    H180434   0.211   2.987  15.622  0.7420 -0.0452  0.3533
19673TIP3    H280435   0.161   2.856  15.679 -0.0602  0.0589 -0.1106
19674TIP3   OH280436   3.112   0.467   0.660 -0.1711  0.1702  0.0818
19674TIP3    H180437   3.127   0.445   0.752  1.1880  2.1649  0.4008
19674TIP3    H280438   3.124   0.384   0.613 -0.4243 -0.7852  1.6528
19675TIP3   OH280439   4.723   1.572  11.376  0.4374  0.0456  0.0169
19675TIP3    H180440   4.668   1.521  11.436  1.4345 -1.8497 -0.6015
19675TIP3    H280441   4.803   1.589  11.424 -0.0801  1.5616  0.4054
19676TIP3   OH280442   4.768   0.464   3.641  0.7267 -0.1957 -0.5221
19676TIP3    H180443   4.672   0.458   3.635  0.2246  1.4007  2.9085
19676TIP3    H280444   4.800   0.378   3.616 -1.9919 -2.1682  2.0120
19677TIP3   OH280445   3.596   2.931  14.405 -0.5471  0.4095  0.4577
19677TIP3    H180446   3.511   2.931  14.361 -0.9038 -1.7802  1.0550
19677TIP3    H280447   3.579   2.889  14.489  1.3336 -1.0797  0.1415
19678TIP3   OH280448   4.405   3.566  15.105 -0.0082 -0.3673 -0.0369
19678TIP3    H180449   4.499   3.573  15.084 -0.2453  0.7742 -0.7910
19678TIP3    H280450   4.365   3.531  15.026 -0.4001  0.5101 -0.2478
19679TIP3   OH280451   3.322   5.341   4.125  0.9595 -0.4191  0.2323
19679TIP3    H180452   3.400   5.382   4.088  1.3064 -1.3883 -0.1301
19679TIP3    H280453   3.313   5.258   4.078  0.3475 -0.8285  1.0486
19680TIP3   OH280454   2.854   0.461  15.330 -0.4301  0.0280  0.3436
19680TIP3    H180455   2.844   0.540  15.383  1.0651 -1.3673  2.9310
19680TIP3    H280456   2.788   0.401  15.363 -0.3203 -0.4593 -0.3009
19681TIP3   OH280457   5.344   3.997  15.340 -0.3654 -0.1607 -1.2437
19681TIP3    H180458   5.304   3.962  15.260 -0.0033  0.3388 -1.6575
19681TIP3    H280459   5.430   4.030  15.311  0.7691 -2.0381 -0.2183
19682TIP3   OH280460   5.449   5.675   5.338  0.7572  0.3023 -0.6285
19682TIP3    H180461   5.493   5.657   5.421 -0.7830  0.8741  0.3644
19682TIP3    H280462   5.435   5.770   5.338 -1.4291  0.0410 -0.3334
19683TIP3   OH280463   5.007   6.725  16.406 -0.2463 -0.1498  0.2916
19683TIP3    H180464   5.012   6.691  16.495 -2.2442 -2.2731 -0.3232
19683TIP3    H280465   4.918   6.759  16.398  0.5820  2.0725 -0.2686
19684TIP3   OH280466   1.644   6.233  13.916  0.6935 -0.1936 -0.2090
19684TIP3    H180467   1.699   6.211  13.841  1.1228  3.0756 -0.9867
19684TIP3    H280468   1.571   6.281  13.879 -0.7431 -1.1675  1.2290
19685TIP3   OH280469   0.528   0.516  16.378 -0.1929  0.0861 -0.2471
19685TIP3    H180470   0.513   0.446  16.443  4.6041 -1.1564 -0.1211
19685TIP3    H280471   0.517   0.473  16.294 -1.7565  0.4726 -0.2694
19686TIP3   OH280472   3.338   4.911   2.123 -0.1724 -0.3391 -0.5330
19686TIP3    H180473   3.370   4.979   2.182  0.5557 -0.8286 -0.3548
19686TIP3    H280474   3.398   4.838   2.135 -1.0394 -1.0807 -0.6039
19687TIP3   OH280475   3.176   0.244  13.777 -0.4099 -0.2832 -0.0938
19687TIP3    H180476   3.110   0.200  13.723  0.6406 -0.6273 -1.1233
19687TIP3    H280477   3.260   0.217  13.740  0.3025  1.0384  0.4919
19688TIP3   OH280478   6.325   0.749  15.907 -0.2682  0.6255 -0.0996
19688TIP3    H180479   6.326   0.718  15.998  0.1290 -1.7157 -0.8405
19688TIP3    H280480   6.232   0.747  15.883 -0.1340 -3.4499 -1.0981
19689TIP3   OH280481   2.744   2.023  13.692 -0.5031  0.4318  0.6143
19689TIP3    H180482   2.837   2.045  13.687 -0.2204 -0.6398  0.9269
19689TIP3    H280483   2.710   2.043  13.605  0.2381 -0.0946  0.1890
19690TIP3   OH280484   5.458   4.254  12.408  0.4733 -0.3596  0.0116
19690TIP3    H180485   5.463   4.300  12.325 -1.0345 -1.2775 -0.6330
19690TIP3    H280486   5.379   4.287  12.450  1.3405  0.2659  1.2176
19691TIP3   OH280487   2.206   2.236  15.361  0.0877  0.2153 -0.2657
19691TIP3    H180488   2.285   2.278  15.327  0.7845 -0.8524  0.0023
19691TIP3    H280489   2.215   2.144  15.337 -0.6161 -0.0980  0.6040
19692TIP3   OH280490   5.588   5.699  14.431 -0.2638  0.0490  0.6504
19692TIP3    H180491   5.618   5.613  14.399 -1.5348 -0.7775  1.5692
19692TIP3    H280492   5.640   5.714  14.510  0.2620  0.3471  0.2569
19693TIP3   OH280493   6.591   1.022   2.367  0.2232 -0.1847 -0.4849
19693TIP3    H180494   6.588   1.117   2.378 -0.1067  0.0415 -2.2335
19693TIP3    H280495   6.671   0.995   2.410  0.9226  1.0596 -0.9711
19694TIP3   OH280496   4.657   2.549  16.421 -0.8152  0.2372  0.0415
19694TIP3    H180497   4.612   2.585  16.344 -1.9915  1.0183  1.0555
19694TIP3    H280498   4.741   2.518  16.387 -2.0846 -1.2884 -1.9339
19695TIP3   OH280499   1.162   5.089   0.188  0.3234  0.0791  0.2916
19695TIP3    H180500   1.213   5.147   0.133 -0.6066  1.2168  0.5853
19695TIP3    H280501   1.185   5.113   0.277  0.7410 -0.7645  0.4237
19696TIP3   OH280502   5.957   3.745   3.369  0.6756 -0.0985  0.2655
19696TIP3    H180503   6.026   3.725   3.432  0.8146 -2.7998 -0.5914
19696TIP3    H280504   5.984   3.700   3.289 -1.7333 -0.7076 -0.2914
19697TIP3   OH280505   4.873   1.572   6.021  0.0501  0.2615  0.1207
19697TIP3    H180506   4.779   1.560   6.029 -0.1151  0.4272 -1.3621
19697TIP3    H280507   4.909   1.530   6.099 -1.2709  0.7036  0.9996
19698TIP3   OH280508   5.965   2.640  12.475  0.6481 -0.0123  0.2779
19698TIP3    H180509   5.935   2.566  12.421  0.5998 -0.1420  0.4805
19698TIP3    H280510   6.006   2.700  12.412  0.1110  0.0914  0.0213
19699TIP3   OH280511   3.189   1.965   4.110 -0.4093 -0.7237 -0.3825
19699TIP3    H180512   3.144   2.049   4.104  0.6729 -0.1650 -0.7999
19699TIP3    H280513   3.252   1.976   4.182 -1.4577 -1.7726  0.7618
19700TIP3   OH280514   3.697   5.639  15.325  0.0173  0.2649  0.5540
19700TIP3    H180515   3.622   5.690  15.355 -1.8445 -2.8600  1.6464
19700TIP3    H280516   3.715   5.673  15.237 -1.3644  2.4322  1.0288
19701TIP3   OH280517   2.940   0.707  12.948  0.0854  0.1364  0.1714
19701TIP3    H180518   3.032   0.733  12.940  0.2344  0.1080  1.5219
19701TIP3    H280519   2.943   0.618  12.982 -0.4504 -0.8116 -2.0925
19702TIP3   OH280520   1.956   3.994  16.580 -0.0806 -0.3126 -0.4754
19702TIP3    H180521   2.013   4.068  16.600 -0.4840 -0.6123  2.0585
19702TIP3    H280522   1.868   4.025  16.602 -0.3870 -1.1740 -0.4635
19703TIP3   OH280523   2.140   6.326   1.635 -0.2441 -0.3286  0.4521
19703TIP3    H180524   2.085   6.403   1.651 -0.1888 -0.5736  1.9505
19703TIP3    H280525   2.078   6.257   1.608 -0.5967 -0.4013  1.4133
19704TIP3   OH280526   2.925   0.965  16.805 -0.1106  0.1945 -0.1734
19704TIP3    H180527   2.959   0.983  16.893  3.1912  2.1006 -1.6416
19704TIP3    H280528   2.926   0.869  16.798  2.6907  0.0487  0.9020
19705TIP3   OH280529   5.156   0.135  16.161 -0.0732  0.1940  0.0905
19705TIP3    H180530   5.124   0.121  16.071 -3.2185 -0.1439  1.1280
19705TIP3    H280531   5.187   0.050  16.189 -1.1805 -0.2441  0.0346
19706TIP3   OH280532   5.264   1.621   3.304  0.5107 -0.1571  0.0195
19706TIP3    H180533   5.295   1.666   3.225 -1.4970 -1.0330 -1.3569
19706TIP3    H280534   5.259   1.529   3.279 -1.1544 -0.3204  0.8209
19707TIP3   OH280535   1.464   0.544  11.624 -0.3239  0.3806  0.2420
19707TIP3    H180536   1.408   0.593  11.564 -0.6549  0.9185  0.9718
19707TIP3    H280537   1.480   0.605  11.696 -2.1461 -1.0977  2.0227
19708TIP3   OH280538   4.416   1.220   2.573  0.1178 -0.6176  0.2700
19708TIP3    H180539   4.409   1.315   2.562  2.1591 -0.5974 -1.4328
19708TIP3    H280540   4.325   1.191   2.584 -0.6297  1.4295 -0.0121
19709TIP3   OH280541   3.600   6.048  16.682 -0.0427  0.0981 -0.2288
19709TIP3    H180542   3.604   6.142  16.664  1.2851  0.1710  0.3606
19709TIP3    H280543   3.680   6.013  16.643  1.2706 -0.2284  2.5204
19710TIP3   OH280544   1.342   6.766   5.643  0.1036  1.0051 -0.0860
19710TIP3    H180545   1.363   6.742   5.553  1.3189  0.8638  0.2149
19710TIP3    H280546   1.419   6.813   5.674 -0.3065  1.0777  0.8768
19711TIP3   OH280547   1.571   0.666  12.997  0.0969 -0.0536  0.1140
19711TIP3    H180548   1.590   0.583  13.041 -0.2978  0.7892  1.9476
19711TIP3    H280549   1.646   0.722  13.016  0.0891  0.2185 -0.6179
19712TIP3   OH280550   2.072   4.862   4.241 -0.5171 -0.5361 -0.1253
19712TIP3    H180551   2.074   4.847   4.146  2.0564 -0.4121 -0.1736
19712TIP3    H280552   2.123   4.790   4.277  2.6626  1.8873  0.6508
19713TIP3   OH280553   1.925   4.075   3.389 -0.2952 -0.4913  0.0043
19713TIP3    H180554   1.877   4.030   3.459 -1.9387  0.9090 -0.1687
19713TIP3    H280555   1.863   4.080   3.317  0.8814 -0.5735 -1.0499
19714TIP3   OH280556   4.725   5.258  15.115  0.0433 -0.1446  0.1259
19714TIP3    H180557   4.812   5.217  15.109  0.0928  0.0578 -0.6521
19714TIP3    H280558   4.674   5.198  15.169 -0.0178 -1.4758 -1.3453
19715TIP3   OH280559   2.445   0.977   4.663  0.0424 -0.4825  0.0398
19715TIP3    H180560   2.493   0.903   4.700  2.4733  1.2074  0.5022
19715TIP3    H280561   2.487   1.054   4.701 -0.1927  1.2336 -2.8803
19716TIP3   OH280562   6.734   6.140  13.712  0.4350  0.3415  0.1653
19716TIP3    H180563   6.739   6.124  13.618 -1.2127  1.4782 -0.1627
19716TIP3    H280564   6.731   6.236  13.720  0.8515  0.2707  1.3942
19717TIP3   OH280565   4.312   0.919  15.925  0.1568 -0.5875 -0.3807
19717TIP3    H180566   4.373   0.917  15.851  1.2827  0.1473  0.4952
19717TIP3    H280567   4.225   0.911  15.885  0.7723 -0.8895 -1.7165
19718TIP3   OH280568   4.399   4.492  13.386  0.1141  0.2156 -0.1787
19718TIP3    H180569   4.336   4.467  13.318 -1.6322  0.0433  1.4256
19718TIP3    H280570   4.475   4.436  13.370  0.3727  1.1565 -2.8135
19719TIP3   OH280571   2.750   3.356  14.726  0.1455 -0.0974  0.4332
19719TIP3    H180572   2.799   3.336  14.806  0.6702 -1.9947 -0.2972
19719TIP3    H280573   2.817   3.363  14.658 -0.4817 -2.4589 -0.5346
19720TIP3   OH280574   1.233   4.300  11.113 -0.3497 -0.3094 -0.5304
19720TIP3    H180575   1.325   4.325  11.119 -0.3803 -0.4816  1.7553
19720TIP3    H280576   1.236   4.204  11.110 -0.4567 -0.3260 -0.1188
19721TIP3   OH280577   3.703   3.989  12.686 -0.5224 -0.2349 -0.1593
19721TIP3    H180578   3.611   3.972  12.666 -0.5930  0.7549 -0.7327
19721TIP3    H280579   3.709   4.085  12.693  0.7220 -0.1920 -1.4498
19722TIP3   OH280580   4.563   4.961  14.045  0.0736 -0.0075 -0.1016
19722TIP3    H180581   4.518   4.885  14.080 -0.1860  0.8440  1.5281
19722TIP3    H280582   4.494   5.014  14.004  0.0855 -0.1555 -0.3130
19723TIP3   OH280583   2.751   3.058  14.870  0.4304  0.0847  0.7628
19723TIP3    H180584   2.660   3.084  14.856  0.8965  1.2065 -0.5005
19723TIP3    H280585   2.783   3.118  14.938  0.4129  0.1772  0.6896
19724TIP3   OH280586   4.055   5.619  13.973 -0.3618  0.0364  0.2843
19724TIP3    H180587   3.978   5.659  14.014 -0.5743 -0.5079  0.4229
19724TIP3    H280588   4.113   5.599  14.046 -1.5464 -2.7141  0.6159
19725TIP3   OH280589   6.379   3.482   5.418  0.5638  0.2391 -0.0175
19725TIP3    H180590   6.418   3.477   5.331  0.7489  0.3781  0.0583
19725TIP3    H280591   6.353   3.574   5.427  2.4595  0.7157  0.9113
19726TIP3   OH280592   6.487   2.843  11.769 -0.0428 -0.3409 -0.7097
19726TIP3    H180593   6.579   2.851  11.794 -0.3403  1.5301 -0.0476
19726TIP3    H280594   6.439   2.870  11.847 -1.1087  0.7713 -1.7242
19727TIP3   OH280595   6.309   5.604  16.773 -0.0741 -0.3092 -0.4059
19727TIP3    H180596   6.247   5.627  16.704 -0.1960  1.1251  0.1491
19727TIP3    H280597   6.318   5.509  16.766 -3.2247 -0.7486  0.2458
19728TIP3   OH280598   1.962   6.687   1.944 -0.2305 -0.2055  0.0925
19728TIP3    H180599   1.883   6.692   1.997 -0.0407  1.5753  0.2827
19728TIP3    H280600   2.034   6.699   2.007  0.0630  0.4799 -0.3550
19729TIP3   OH280601   4.973   0.639  12.943  0.2707 -0.1575 -0.6487
19729TIP3    H180602   4.898   0.582  12.955  0.5278 -0.3056  0.2822
19729TIP3    H280603   4.944   0.705  12.879 -1.3037  0.9569  1.1437
19730TIP3   OH280604   3.556   3.035   4.318  0.2587  0.2461 -0.0854
19730TIP3    H180605   3.474   3.081   4.337 -0.6730 -2.0534  2.1124
19730TIP3    H280606   3.529   2.944   4.305  2.3947 -0.4157 -0.2812
19731TIP3   OH280607   4.423   3.197  14.218 -0.4031 -0.0386 -0.0389
19731TIP3    H180608   4.353   3.133  14.209 -1.1125  0.7759 -0.3638
19731TIP3    H280609   4.388   3.264  14.276 -0.3820  1.0321 -1.2224
19732TIP3   OH280610   2.818   2.830  16.958 -0.2187 -0.2869  0.0539
19732TIP3    H180611   2.805   2.885  16.881 -0.6686 -0.9870 -0.3776
19732TIP3    H280612   2.907   2.851  16.988 -0.5807  1.0830  0.2369
19733TIP3   OH280613   2.374   3.687   5.558 -0.3414  0.7331 -0.1474
19733TIP3    H180614   2.468   3.666   5.562 -0.7290 -1.5773 -1.1994
19733TIP3    H280615   2.361   3.721   5.469 -0.6434 -0.0363 -0.4123
19734TIP3   OH280616   5.561   4.550  16.715 -0.0672 -0.2866  0.2388
19734TIP3    H180617   5.602   4.496  16.783 -0.1256 -1.4989 -0.6680
19734TIP3    H280618   5.470   4.560  16.744 -0.7597 -2.8359 -0.7930
19735TIP3   OH280619   0.351   1.945   1.337 -0.1558 -1.0713  0.1036
19735TIP3    H180620   0.334   1.923   1.429 -0.2786 -3.2553 -0.3985
19735TIP3    H280621   0.282   1.901   1.288  0.1019 -0.2189 -1.0875
19736TIP3   OH280622   6.531   1.257   1.567  0.2764 -0.1300 -0.6234
19736TIP3    H180623   6.452   1.206   1.583  2.0669 -2.7608  0.6213
19736TIP3    H280624   6.569   1.270   1.654  1.0143  1.4635 -1.1411
19737TIP3   OH280625   0.162   4.884   0.340 -0.8208  0.2514  0.2065
19737TIP3    H180626   0.139   4.812   0.282 -1.3754 -0.3977  1.2012
19737TIP3    H280627   0.078   4.921   0.367 -0.5663  0.6304  0.4892
19738TIP3   OH280628   3.522   2.456   0.629  0.0659 -0.0964 -0.0072
19738TIP3    H180629   3.525   2.382   0.569  1.2190  0.1283 -0.2536
19738TIP3    H280630   3.450   2.436   0.689  0.7779 -1.7276  0.3448
19739TIP3   OH280631   6.405   0.808   0.934 -0.2735 -0.1926 -0.3494
19739TIP3    H180632   6.452   0.795   0.852 -1.6925  1.2323 -1.4498
19739TIP3    H280633   6.365   0.895   0.926  0.9067  0.7659  2.5475
19740TIP3   OH280634   6.749   2.653  14.147  0.6806 -0.7892  0.1069
19740TIP3    H180635   6.743   2.749  14.144  1.4184 -0.7663 -1.2687
19740TIP3    H280636   6.692   2.628  14.220 -1.9671  0.4903 -1.3889
19741TIP3   OH280637   4.870   0.371   1.795 -0.2223  0.5213  0.1881
19741TIP3    H180638   4.865   0.314   1.717  0.8778 -0.9679  1.1406
19741TIP3    H280639   4.962   0.365   1.822 -0.3711  1.8238  1.0231
19742TIP3   OH280640   6.552   3.961  13.098 -0.1734  0.4836 -0.0059
19742TIP3    H180641   6.582   3.964  13.007 -0.3408  0.1286 -0.0721
19742TIP3    H280642   6.559   3.869  13.122  0.1717  0.6251  0.4399
19743TIP3   OH280643   6.077   2.195  13.314 -0.0151  0.2643  0.0001
19743TIP3    H180644   6.117   2.266  13.364  1.9768 -1.3631  0.8914
19743TIP3    H280645   6.151   2.140  13.287 -1.2785 -0.3669 -2.5011
19744TIP3   OH280646   1.431   1.374   1.757 -0.2363 -0.2000  0.0885
19744TIP3    H180647   1.464   1.381   1.668  1.3950 -1.4064  0.5554
19744TIP3    H280648   1.414   1.281   1.770 -0.7966  0.0026  0.9255
19745TIP3   OH280649   3.675   4.591   2.111  0.0030  0.2211  0.0324
19745TIP3    H180650   3.747   4.602   2.048  0.6571  0.5987  0.8272
19745TIP3    H280651   3.692   4.657   2.178 -0.7205 -0.1374  0.5811
19746TIP3   OH280652   4.688   6.176   2.632  0.3390 -0.2493 -0.0258
19746TIP3    H180653   4.740   6.133   2.700 -1.2128 -1.5761  0.4062
19746TIP3    H280654   4.598   6.145   2.648 -1.0896  3.7555  0.7756
19747TIP3   OH280655   1.874   1.735   1.986  0.2231 -0.2719 -0.3085
19747TIP3    H180656   1.880   1.755   1.892  0.2141  1.3373  0.0079
19747TIP3    H280657   1.959   1.698   2.008  1.1214  1.5792 -0.4903
19748TIP3   OH280658   1.762   4.498   2.202  0.0776  0.0602  0.0661
19748TIP3    H180659   1.669   4.476   2.197 -0.1711  1.3571 -1.6916
19748TIP3    H280660   1.774   4.528   2.292 -0.9720 -0.9744  0.5915
19749TIP3   OH280661   0.108   0.492  16.466 -0.0808  0.1273  0.0754
19749TIP3    H180662   0.024   0.538  16.459  0.6135  1.1844 -1.9576
19749TIP3    H280663   0.174   0.561  16.461  0.9798 -0.6104  2.2526
19750TIP3   OH280664   0.397   5.227  13.131 -0.8767  0.3019  0.0806
19750TIP3    H180665   0.308   5.215  13.099 -0.0140  0.9956 -2.9172
19750TIP3    H280666   0.419   5.318  13.108  1.3334 -0.5378 -1.5662
19751TIP3   OH280667   1.827   6.621   2.606 -0.0932 -0.5283 -0.3937
19751TIP3    H180668   1.796   6.607   2.695 -3.9432  2.1069 -1.0224
19751TIP3    H280669   1.877   6.702   2.610 -0.7272 -0.1133 -0.6542
19752TIP3   OH280670   1.001   5.619  13.116  0.1029 -0.1704 -0.0402
19752TIP3    H180671   0.939   5.546  13.117 -0.1735  0.0581  0.8973
19752TIP3    H280672   0.976   5.672  13.192  0.8099  0.4637 -0.2430
19753TIP3   OH280673   4.339   0.958   1.876 -0.4014  0.1613  0.0591
19753TIP3    H180674   4.384   0.876   1.858 -1.6450 -0.4098 -0.5772
19753TIP3    H280675   4.391   0.999   1.945  0.4120 -1.0075  0.1742
19754TIP3   OH280676   0.720   6.659   0.426 -0.0491 -0.4798  0.3876
19754TIP3    H180677   0.650   6.619   0.477  1.9659 -1.7364  2.3290
19754TIP3    H280678   0.786   6.683   0.490  0.2431  3.2246 -1.0559
19755TIP3   OH280679   3.820   6.372   1.246  0.3150  0.0382  0.8046
19755TIP3    H180680   3.905   6.407   1.219  0.5398 -0.3182  1.0468
19755TIP3    H280681   3.787   6.437   1.309 -0.2897  0.9607 -0.4129
19756TIP3   OH280682   3.984   0.282  12.061 -0.3528 -0.7581  0.2958
19756TIP3    H180683   3.901   0.235  12.071 -1.4467  1.1564  0.5545
19756TIP3    H280684   3.967   0.347  11.993  0.0463  1.4839  2.2332
19757TIP3   OH280685   1.407   1.078  15.232  0.2998 -0.8466  0.0383
19757TIP3    H180686   1.314   1.066  15.212  0.6585 -2.3633 -0.8654
19757TIP3    H280687   1.434   1.151  15.177 -0.3763 -0.2911  0.4239
19758TIP3   OH280688   5.904   0.583  13.698  0.0559 -0.6026 -0.1512
19758TIP3    H180689   5.988   0.545  13.722  0.6003  0.0720 -0.9451
19758TIP3    H280690   5.870   0.526  13.630  0.4533 -0.1962 -0.7011
19759TIP3   OH280691   4.789   5.578   0.531 -0.4046  0.3035  0.5675
19759TIP3    H180692   4.812   5.661   0.490 -0.2927  0.3885  0.7972
19759TIP3    H280693   4.803   5.513   0.463  2.3468  0.0979  1.1910
19760TIP3   OH280694   1.795   0.493  13.809 -0.2193  0.6157  0.1687
19760TIP3    H180695   1.727   0.540  13.759 -0.2111  1.2942  0.7725
19760TIP3    H280696   1.798   0.539  13.893  2.2774  1.8421 -0.4809
19761TIP3   OH280697   2.821   1.734  12.239  0.0223 -0.4181 -0.1828
19761TIP3    H180698   2.873   1.800  12.286 -2.3255  2.0100 -0.7771
19761TIP3    H280699   2.865   1.724  12.155 -0.7470  2.0895 -0.9430
19762TIP3   OH280700   5.497   2.730   0.630 -0.3601  0.7421  0.2809
19762TIP3    H180701   5.442   2.786   0.576 -0.0615  1.8371  1.0703
19762TIP3    H280702   5.587   2.751   0.603 -0.2841 -0.8069 -0.7880
19763TIP3   OH280703   0.013   2.180   4.755  0.0101 -0.5090  0.0589
19763TIP3    H180704   0.002   2.105   4.813 -1.5452  0.6411  1.3214
19763TIP3    H280705  -0.051   2.244   4.785  1.4466  1.4512 -0.8017
19764TIP3   OH280706   3.450   0.740  12.518 -0.0423 -0.5941 -0.7394
19764TIP3    H180707   3.528   0.745  12.463 -1.0984 -0.5431 -2.2969
19764TIP3    H280708   3.461   0.660  12.570  0.6746 -1.0125 -1.5243
19765TIP3   OH280709   4.851   1.778  17.067 -0.6494  0.7411  0.7442
19765TIP3    H180710   4.927   1.765  17.123 -0.3134  1.7697  0.5576
19765TIP3    H280711   4.778   1.787  17.127 -0.6880 -0.6099  0.9111
19766TIP3   OH280712   1.331   3.893  13.927  0.1891  0.1942 -0.6106
19766TIP3    H180713   1.388   3.955  13.881  1.1162 -1.0959 -1.2594
19766TIP3    H280714   1.325   3.928  14.016 -0.4383  1.9442 -1.3075
19767TIP3   OH280715   1.856   2.445  11.479 -0.3667  0.3825  0.3020
19767TIP3    H180716   1.905   2.506  11.424  2.5552  0.3105  2.5758
19767TIP3    H280717   1.915   2.371  11.492 -2.8225 -1.7990 -0.2434
19768TIP3   OH280718   6.457   4.769   5.094  0.1336  0.0602 -0.2803
19768TIP3    H180719   6.399   4.845   5.099  2.7260  2.0724  2.5159
19768TIP3    H280720   6.534   4.800   5.046  1.2102 -0.8071  0.8261
19769TIP3   OH280721   0.936   1.327   0.750  0.0298 -0.4132 -0.1697
19769TIP3    H180722   0.928   1.411   0.704  2.7399 -0.5795 -1.1649
19769TIP3    H280723   0.867   1.273   0.712 -1.7379  1.2712  0.4426
19770TIP3   OH280724   0.147   1.076  15.191 -0.2746 -0.0116 -0.0090
19770TIP3    H180725   0.094   1.000  15.216  1.7560 -2.1605 -1.6912
19770TIP3    H280726   0.205   1.090  15.265  0.0882 -0.8983 -0.1040
19771TIP3   OH280727   4.335   3.145  12.793  0.0274  0.3968  0.3744
19771TIP3    H180728   4.342   3.049  12.790 -0.9404  0.2815  1.3274
19771TIP3    H280729   4.342   3.172  12.702 -1.3138 -0.7121 -0.0979
19772TIP3   OH280730   5.474   0.334   3.427  0.1150 -0.4470 -0.6223
19772TIP3    H180731   5.534   0.261   3.440 -0.8891 -1.0029  1.3465
19772TIP3    H280732   5.397   0.296   3.385 -0.1085 -0.3837 -0.2777
19773TIP3   OH280733   4.013   2.433  13.487  0.1900  0.4948  0.4432
19773TIP3    H180734   4.006   2.343  13.455 -0.3602  0.5585  0.3751
19773TIP3    H280735   4.055   2.481  13.415  0.9256  0.1965  0.6690
19774TIP3   OH280736   3.494   3.317  12.173  0.3546  0.1484 -0.1333
19774TIP3    H180737   3.517   3.319  12.080 -2.3080  0.7862 -0.8869
19774TIP3    H280738   3.489   3.224  12.195  1.0362 -0.0050 -0.6203
19775TIP3   OH280739   2.102   4.367   3.735 -0.4004 -0.6047 -0.3039
19775TIP3    H180740   2.052   4.418   3.672 -1.2698 -0.2482  0.6466
19775TIP3    H280741   2.088   4.276   3.709 -3.5262 -0.6964  1.2630
19776TIP3   OH280742   5.606   4.480   4.753 -0.1971 -0.3853  0.0155
19776TIP3    H180743   5.548   4.407   4.731 -2.3316  0.9037  1.0327
19776TIP3    H280744   5.628   4.519   4.669 -1.3049 -0.5544 -0.3677
19777TIP3   OH280745   2.390   0.759  12.500 -0.1009 -0.3368  0.1243
19777TIP3    H180746   2.463   0.715  12.544  0.1393  1.1083  1.2618
19777TIP3    H280747   2.418   0.765  12.408  1.7464  1.1138  0.7105
19778TIP3   OH280748   2.221   0.456   0.287  0.3259  0.2601  0.2646
19778TIP3    H180749   2.210   0.551   0.281 -0.2548  0.2067  0.3471
19778TIP3    H280750   2.149   0.421   0.234 -0.8206 -0.1511  1.9811
19779TIP3   OH280751   6.619   5.349  14.045  0.2371  0.1270 -0.3390
19779TIP3    H180752   6.621   5.254  14.043  0.7915  0.0632  1.4498
19779TIP3    H280753   6.567   5.374  13.969 -2.0246 -1.6841  0.5027
19780TIP3   OH280754   6.569   1.288   5.155 -0.2818 -0.3949 -0.1163
19780TIP3    H180755   6.612   1.271   5.071 -1.1283 -1.4937 -0.3524
19780TIP3    H280756   6.641   1.295   5.218  0.3273 -0.2300 -0.8207
19781TIP3   OH280757   0.427   6.754  12.027 -0.1284 -0.1194 -0.3596
19781TIP3    H180758   0.348   6.775  11.976 -0.1554  0.5038 -0.0735
19781TIP3    H280759   0.482   6.704  11.967 -1.1739 -1.4507 -0.2422
19782TIP3   OH280760   1.129   4.936   5.123  0.1157 -0.1901 -0.0926
19782TIP3    H180761   1.190   4.995   5.168 -1.6078  0.5006  1.5021
19782TIP3    H280762   1.175   4.852   5.120  0.1467 -0.5274  3.8103
19783TIP3   OH280763   2.622   2.732   4.098 -0.5122 -0.2846  0.2734
19783TIP3    H180764   2.610   2.693   4.185 -0.7890 -1.9063 -0.4469
19783TIP3    H280765   2.635   2.825   4.115  0.1875 -0.6687  2.1054
19784TIP3   OH280766   2.031   3.445   0.014 -0.8040 -0.6289 -0.2030
19784TIP3    H180767   1.942   3.449  -0.020 -1.9463  1.7162  2.6181
19784TIP3    H280768   2.024   3.396   0.095  0.1031  0.8478  0.8296
19785TIP3   OH280769   3.406   0.572  16.298 -0.4828 -0.0403 -0.0523
19785TIP3    H180770   3.469   0.562  16.227 -2.3760 -0.6344 -1.7215
19785TIP3    H280771   3.460   0.583  16.376  1.7224 -2.0578 -1.1606
19786TIP3   OH280772   1.784   1.523  16.657  0.0990 -0.6611 -0.0233
19786TIP3    H180773   1.734   1.481  16.587  0.5945 -0.0188 -0.7727
19786TIP3    H280774   1.732   1.507  16.736 -1.3740  0.1223 -0.8001
19787TIP3   OH280775   2.652   4.352   0.611  0.6807 -0.0074 -0.3301
19787TIP3    H180776   2.599   4.397   0.676  2.0149 -0.1772  0.9247
19787TIP3    H280777   2.627   4.260   0.618 -1.2465  0.3020 -2.1251
19788TIP3   OH280778   4.403   3.036  14.764  0.0819 -0.7929 -0.7249
19788TIP3    H180779   4.368   2.955  14.727  1.0466 -2.2359  1.2947
19788TIP3    H280780   4.354   3.047  14.846  2.3748 -1.3847  0.8160
19789TIP3   OH280781   4.265   3.184  16.513 -0.4167 -0.8318 -0.0080
19789TIP3    H180782   4.285   3.250  16.446 -0.8672 -1.5769 -0.8966
19789TIP3    H280783   4.248   3.234  16.592 -2.4941  0.2738 -1.0703
19790TIP3   OH280784   1.417   2.341   6.687  0.3517 -0.1165  1.1655
19790TIP3    H180785   1.464   2.347   6.770  1.1778 -0.3998  0.7224
19790TIP3    H280786   1.428   2.250   6.660 -1.0421 -0.3835  1.3821
19791TIP3   OH280787   5.235   4.676  14.732  0.0231  0.0557  0.1308
19791TIP3    H180788   5.239   4.618  14.656  0.8166 -0.2043  0.3617
19791TIP3    H280789   5.155   4.650  14.777 -0.2525 -0.0516 -0.4052
19792TIP3   OH280790   5.589   3.868  16.385 -0.1116 -0.4273  0.4625
19792TIP3    H180791   5.659   3.934  16.379 -0.2146  0.0700  3.2603
19792TIP3    H280792   5.564   3.869  16.478 -1.6909 -2.8305  0.1352
19793TIP3   OH280793   0.485   6.585   6.253 -0.1815 -0.4091  0.1518
19793TIP3    H180794   0.414   6.539   6.208 -0.2360 -0.1991  0.0227
19793TIP3    H280795   0.534   6.627   6.182 -0.6907  0.5322  0.3420
19794TIP3   OH280796   4.282   6.321   2.152  0.4298 -0.4003  0.0307
19794TIP3    H180797   4.325   6.263   2.089 -0.0529  1.1761 -1.8637
19794TIP3    H280798   4.354   6.356   2.205  1.2707  0.3933 -1.5453
19795TIP3   OH280799   2.068   5.515   1.821  0.1939  0.1178  0.7191
19795TIP3    H180800   2.089   5.434   1.866  0.1947  1.2059  2.8018
19795TIP3    H280801   2.087   5.497   1.729  2.4465 -1.4988  1.4066
19796TIP3   OH280802   4.279   1.879  12.556  0.4271  0.1254 -0.1697
19796TIP3    H180803   4.208   1.828  12.595 -0.2004  1.3087  0.2783
19796TIP3    H280804   4.357   1.850  12.602 -0.3567  1.8391  2.4344
19797TIP3   OH280805   1.158   4.469   2.968 -0.2960  0.5450  0.3050
19797TIP3    H180806   1.127   4.414   2.896  0.8930  1.0619 -0.6338
19797TIP3    H280807   1.091   4.537   2.977 -0.6904  0.1984  0.0086
19798TIP3   OH280808   1.058   2.366   5.228  0.1256  0.0089  0.1212
19798TIP3    H180809   1.087   2.416   5.304  0.3101  0.7551 -0.4293
19798TIP3    H280810   0.963   2.374   5.228  0.0293 -1.0002  0.9501
19799TIP3   OH280811   0.019   4.610  16.330 -0.4137 -0.0406 -0.1550
19799TIP3    H180812   0.068   4.692  16.326 -1.0065  0.2664 -1.6265
19799TIP3    H280813   0.026   4.583  16.422 -0.1660  1.6207  0.3513
19800TIP3   OH280814   3.619   3.729  16.907 -0.8471 -0.0381  0.1167
19800TIP3    H180815   3.598   3.738  16.814  0.7304  1.1428 -0.1683
19800TIP3    H280816   3.555   3.783  16.951 -1.5402 -0.5175 -0.2804
19801TIP3   OH280817   6.542   4.250  12.764 -0.6896 -0.1870 -0.9809
19801TIP3    H180818   6.471   4.233  12.825  1.5889 -0.3869  1.8121
19801TIP3    H280819   6.548   4.346  12.761 -0.3253 -0.1841 -0.2652
19802TIP3   OH280820   1.659   5.880  12.895 -0.8227 -0.5479  0.3571
19802TIP3    H180821   1.589   5.871  12.831 -0.0976 -0.5292 -0.4478
19802TIP3    H280822   1.715   5.804  12.881  0.5275  0.5589 -0.5286
19803TIP3   OH280823   1.185   4.097  14.975  0.2846  0.0966  0.1852
19803TIP3    H180824   1.243   4.039  14.925 -0.3619  1.0375 -1.7680
19803TIP3    H280825   1.137   4.146  14.908  0.1494  2.2447  1.7547
19804TIP3   OH280826   6.459   3.114   4.205  0.6636 -0.1369  0.3044
19804TIP3    H180827   6.411   3.103   4.123  2.5824  0.2496 -0.9364
19804TIP3    H280828   6.494   3.028   4.224 -0.3394 -0.3833  1.1255
19805TIP3   OH280829   5.716   4.959   5.911  0.4032  0.3561 -0.0262
19805TIP3    H180830   5.647   4.907   5.952  0.4385  0.0995 -0.2949
19805TIP3    H280831   5.795   4.937   5.960  0.5278 -0.2786 -0.5090
19806TIP3   OH280832   4.014   3.734  11.738 -0.1144 -0.6176 -0.1382
19806TIP3    H180833   3.990   3.799  11.803  1.7331 -1.4766  1.4692
19806TIP3    H280834   3.954   3.751  11.664 -2.6667  0.0296  1.9317
19807TIP3   OH280835   1.646   3.509  12.773 -0.5889 -0.0487  0.7273
19807TIP3    H180836   1.644   3.559  12.691 -0.3357 -0.3449  0.5378
19807TIP3    H280837   1.586   3.436  12.758 -0.0370 -0.4805  0.5506
19808TIP3   OH280838   1.794   5.906   4.670  0.3995 -0.1357 -0.0767
19808TIP3    H180839   1.866   5.960   4.636  1.1875 -0.6344  0.7682
19808TIP3    H280840   1.815   5.817   4.642 -0.6763 -0.0972 -1.0967
19809TIP3   OH280841   1.659   2.881  12.114  0.2246 -0.1214  0.0461
19809TIP3    H180842   1.575   2.925  12.102  0.5694  0.3661 -0.6156
19809TIP3    H280843   1.695   2.920  12.194 -1.1178 -1.8555  1.5750
19810TIP3   OH280844   1.405   6.247  12.574  0.2971  0.4046 -0.2651
19810TIP3    H180845   1.461   6.280  12.644 -2.4796  1.6102  1.5423
19810TIP3    H280846   1.447   6.279  12.494  3.6334 -1.0952  0.7059
19811TIP3   OH280847   6.748   5.383   0.628 -0.0169  0.2919  0.0207
19811TIP3    H180848   6.797   5.363   0.708  1.2819 -0.9628 -1.0472
19811TIP3    H280849   6.807   5.438   0.576 -0.8549  1.1066 -0.1000
19812TIP3   OH280850   2.569   4.381   5.743 -0.7516  0.0373 -0.0753
19812TIP3    H180851   2.586   4.455   5.801  1.5214  1.0135 -1.7931
19812TIP3    H280852   2.503   4.414   5.681 -0.6896  0.1982 -0.0574
19813TIP3   OH280853   6.331   1.506   3.523 -0.4734  0.7056  0.0458
19813TIP3    H180854   6.262   1.568   3.500 -2.4989 -2.0186 -1.6513
19813TIP3    H280855   6.286   1.432   3.563  1.4228 -1.2077 -1.1487
19814TIP3   OH280856   4.363   1.402  15.690  0.2263  0.0021  0.3588
19814TIP3    H180857   4.362   1.440  15.602  1.6075  0.0293  0.3364
19814TIP3    H280858   4.293   1.447  15.737 -0.1621  0.3713 -0.5693
19815TIP3   OH280859   3.497   2.201  12.043  0.5160 -0.5537 -0.2937
19815TIP3    H180860   3.468   2.206  12.134  0.4846  0.4806 -0.3446
19815TIP3    H280861   3.476   2.288  12.007 -1.2217 -1.5290 -1.8200
19816TIP3   OH280862   5.322   6.707  12.344 -0.1598 -0.6364 -0.0598
19816TIP3    H180863   5.240   6.675  12.382  0.4845 -0.9897  1.0961
19816TIP3    H280864   5.356   6.769  12.409 -0.0201  0.3037 -1.0122
19817TIP3   OH280865   2.436   4.465   5.203 -0.0372 -0.0178  0.2324
19817TIP3    H180866   2.510   4.410   5.228 -0.5182 -1.3129 -1.0577
19817TIP3    H280867   2.375   4.405   5.160  0.1200  1.7700 -2.7028
19818TIP3   OH280868   3.139   5.511   2.935 -0.7874  0.1661 -0.2024
19818TIP3    H180869   3.085   5.478   2.862 -0.5039 -1.0333  0.1089
19818TIP3    H280870   3.105   5.465   3.012 -0.6720  0.9591  0.3318
19819TIP3   OH280871   3.672   4.319   0.103 -0.2262  0.4799 -0.0293
19819TIP3    H180872   3.597   4.282   0.149  0.7297 -1.3901  0.1274
19819TIP3    H280873   3.724   4.360   0.172  0.9040 -1.8011  0.5820
19820TIP3   OH280874   6.074   2.475  11.506 -0.5465 -0.8953 -0.3563
19820TIP3    H180875   6.089   2.557  11.552  0.8469 -1.4077  0.1626
19820TIP3    H280876   6.074   2.498  11.413  1.0175 -0.4591 -0.2712
19821TIP3   OH280877   3.548   6.230  17.035  0.3963 -0.0084  0.2733
19821TIP3    H180878   3.514   6.162  16.977  0.9628  1.3361 -1.7170
19821TIP3    H280879   3.481   6.239  17.103  0.1862 -2.3121  0.4327
19822TIP3   OH280880   0.592   6.661  16.119 -0.1174  0.2374 -0.4422
19822TIP3    H180881   0.500   6.661  16.146 -0.1468  1.8472 -0.4261
19822TIP3    H280882   0.602   6.579  16.071 -1.8158  0.4322 -1.2313
19823TIP3   OH280883   5.923   4.653  15.392 -0.6736 -0.8041 -0.1461
19823TIP3    H180884   6.015   4.672  15.375 -0.1503  0.3597  3.1089
19823TIP3    H280885   5.875   4.706  15.329  0.9123  1.1218  0.1734
19824TIP3   OH280886   2.886   2.648   5.520 -0.1538  0.0857 -0.1225
19824TIP3    H180887   2.870   2.555   5.533 -0.1226  0.2186  1.0134
19824TIP3    H280888   2.799   2.688   5.523 -0.0098  0.3843  2.2808
19825TIP3   OH280889   4.811   1.716  16.330  0.1362 -0.2335 -0.1874
19825TIP3    H180890   4.742   1.758  16.382  0.9211  0.4573  0.3175
19825TIP3    H280891   4.806   1.760  16.245 -0.9263 -1.1330 -0.6257
19826TIP3   OH280892   1.405   6.506  14.031  0.4585 -0.3795  0.2742
19826TIP3    H180893   1.465   6.502  13.957  0.9823  1.8546  0.4991
19826TIP3    H280894   1.322   6.537  13.994 -0.0453 -1.6933  0.2555
19827TIP3   OH280895   0.375   4.953   6.954 -0.4035 -0.6101 -0.1974
19827TIP3    H180896   0.346   4.906   7.033  0.6725  0.9851  1.2131
19827TIP3    H280897   0.401   5.039   6.986 -1.2286  0.5809 -2.5328
19828TIP3   OH280898   1.261   1.889   5.457  0.3639  0.0667  0.1764
19828TIP3    H180899   1.322   1.836   5.508  1.2202  0.4879 -0.3899
19828TIP3    H280900   1.191   1.911   5.519  0.3195 -1.1595  0.5915
19829TIP3   OH280901   2.153   4.055   2.674  0.2236  0.2653  0.5977
19829TIP3    H180902   2.154   3.972   2.626  1.2123  0.8701 -0.5074
19829TIP3    H280903   2.074   4.099   2.643  0.6231  0.4620 -0.1772
19830TIP3   OH280904   3.138   1.361   5.156  0.0637  0.3588  0.5948
19830TIP3    H180905   3.109   1.313   5.233 -1.2553  1.1485  0.6215
19830TIP3    H280906   3.172   1.443   5.192  1.2965 -0.0797  0.4688
19831TIP3   OH280907   1.320   6.492  10.551 -0.1704 -0.3219  0.9936
19831TIP3    H180908   1.298   6.556  10.483 -0.1624 -1.3819 -0.0355
19831TIP3    H280909   1.410   6.511  10.575  0.2008 -0.6501 -0.1146
19832TIP3   OH280910   3.542   5.752  16.680  0.5645  0.1329  0.1313
19832TIP3    H180911   3.451   5.731  16.656  0.7230 -0.6149  0.1665
19832TIP3    H280912   3.547   5.847  16.672 -0.4326  0.2631  0.8535
19833TIP3   OH280913   4.847   0.671  13.590 -0.2630 -0.4271 -0.5169
19833TIP3    H180914   4.832   0.641  13.680  0.2811  0.9407  0.0615
19833TIP3    H280915   4.939   0.652  13.574 -0.4380 -0.9477 -0.8952
19834TIP3   OH280916   0.799   4.722   0.943  0.3065 -0.4220 -0.6700
19834TIP3    H180917   0.882   4.677   0.925  0.7966 -0.2667  1.0546
19834TIP3    H280918   0.745   4.703   0.866  2.1576  0.0546 -2.1646
19835TIP3   OH280919   4.873   6.636  16.661  0.7967  0.3698 -0.1341
19835TIP3    H180920   4.780   6.646  16.640  0.9651  1.7580 -0.3536
19835TIP3    H280921   4.877   6.647  16.756  0.6603 -0.4100 -0.0356
19836TIP3   OH280922   3.811   5.259  17.118 -0.1116  1.3407 -0.0454
19836TIP3    H180923   3.764   5.262  17.034 -1.3179 -4.0683  0.0979
19836TIP3    H280924   3.746   5.287  17.183 -1.1387  0.0361 -0.4673
19837TIP3   OH280925   3.327   5.536  16.345  0.4320 -0.2035 -0.7415
19837TIP3    H180926   3.382   5.485  16.404 -2.9161 -2.4699  0.7260
19837TIP3    H280927   3.339   5.495  16.259 -0.4279 -2.0364 -0.0282
19838TIP3   OH280928   0.617   0.470  13.498  0.3272 -0.2362  0.1335
19838TIP3    H180929   0.551   0.534  13.523 -1.4672 -1.8849 -0.1369
19838TIP3    H280930   0.690   0.485  13.558 -1.4755 -0.2657  2.4412
19839TIP3   OH280931   5.796   5.744  11.526 -0.1147 -0.0422  0.1753
19839TIP3    H180932   5.882   5.705  11.509 -0.7754 -0.4037 -3.0228
19839TIP3    H280933   5.811   5.805  11.597  2.8228 -0.0490 -0.2977
19840TIP3   OH280934   2.585   3.045  11.913 -0.7129  0.2482  0.8778
19840TIP3    H180935   2.669   3.085  11.889 -0.8462  1.1208  1.7869
19840TIP3    H280936   2.608   2.960  11.951 -0.2534  0.4023  0.9514
19841TIP3   OH280937   0.856   2.402   1.445 -0.0154 -0.1862 -0.2900
19841TIP3    H180938   0.841   2.341   1.373  0.9033 -2.1854  1.1155
19841TIP3    H280939   0.784   2.465   1.439  0.3821  0.1101 -3.2829
19842TIP3   OH280940   5.863   2.270   6.258 -0.6534  0.6290 -0.1699
19842TIP3    H180941   5.789   2.237   6.308 -0.9780 -0.7862 -1.5015
19842TIP3    H280942   5.939   2.228   6.297 -0.8422  0.0135 -0.4527
19843TIP3   OH280943   0.871   2.881   4.114 -0.1948 -0.0496 -0.0487
19843TIP3    H180944   0.831   2.964   4.141 -0.4940  0.2466 -1.3476
19843TIP3    H280945   0.964   2.900   4.106 -0.2933  0.2178 -0.5532
19844TIP3   OH280946   3.120   5.747   6.101  0.1620 -0.4161  0.7295
19844TIP3    H180947   3.115   5.730   6.007  0.4452  0.1945  0.6011
19844TIP3    H280948   3.034   5.721   6.134 -0.4122  0.6025  0.0971
19845TIP3   OH280949   1.646   6.633   1.590  0.3093  0.0913  0.2741
19845TIP3    H180950   1.701   6.694   1.639 -1.0650 -0.1524  2.2520
19845TIP3    H280951   1.661   6.654   1.498  2.6227  0.9308  0.7950
19846TIP3   OH280952   2.381   1.089  12.257  0.3117 -0.6355 -0.0416
19846TIP3    H180953   2.402   1.114  12.346  0.7609  1.7345 -0.7482
19846TIP3    H280954   2.462   1.052  12.221  0.4268 -0.6145  0.2010
19847TIP3   OH280955   0.224   6.145  17.007 -0.0407 -0.1356 -0.3403
19847TIP3    H180956   0.129   6.145  17.017 -0.0820 -3.4101  0.4029
19847TIP3    H280957   0.258   6.139  17.096  0.7582 -0.9920 -0.6826
19848TIP3   OH280958   3.415   3.571  11.714  0.2112 -0.1488  0.4479
19848TIP3    H180959   3.389   3.541  11.802  1.3938  3.1960  2.0918
19848TIP3    H280960   3.510   3.561  11.713  0.1820 -0.3490 -0.5455
19849TIP3   OH280961   1.918   3.575   3.290 -0.2349  0.4267  0.0595
19849TIP3    H180962   1.825   3.590   3.273 -0.6234 -0.8178  0.8944
19849TIP3    H280963   1.957   3.564   3.203 -0.5859  2.3040 -0.3704
19850TIP3   OH280964   2.041   6.283  12.646 -0.1228 -0.0730 -0.3599
19850TIP3    H180965   2.031   6.372  12.613  1.5693  0.4292  0.3923
19850TIP3    H280966   2.035   6.292  12.741 -1.4409 -1.0032 -0.3284
19851TIP3   OH280967   6.635   0.803  11.358  0.0431  0.0531 -0.6675
19851TIP3    H180968   6.699   0.780  11.426  0.7573 -0.6693 -1.5463
19851TIP3    H280969   6.611   0.719  11.319 -1.8813  0.2510 -0.0226
19852TIP3   OH280970   3.611   5.636   4.573 -0.4031 -0.4496  0.5303
19852TIP3    H180971   3.603   5.559   4.517  2.4857  0.4931 -1.3448
19852TIP3    H280972   3.524   5.676   4.571 -0.6604 -0.9059 -2.6778
19853TIP3   OH280973   4.407   4.856   0.634 -0.2678 -0.2999  0.2382
19853TIP3    H180974   4.442   4.924   0.692  0.4130  0.0475 -0.5589
19853TIP3    H280975   4.340   4.901   0.583  1.3874  0.2811 -1.5370
19854TIP3   OH280976   4.768   6.662  12.548  0.0556  0.1267  0.2004
19854TIP3    H180977   4.774   6.755  12.525 -3.4293  0.0389 -1.6115
19854TIP3    H280978   4.688   6.655  12.599 -1.1071 -2.1641 -1.7538
19855TIP3   OH280979   5.879   1.214  14.753 -0.8066 -0.4212  0.1065
19855TIP3    H180980   5.896   1.275  14.681 -0.5606 -1.0803 -0.4037
19855TIP3    H280981   5.791   1.235  14.782 -0.8156  0.0143 -0.2312
19856TIP3   OH280982   0.848   0.549  12.194 -0.0033  0.5019 -0.0657
19856TIP3    H180983   0.889   0.631  12.221  0.9836 -0.0659  0.2338
19856TIP3    H280984   0.757   0.572  12.176  0.6215  1.9955 -1.6276
19857TIP3   OH280985   4.518   3.081   6.045 -0.3166 -0.7436  0.5993
19857TIP3    H180986   4.564   3.163   6.062 -0.7831 -0.3361 -0.0423
19857TIP3    H280987   4.520   3.071   5.950  1.1524 -2.3267  0.7554
19858TIP3   OH280988   1.259   6.716  13.343 -0.1865  0.2491 -0.0847
19858TIP3    H180989   1.288   6.759  13.263 -0.1731 -1.3612 -0.9782
19858TIP3    H280990   1.257   6.786  13.408  3.9589  0.8484 -0.3671
19859TIP3   OH280991   5.713   1.718   2.924  0.0565  0.0831  0.4374
19859TIP3    H180992   5.789   1.764   2.888  0.9313 -1.0369  0.7803
19859TIP3    H280993   5.732   1.625   2.909  0.2149 -0.4211  3.2163
19860TIP3   OH280994   2.589   2.998   2.029 -0.7317  0.3235 -0.4432
19860TIP3    H180995   2.682   3.023   2.033 -0.1848 -0.6077 -3.8616
19860TIP3    H280996   2.547   3.053   2.096  2.2691  0.5526  1.4530
19861TIP3   OH280997   5.109   4.697   2.487  0.2448 -0.4929  0.5317
19861TIP3    H180998   5.076   4.618   2.446 -2.6079  0.8392  0.0189
19861TIP3    H280999   5.195   4.712   2.446 -0.8517 -1.2158 -2.2449
19862TIP3   OH281000   4.498   0.665  14.118  0.0317  0.3653 -0.1116
19862TIP3    H181001   4.424   0.724  14.103  0.0275  0.5078  0.4640
19862TIP3    H281002   4.457   0.579  14.129  0.0118  0.3099 -0.5822
19863TIP3   OH281003   5.023   5.831  12.468  0.0056  0.1192  0.1007
19863TIP3    H181004   5.007   5.909  12.521  3.7117  0.5260  0.8746
19863TIP3    H281005   5.106   5.797  12.501 -0.0657 -2.5396 -2.1594
19864TIP3   OH281006   2.635   0.317   1.992 -0.0642 -0.0735  0.0176
19864TIP3    H181007   2.625   0.403   2.032 -1.5536 -1.2896  2.5565
19864TIP3    H281008   2.696   0.271   2.050  1.8769 -0.3437 -2.1149
19865TIP3   OH281009   5.548   4.143  15.202 -0.2379  0.2511  0.0347
19865TIP3    H181010   5.611   4.170  15.269  1.2597 -0.7431 -0.9245
19865TIP3    H281011   5.516   4.226  15.165  0.9720  0.7867  0.1310
19866TIP3   OH281012   5.991   0.523  12.271  0.1746  0.4431  0.2987
19866TIP3    H181013   6.040   0.525  12.189  1.7197 -1.5147  1.0996
19866TIP3    H281014   5.909   0.479  12.249 -0.4746  2.0592 -0.6523
19867TIP3   OH281015   1.003   5.921  11.979  0.0774 -0.1353 -0.7721
19867TIP3    H181016   0.960   6.006  11.970 -0.6270 -0.5130 -0.9716
19867TIP3    H281017   0.936   5.857  11.958 -0.0938 -0.8602  1.6733
19868TIP3   OH281018   3.451   0.082  16.289 -0.4619  0.0791 -0.2079
19868TIP3    H181019   3.420   0.067  16.379 -0.6131 -1.9531 -0.5508
19868TIP3    H281020   3.543   0.105  16.299 -0.9253  1.8070  0.5486
19869TIP3   OH281021   5.123   5.394   0.959 -0.0238 -0.0690  0.5959
19869TIP3    H181022   5.085   5.336   1.025  0.8083 -0.4485  0.7524
19869TIP3    H281023   5.065   5.386   0.883  0.1895 -1.2594  0.5503
19870TIP3   OH281024   1.360   2.206   0.438 -0.1202  0.6367  0.2506
19870TIP3    H181025   1.307   2.128   0.425  2.2572 -1.1592  0.6514
19870TIP3    H281026   1.447   2.182   0.406  1.1277  2.5202  1.9471
19871TIP3   OH281027   6.321   0.248   0.753  0.5022  0.2283 -0.5018
19871TIP3    H181028   6.281   0.272   0.837 -1.5128 -1.1663 -0.9781
19871TIP3    H281029   6.415   0.253   0.769  0.1732  0.4764  1.7064
19872TIP3   OH281030   5.701   1.064  15.277  0.2468  0.2633  0.3358
19872TIP3    H181031   5.726   1.117  15.352  0.7224  1.4417 -0.6159
19872TIP3    H281032   5.723   0.974  15.302 -1.2339  0.3606  2.2594
19873TIP3   OH281033   6.371   3.876   2.229 -0.1691 -0.5765 -0.2517
19873TIP3    H181034   6.380   3.967   2.257  0.8419 -0.6959 -0.1253
19873TIP3    H281035   6.411   3.825   2.299 -0.2131 -1.0753 -0.5835
19874TIP3   OH281036   5.759   1.605   0.629 -0.3638 -0.3067  0.2810
19874TIP3    H181037   5.850   1.617   0.657  0.2817 -0.4410 -1.6032
19874TIP3    H281038   5.715   1.566   0.704  1.8533 -3.0824  0.2794
19875TIP3   OH281039   2.478   4.481   3.676 -0.7034  0.0752 -0.2984
19875TIP3    H181040   2.520   4.419   3.616 -0.6304 -0.0989 -0.0722
19875TIP3    H281041   2.433   4.543   3.619 -1.6946 -0.8173 -0.5322
19876TIP3   OH281042   1.241   4.199   4.041 -0.5236  0.3488 -0.2781
19876TIP3    H181043   1.317   4.250   4.016 -0.2473  0.2916  0.4160
19876TIP3    H281044   1.276   4.113   4.064 -1.0228 -0.2839 -1.7874
19877TIP3   OH281045   5.090   4.734   0.981 -0.1461  0.1355 -0.0142
19877TIP3    H181046   5.107   4.828   0.970  0.1301  0.0172 -0.6397
19877TIP3    H281047   5.081   4.701   0.892  0.0556 -0.4931  0.1952
19878TIP3   OH281048   2.225   6.558   5.600 -0.0525 -0.0527 -0.4772
19878TIP3    H181049   2.262   6.473   5.578 -0.3025  0.0663 -1.3984
19878TIP3    H281050   2.180   6.543   5.684 -1.6502 -1.3129 -1.4924
19879TIP3   OH281051   0.522   3.333   0.119 -0.0045 -0.2947  0.2836
19879TIP3    H181052   0.465   3.407   0.138  0.4775  0.2297 -0.2497
19879TIP3    H281053   0.482   3.290   0.043  0.0876 -0.1697  0.1640
19880TIP3   OH281054   6.631   3.213  14.499 -0.0910 -0.3136  0.3685
19880TIP3    H181055   6.579   3.178  14.571 -0.2185  1.7737  1.3472
19880TIP3    H281056   6.622   3.308  14.505  1.8128  0.0341 -0.9676
19881TIP3   OH281057   0.535   1.994  15.828 -0.4386  0.6889  0.1887
19881TIP3    H181058   0.440   1.997  15.818 -0.4016  0.7700 -0.1825
19881TIP3    H281059   0.563   2.084  15.815 -0.1640  0.4063 -1.4675
19882TIP3   OH281060   0.299   1.147  16.413 -0.2802  0.4805 -0.6749
19882TIP3    H181061   0.327   1.057  16.425  1.5173  1.2250  1.4397
19882TIP3    H281062   0.356   1.182  16.345 -0.8112  0.1111 -1.3158
19883TIP3   OH281063   1.352   0.988  12.573  0.3001 -0.1797 -0.3747
19883TIP3    H181064   1.438   1.026  12.587  0.8831 -1.6803  0.3376
19883TIP3    H281065   1.366   0.919  12.508 -0.0005 -1.5403  0.9512
19884TIP3   OH281066   6.351   4.341   3.205  0.2061 -0.1799 -0.0990
19884TIP3    H181067   6.338   4.372   3.115 -0.5763  1.0861  0.4248
19884TIP3    H281068   6.436   4.298   3.203  1.2184  1.7453 -0.9632
19885TIP3   OH281069   2.281   6.158  13.286  0.2463  0.0119 -0.3669
19885TIP3    H181070   2.252   6.100  13.215  0.5232 -1.7090  0.8521
19885TIP3    H281071   2.373   6.136  13.298 -0.0928 -0.6687  1.3341
19886TIP3   OH281072   4.862   0.192   0.045 -0.3992  0.4550 -0.0670
19886TIP3    H181073   4.867   0.241  -0.037 -0.0368  0.9976  0.2661
19886TIP3    H281074   4.863   0.100   0.019  1.1677  0.5984 -0.6145
19887TIP3   OH281075   6.749   5.197  16.459  0.1519  0.4666 -0.6876
19887TIP3    H181076   6.659   5.172  16.439  0.3982 -0.6889 -0.4379
19887TIP3    H281077   6.742   5.287  16.492 -0.9763  0.2113 -0.1671
19888TIP3   OH281078   4.417   2.792   5.296 -0.4463 -0.1177  0.6670
19888TIP3    H181079   4.439   2.850   5.223  2.4339 -1.9121 -0.0484
19888TIP3    H281080   4.370   2.719   5.255 -0.5363 -0.1982  0.9155
19889TIP3   OH281081   5.345   4.267   0.398 -0.3916 -0.0336  0.5313
19889TIP3    H181082   5.267   4.217   0.374 -0.5419 -0.2389  1.4238
19889TIP3    H281083   5.387   4.215   0.466 -0.4097  0.9093  1.2961
19890TIP3   OH281084   6.611   6.377   4.359  0.1661  0.2433 -0.2107
19890TIP3    H181085   6.571   6.426   4.430 -0.6501 -0.9532  0.1871
19890TIP3    H281086   6.693   6.344   4.395  0.0679  0.1873 -0.0378
19891TIP3   OH281087   3.718   4.769   4.752 -0.2739 -0.0724  0.4111
19891TIP3    H181088   3.762   4.686   4.766 -0.6256 -0.0354  1.9753
19891TIP3    H281089   3.769   4.832   4.802 -0.6054  0.4585  0.0952
19892TIP3   OH281090   2.252   1.261  15.710  0.0479 -0.7558  0.0935
19892TIP3    H181091   2.183   1.200  15.683 -0.7684 -0.2609  0.9919
19892TIP3    H281092   2.318   1.205  15.752 -1.5697 -0.9028  2.6618
19893TIP3   OH281093   3.298   6.507   3.253 -0.2754 -0.0795  0.6608
19893TIP3    H181094   3.348   6.552   3.320  1.8346  0.3951 -1.1241
19893TIP3    H281095   3.229   6.569   3.229  1.0646  1.2310  0.0197
19894TIP3   OH281096   2.139   5.256   3.844  0.3314 -0.0317 -0.2395
19894TIP3    H181097   2.165   5.334   3.796 -1.5050  0.8994  0.1827
19894TIP3    H281098   2.158   5.183   3.784  1.2803  0.7849 -0.9662
19895TIP3   OH281099   1.488   2.430   2.723  0.2570  0.0078 -0.3075
19895TIP3    H181100   1.465   2.473   2.640 -0.5245 -2.0698 -1.2247
19895TIP3    H281101   1.423   2.360   2.732  2.1832 -1.7541  0.5049
19896TIP3   OH281102   4.465   1.507  15.429 -0.0556  0.8509 -0.3070
19896TIP3    H181103   4.519   1.429  15.413 -1.3533 -0.2081  0.2801
19896TIP3    H281104   4.464   1.553  15.345 -0.5106 -0.5849 -1.1277
19897TIP3   OH281105   2.575   5.830   3.193  0.2025 -0.4527  0.3376
19897TIP3    H181106   2.507   5.803   3.132  0.6168  1.4530 -1.0825
19897TIP3    H281107   2.655   5.790   3.159  0.2284 -0.4272  0.3680
19898TIP3   OH281108   6.066   0.794  15.905  0.0452 -0.2335 -0.3882
19898TIP3    H181109   6.099   0.877  15.869  2.0574 -0.9404 -0.3218
19898TIP3    H281110   5.993   0.771  15.847  1.7173 -0.1731 -2.6879
19899TIP3   OH281111   5.469   6.183  11.408 -0.1640 -0.2113 -0.2648
19899TIP3    H181112   5.498   6.137  11.329  0.8529  1.6928 -1.0704
19899TIP3    H281113   5.461   6.115  11.474 -0.0887 -1.7282 -1.7510
19900TIP3   OH281114   1.802   4.755   5.353  0.2241 -0.0360 -0.2233
19900TIP3    H181115   1.857   4.679   5.337 -2.0611 -1.5807 -1.1464
19900TIP3    H281116   1.825   4.816   5.283  0.1452 -1.0332 -1.1441
19901TIP3   OH281117   3.574   1.601  14.319 -0.6982  0.3718 -0.3742
19901TIP3    H181118   3.568   1.646  14.404 -0.0039  1.4342 -0.8595
19901TIP3    H281119   3.498   1.634  14.270 -0.5933  0.4552 -0.4801
19902TIP3   OH281120   5.586   6.448   4.253 -0.0414  1.0362  0.3471
19902TIP3    H181121   5.604   6.512   4.321  1.4145  0.3356  0.6528
19902TIP3    H281122   5.599   6.495   4.171  0.9184  1.1770  0.5689
19903TIP3   OH281123   2.353   1.683  17.010 -0.4731  0.4150  0.5355
19903TIP3    H181124   2.390   1.652  16.927  0.1211 -0.1153  0.9835
19903TIP3    H281125   2.289   1.749  16.985  0.0884  0.6510 -0.3209
19904TIP3   OH281126   3.023   0.780   4.781  1.0243  0.4356  0.5734
19904TIP3    H181127   3.066   0.854   4.825 -0.2164  0.8733  1.1230
19904TIP3    H281128   3.036   0.706   4.840 -1.2970  1.1863  2.2131
19905TIP3   OH281129   2.839   4.763  15.370 -0.2763  0.1615 -0.3624
19905TIP3    H181130   2.870   4.680  15.335  1.3711  0.1924  0.8869
19905TIP3    H281131   2.789   4.738  15.448 -1.4757  0.2553 -1.0799
19906TIP3   OH281132   0.556   2.822  12.588  0.5121  0.3076  0.0344
19906TIP3    H181133   0.502   2.774  12.652 -0.4271 -0.7500 -1.4824
19906TIP3    H281134   0.553   2.768  12.509  2.1289  1.2847 -0.7464
19907TIP3   OH281135   4.037   4.870   2.947 -0.0050  0.6370 -0.0311
19907TIP3    H181136   4.122   4.896   2.983  0.7553  0.8714 -1.9096
19907TIP3    H281137   3.999   4.815   3.016  1.4351  0.9307  1.0650
19908TIP3   OH281138   6.400   6.243  12.945  0.1215 -0.3450 -0.4313
19908TIP3    H181139   6.438   6.322  12.985  0.2091  0.8288 -2.6944
19908TIP3    H281140   6.440   6.239  12.858 -0.9163 -2.1496 -0.8556
19909TIP3   OH281141   5.865   2.641  13.398 -1.3313  0.2303 -0.7319
19909TIP3    H181142   5.899   2.727  13.374 -1.6120 -0.4378 -3.9788
19909TIP3    H281143   5.815   2.612  13.321 -0.7536 -3.0954 -0.0332
19910TIP3   OH281144   5.157   1.271   4.576 -0.5587  0.3886  0.1868
19910TIP3    H181145   5.165   1.365   4.562  0.5451  0.5089  1.4101
19910TIP3    H281146   5.069   1.249   4.545 -1.4327  2.1045  1.3010
19911TIP3   OH281147   3.858   5.460   6.609 -0.0460 -0.0659 -0.2238
19911TIP3    H181148   3.774   5.481   6.650 -0.3769  1.3445 -1.5092
19911TIP3    H281149   3.835   5.431   6.521  0.7863  0.0351 -0.4874
19912TIP3   OH281150   0.097   3.925   0.638 -0.4992 -0.0515 -0.2399
19912TIP3    H181151   0.181   3.908   0.680 -0.3865  1.2256  0.1051
19912TIP3    H281152   0.112   4.004   0.586 -1.3142 -0.1789 -0.6847
19913TIP3   OH281153   4.675   6.748   3.431 -0.0660  0.0554 -0.1856
19913TIP3    H181154   4.732   6.673   3.443  0.3004 -0.0581 -2.2307
19913TIP3    H281155   4.632   6.732   3.347  0.0100  2.1118 -0.6748
19914TIP3   OH281156   2.160   5.152   2.561  0.4619 -0.1611  0.1612
19914TIP3    H181157   2.189   5.220   2.499 -1.3490  0.4456 -0.0775
19914TIP3    H281158   2.070   5.132   2.534  0.8261 -2.4474  0.4322
19915TIP3   OH281159   6.685   3.069  17.108 -0.7850 -0.2101 -0.1740
19915TIP3    H181160   6.625   3.060  17.034 -1.6029 -1.8080  0.6349
19915TIP3    H281161   6.654   3.147  17.155 -1.6653 -0.4869 -0.2816
19916TIP3   OH281162   3.181   5.847  12.105 -0.1343 -0.0709 -0.3750
19916TIP3    H181163   3.195   5.937  12.135  2.3159 -0.4251 -0.2442
19916TIP3    H281164   3.096   5.822  12.141 -1.1190  2.3510 -0.8570
19917TIP3   OH281165   3.768   6.778  11.784 -1.1861  0.1125  0.0797
19917TIP3    H181166   3.679   6.812  11.779 -1.0151  0.4505 -0.7865
19917TIP3    H281167   3.807   6.797  11.698  0.0467  0.8684  0.7794
19918TIP3   OH281168   4.948   0.316   4.176  0.1363  0.0895  0.2649
19918TIP3    H181169   5.008   0.262   4.227 -0.2699 -1.0046 -0.3893
19918TIP3    H281170   4.866   0.314   4.225  0.2608  0.5336  0.4974
19919TIP3   OH281171   0.946   3.408   0.530  0.6841 -0.1910 -0.1892
19919TIP3    H181172   0.860   3.424   0.492  0.2954  0.1535  0.8053
19919TIP3    H281173   0.973   3.493   0.565  2.1265  0.0847 -1.8406
19920TIP3   OH281174   4.567   0.265   0.829  0.5751  0.2629 -0.6088
19920TIP3    H181175   4.614   0.205   0.770 -1.2088 -0.1983 -1.6266
19920TIP3    H281176   4.603   0.351   0.808  0.6314 -0.0101 -1.7246
19921TIP3   OH281177   3.229   3.777  14.893 -0.0923  0.4134 -0.1425
19921TIP3    H181178   3.314   3.776  14.850  0.5413  2.0563  0.9253
19921TIP3    H281179   3.182   3.850  14.852 -0.4935  0.3142  0.1299
19922TIP3   OH281180   1.312   3.039  10.463  0.2922  0.5695 -0.3771
19922TIP3    H181181   1.397   3.068  10.430  1.4487  0.7171  2.4835
19922TIP3    H281182   1.276   2.985  10.392  2.3897  1.1587 -1.9846
19923TIP3   OH281183   5.189   3.974   4.073  0.4720 -0.6868 -0.2814
19923TIP3    H181184   5.147   3.993   4.157  1.5942  1.4500 -0.1231
19923TIP3    H281185   5.148   4.036   4.012  1.4704 -0.4418 -0.7172
19924TIP3   OH281186   3.635   4.124  10.690 -0.5674 -0.1045 -0.0511
19924TIP3    H181187   3.727   4.144  10.707 -0.3154 -0.4039 -1.0145
19924TIP3    H281188   3.587   4.194  10.734  0.0383 -0.6892  1.6301
19925TIP3   OH281189   0.320   5.885  11.882 -0.0947  0.4050  0.1472
19925TIP3    H181190   0.292   5.974  11.901  0.9945  0.9016 -0.4309
19925TIP3    H281191   0.285   5.832  11.953  0.3491  1.5123  1.2225
19926TIP3   OH281192   2.505   4.023   4.128  0.6286  0.2314  0.0012
19926TIP3    H181193   2.509   3.973   4.209  1.9193 -0.7146 -0.6090
19926TIP3    H281194   2.415   4.010   4.097  0.5867 -0.7204  0.4721
19927TIP3   OH281195   2.943   1.445   0.978  0.5812 -0.1493  0.3268
19927TIP3    H181196   2.979   1.357   0.993 -0.6007 -0.5559  0.8899
19927TIP3    H281197   2.909   1.472   1.063 -1.8844 -0.4742 -0.4880
19928TIP3   OH281198   3.196   6.245  11.570 -0.1332 -0.4857 -0.2151
19928TIP3    H181199   3.278   6.216  11.530 -0.5031 -1.6452 -0.1811
19928TIP3    H281200   3.128   6.195  11.525 -0.6059 -1.3841  1.4117
19929TIP3   OH281201   0.479   0.651   1.055 -0.2204 -0.8728  0.2296
19929TIP3    H181202   0.513   0.606   1.132 -1.3210  1.1787  2.0208
19929TIP3    H281203   0.486   0.587   0.984  1.5373 -2.5785  1.8366
19930TIP3   OH281204   3.768   0.198   0.308  0.5205  0.9411  0.3204
19930TIP3    H181205   3.675   0.200   0.286  0.6931 -0.4309 -0.7137
19930TIP3    H281206   3.805   0.277   0.269 -0.4450  2.3659  2.1347
19931TIP3   OH281207   1.858   2.194  15.682  0.0749 -0.2830 -0.6415
19931TIP3    H181208   1.862   2.130  15.611 -0.8602  1.1353 -2.0526
19931TIP3    H281209   1.777   2.243  15.665  2.6585  4.0408 -2.1634
19932TIP3   OH281210   1.155   0.749  15.323 -0.0445  0.1695 -0.5480
19932TIP3    H181211   1.091   0.804  15.278 -0.8325 -0.0993  0.1985
19932TIP3    H281212   1.128   0.660  15.301  1.1206  0.0601 -1.6129
19933TIP3   OH281213   1.957   2.601  15.929 -0.0497  0.3080  0.5395
19933TIP3    H181214   1.923   2.528  15.877  1.4897  0.2315 -0.4097
19933TIP3    H281215   1.942   2.678  15.874 -1.3215  0.6950  1.3769
19934TIP3   OH281216   5.749   5.532  12.785 -0.4005 -0.0440  0.2533
19934TIP3    H181217   5.784   5.524  12.696 -0.8530 -0.8449  0.1342
19934TIP3    H281218   5.810   5.590  12.830 -0.2079  0.4299 -0.6012
19935TIP3   OH281219   4.094   0.608   0.464  1.0676  0.8856  0.1100
19935TIP3    H181220   4.018   0.663   0.443 -0.4333 -1.4513 -1.0404
19935TIP3    H281221   4.096   0.606   0.559  0.4572  1.9670  0.1737
19936TIP3   OH281222   4.127   3.571   3.786 -0.3493  0.3251  0.5839
19936TIP3    H181223   4.189   3.566   3.713 -1.0154  0.2794 -0.0008
19936TIP3    H281224   4.058   3.508   3.762 -0.8409  0.7007  0.9917
19937TIP3   OH281225   6.456   2.586  12.382 -0.0171 -0.4071  0.5564
19937TIP3    H181226   6.454   2.559  12.474 -0.6601  1.1192  1.0313
19937TIP3    H281227   6.388   2.534  12.340 -0.1221 -0.7064  1.0843
19938TIP3   OH281228   3.014   4.555   4.689 -0.3103  0.0195  0.8468
19938TIP3    H181229   3.109   4.566   4.694 -0.5190  1.5012  2.2563
19938TIP3    H281230   2.979   4.623   4.745 -2.3324  0.9631 -1.3963
19939TIP3   OH281231   3.188   6.130   4.160 -0.6460  0.2180  0.4970
19939TIP3    H181232   3.278   6.151   4.134 -0.7949  0.7694  0.4108
19939TIP3    H281233   3.196   6.049   4.209 -0.2090 -0.2343 -0.2918
19940TIP3   OH281234   3.089   1.137   0.676  0.2670 -0.4574  0.0187
19940TIP3    H181235   3.032   1.212   0.691  0.6367  0.1642 -1.6046
19940TIP3    H281236   3.038   1.079   0.620  0.3094 -1.0397  0.5699
19941TIP3   OH281237   1.236   4.124   2.994 -0.4009  0.0614 -0.1921
19941TIP3    H181238   1.311   4.144   2.938 -0.1431 -2.3706 -0.8613
19941TIP3    H281239   1.261   4.158   3.080  0.5452  1.1327 -0.8547
19942TIP3   OH281240   4.859   5.261  13.019  0.0598  0.0794 -0.0318
19942TIP3    H181241   4.924   5.289  13.084 -1.5854  0.1639  1.6502
19942TIP3    H281242   4.815   5.342  12.993 -0.9727 -0.2411  0.6642
19943TIP3   OH281243   3.154   6.234  16.622  0.4009 -0.7588 -0.1464
19943TIP3    H181244   3.159   6.295  16.548  0.9858  2.3288  2.2651
19943TIP3    H281245   3.094   6.166  16.592 -1.1280  1.5134 -2.7105
19944LIG      S81246   3.694   3.246  14.029 -0.0493  0.0957  0.1933
19944LIG     O181247   3.404   3.131  13.904 -0.7733  0.0391  0.4151
19944LIG     O281248   3.627   2.621  13.712 -0.6251  0.2984  0.5375
19944LIG     O381249   3.804   2.629  13.842  0.5491  0.1805 -0.7073
19944LIG     N181250   3.342   3.017  13.633 -0.3235  0.4273 -0.2404
19944LIG     N281251   3.829   2.916  13.882 -0.6880  0.1729 -0.3211
19944LIG     N381252   3.807   3.023  13.679 -0.2404 -0.0218  0.5292
19944LIG     N481253   3.737   2.660  13.740 -0.3774 -0.2306  0.2367
19944LIG     N581254   3.772   3.024  13.548 -0.1390  0.7028 -0.2349
19944LIG     C181255   3.242   3.072  13.724  0.1762 -0.4661  0.7497
19944LIG     C281256   3.304   3.171  13.825  0.5084 -0.2536 -0.3322
19944LIG     C381257   3.427   3.236  13.987  0.2043  0.4010  0.0435
19944LIG     C481258   3.530   3.231  14.094 -0.2764  0.7188 -0.2766
19944LIG     C581259   3.266   3.298  13.854  0.3957  0.1889  0.5263
19944LIG     C681260   3.707   3.078  13.977  0.7691 -0.5421  0.5824
19944LIG     C781261   3.337   3.341  13.958  0.1614  0.5496  0.0968
19944LIG     C881262   3.850   3.042  13.953  0.2851  0.0771 -0.0347
19944LIG     C981263   3.435   2.916  13.692 -0.6450  0.5391  0.5241
19944LIG    C1081264   3.417   3.115  13.557 -0.0736 -1.0277 -0.0912
19944LIG    C1181265   3.806   2.905  13.751 -0.0548  0.2518  0.0048
19944LIG    C1281266   3.783   2.784  13.677  1.1533  0.4274 -0.0318
19944LIG    C1381267   3.777   2.783  13.536 -0.0543  0.1140 -0.2506
19944LIG    C1481268   3.763   2.913  13.476  1.0654  0.7979 -0.0766
19944LIG     H181269   3.178   2.997  13.775 -1.4834  0.5267  0.2430
19944LIG     H281270   3.164   3.127  13.666  1.5191 -0.9412 -1.6599
19944LIG     H381271   3.506   3.307  14.171  0.9624  0.8982 -0.0409
19944LIG     H481272   3.512   3.140  14.155  1.9063 -0.1640 -0.8273
19944LIG     H581273   3.185   3.343  13.799  0.7954 -2.0615 -2.1026
19944LIG     H681274   3.660   3.075  13.876  2.5801 -0.5126 -0.2944
19944LIG     H781275   3.655   3.012  14.049 -1.3398 -1.3389 -1.5290
19944LIG     H881276   3.337   3.441  13.999  1.8813  0.9136 -0.6913
19944LIG     H981277   3.905   3.120  13.896  2.4710 -1.2346  0.1461
19944LIG    H1081278   3.906   3.027  14.048  1.0926 -1.2725 -0.6778
19944LIG    H1181279   3.470   2.850  13.610 -0.8003  0.2036  0.7254
19944LIG    H1281280   3.381   2.851  13.765  0.5190  1.5747  2.3850
19944LIG    H1381281   3.515   2.969  13.748 -0.4241 -0.8356  1.5706
19944LIG    H1481282   3.345   3.177  13.499 -1.0374  0.0157  2.1311
19944LIG    H1581283   3.487   3.067  13.485 -1.2537 -0.0993 -1.9486
19944LIG    H1681284   3.480   3.178  13.622  1.0211  0.1492 -2.2141
19944LIG    H1781285   3.817   2.833  13.940 -2.4905  1.0896  0.7222
19944LIG    H1881286   3.765   2.690  13.482 -2.3131 -0.2575  0.7610
19944LIG    H1981287   3.745   2.905  13.370  3.8792 -1.6872 -0.4856
   6.77911   6.77911  17.33020
